<event>
 7    1  0.6841384E-013  0.5930194E+02  0.7816164E-02  0.1266605E+00
        -11   -1    0    0    0    0  0.00000000000E+00  0.00000000000E+00  0.45593999997E+02  0.45594000000E+02  0.51100000000E-03 0. -1.
         11   -1    0    0    0    0 -0.00000000000E+00 -0.00000000000E+00 -0.45593999997E+02  0.45594000000E+02  0.51100000000E-03 0.  1.
    9900012    2    1    2    0    0 -0.17571839324E+02  0.69072321414E+01  0.25695167591E+02  0.59301936734E+02  0.49999986698E+02 0.  0.
        -12    1    1    2    0    0  0.17571839324E+02 -0.69072321414E+01 -0.25695167591E+02  0.31886063266E+02  0.00000000000E+00 0.  1.
         11    1    3    3    0    0 -0.20528181831E+02  0.73783283458E+01  0.34183924046E+02  0.40551037495E+02  0.51100000000E-03 0. -1.
        -11    1    3    3    0    0 -0.56585553004E+01 -0.42586578480E+01 -0.21379706360E+01  0.73977248837E+01  0.51100000000E-03 0.  1.
        -12    1    3    3    0    0  0.86148978070E+01  0.37875616437E+01 -0.63507858191E+01  0.11353174356E+02  0.00000000000E+00 0.  1.
</event>
<event>
 7    1  0.6841384E-013  0.5930196E+02  0.7816164E-02  0.1266605E+00
        -11   -1    0    0    0    0  0.00000000000E+00  0.00000000000E+00  0.45593999997E+02  0.45594000000E+02  0.51100000000E-03 0.  1.
         11   -1    0    0    0    0 -0.00000000000E+00 -0.00000000000E+00 -0.45593999997E+02  0.45594000000E+02  0.51100000000E-03 0. -1.
    9900012    2    1    2    0    0  0.21377392486E+02 -0.17153315054E+02 -0.16293881656E+02  0.59301957501E+02  0.50000024572E+02 0.  0.
        -12    1    1    2    0    0 -0.21377392486E+02  0.17153315054E+02  0.16293881656E+02  0.31886042499E+02  0.00000000000E+00 0.  1.
         11    1    3    3    0    0  0.51903230715E+00 -0.57630474889E+01 -0.21474439086E+02  0.22240360726E+02  0.51100000000E-03 0. -1.
        -11    1    3    3    0    0 -0.60868482322E+01 -0.41707767685E+01 -0.30393118838E+01  0.79801326582E+01  0.51100000000E-03 0.  1.
        -12    1    3    3    0    0  0.26945208411E+02 -0.72194907969E+01  0.82198693139E+01  0.29081464117E+02  0.00000000000E+00 0.  1.
</event>
<event>
 7    1  0.6841384E-013  0.5930196E+02  0.7816164E-02  0.1266605E+00
        -11   -1    0    0    0    0  0.00000000000E+00  0.00000000000E+00  0.45593999997E+02  0.45594000000E+02  0.51100000000E-03 0. -1.
         11   -1    0    0    0    0 -0.00000000000E+00 -0.00000000000E+00 -0.45593999997E+02  0.45594000000E+02  0.51100000000E-03 0.  1.
    9900012    2    1    2    0    0  0.28549408029E+02  0.77625053691E+01  0.11890922734E+02  0.59301964939E+02  0.50000038138E+02 0.  0.
        -12    1    1    2    0    0 -0.28549408029E+02 -0.77625053691E+01 -0.11890922734E+02  0.31886035061E+02  0.00000000000E+00 0.  1.
         11    1    3    3    0    0  0.20777827012E+02  0.63127838036E+01  0.58140019801E+01  0.22480479398E+02  0.51100000000E-03 0. -1.
        -11    1    3    3    0    0  0.16368696366E+02  0.13643547851E+02  0.23135698760E+01  0.21434393495E+02  0.51100000000E-03 0.  1.
        -12    1    3    3    0    0 -0.85971153489E+01 -0.12193826285E+02  0.37633508780E+01  0.15387092046E+02  0.00000000000E+00 0.  1.
</event>
<event>
 7    1  0.6841384E-013  0.5930194E+02  0.7816164E-02  0.1266605E+00
        -11   -1    0    0    0    0  0.00000000000E+00  0.00000000000E+00  0.45593999997E+02  0.45594000000E+02  0.51100000000E-03 0. -1.
         11   -1    0    0    0    0 -0.00000000000E+00 -0.00000000000E+00 -0.45593999997E+02  0.45594000000E+02  0.51100000000E-03 0.  1.
    9900012    2    1    2    0    0  0.71887240209E+01  0.27404042850E+02 -0.14630851564E+02  0.59301935096E+02  0.49999983711E+02 0.  0.
        -12    1    1    2    0    0 -0.71887240209E+01 -0.27404042850E+02  0.14630851564E+02  0.31886064904E+02  0.00000000000E+00 0.  1.
         11    1    3    3    0    0  0.12412056723E+02 -0.10935341112E+02 -0.18544319984E+01  0.16645712831E+02  0.51100000000E-03 0. -1.
        -11    1    3    3    0    0  0.12602186318E+01  0.63821088040E+01  0.20706189754E+01  0.68269266137E+01  0.51100000000E-03 0.  1.
        -12    1    3    3    0    0 -0.64835513338E+01  0.31957275159E+02 -0.14847038541E+02  0.35829295652E+02  0.00000000000E+00 0.  1.
</event>
<event>
 7    1  0.6841384E-013  0.5930193E+02  0.7816164E-02  0.1266605E+00
        -11   -1    0    0    0    0  0.00000000000E+00  0.00000000000E+00  0.45593999997E+02  0.45594000000E+02  0.51100000000E-03 0. -1.
         11   -1    0    0    0    0 -0.00000000000E+00 -0.00000000000E+00 -0.45593999997E+02  0.45594000000E+02  0.51100000000E-03 0.  1.
    9900012    2    1    2    0    0 -0.26436740434E+02  0.35731930527E+01  0.17465761508E+02  0.59301925008E+02  0.49999965312E+02 0.  0.
        -12    1    1    2    0    0  0.26436740434E+02 -0.35731930527E+01 -0.17465761508E+02  0.31886074992E+02  0.00000000000E+00 0.  1.
         11    1    3    3    0    0 -0.40258999709E+01  0.68567583289E+00  0.11694670025E+02  0.12387224434E+02  0.51100000000E-03 0. -1.
        -11    1    3    3    0    0 -0.73990567896E+01  0.19758737413E+02  0.10912752232E+02  0.23753776691E+02  0.51100000000E-03 0.  1.
         12    1    3    3    0    0 -0.15011783673E+02 -0.16871220193E+02 -0.51416607480E+01  0.23160923883E+02  0.00000000000E+00 0. -1.
</event>
<event>
 7    1  0.6841384E-013  0.5930197E+02  0.7816164E-02  0.1266605E+00
        -11   -1    0    0    0    0  0.00000000000E+00  0.00000000000E+00  0.45593999997E+02  0.45594000000E+02  0.51100000000E-03 0.  1.
         11   -1    0    0    0    0 -0.00000000000E+00 -0.00000000000E+00 -0.45593999997E+02  0.45594000000E+02  0.51100000000E-03 0. -1.
    9900012    2    1    2    0    0 -0.52902368034E+01  0.22435999353E+02  0.22030851492E+02  0.59301967166E+02  0.50000042199E+02 0.  0.
        -12    1    1    2    0    0  0.52902368034E+01 -0.22435999353E+02 -0.22030851492E+02  0.31886032834E+02  0.00000000000E+00 0.  1.
         11    1    3    3    0    0  0.82357038434E+01  0.28830708247E+02  0.12202404938E+00  0.29984186598E+02  0.51100000000E-03 0. -1.
        -11    1    3    3    0    0 -0.41807766192E+01  0.30997450090E+01  0.10734989226E+02  0.11930100847E+02  0.51100000000E-03 0.  1.
        -12    1    3    3    0    0 -0.93451640276E+01 -0.94944539031E+01  0.11173838217E+02  0.17387679722E+02  0.00000000000E+00 0.  1.
</event>
<event>
 7    1  0.6841384E-013  0.5930189E+02  0.7816164E-02  0.1266605E+00
        -11   -1    0    0    0    0  0.00000000000E+00  0.00000000000E+00  0.45593999997E+02  0.45594000000E+02  0.51100000000E-03 0.  1.
         11   -1    0    0    0    0 -0.00000000000E+00 -0.00000000000E+00 -0.45593999997E+02  0.45594000000E+02  0.51100000000E-03 0. -1.
    9900012    2    1    2    0    0 -0.53904150831E+01  0.50591620466E+01 -0.31017287662E+02  0.59301892849E+02  0.49999906662E+02 0.  0.
        -12    1    1    2    0    0  0.53904150831E+01 -0.50591620466E+01  0.31017287662E+02  0.31886107151E+02  0.00000000000E+00 0.  1.
         11    1    3    3    0    0 -0.17386128506E+02  0.65626587744E+01 -0.10902856997E+01  0.18615441917E+02  0.51100000000E-03 0. -1.
        -11    1    3    3    0    0  0.35349085963E+01 -0.99287192608E+01 -0.25859011169E+01  0.10851816889E+02  0.51100000000E-03 0.  1.
        -12    1    3    3    0    0  0.84608048264E+01  0.84252225330E+01 -0.27341100845E+02  0.29834634043E+02  0.00000000000E+00 0.  1.
</event>
<event>
 7    1  0.6841384E-013  0.5930193E+02  0.7816164E-02  0.1266605E+00
        -11   -1    0    0    0    0  0.00000000000E+00  0.00000000000E+00  0.45593999997E+02  0.45594000000E+02  0.51100000000E-03 0.  1.
         11   -1    0    0    0    0 -0.00000000000E+00 -0.00000000000E+00 -0.45593999997E+02  0.45594000000E+02  0.51100000000E-03 0. -1.
    9900012    2    1    2    0    0 -0.30712211942E+02  0.69837180214E+01 -0.49708016296E+01  0.59301934883E+02  0.49999983323E+02 0.  0.
        -12    1    1    2    0    0  0.30712211942E+02 -0.69837180214E+01  0.49708016296E+01  0.31886065117E+02  0.00000000000E+00 0.  1.
         11    1    3    3    0    0 -0.20986192191E+02  0.17812718867E+02 -0.77071126207E+01  0.28585184997E+02  0.51100000000E-03 0. -1.
        -11    1    3    3    0    0  0.86526139058E+01  0.81212620307E+00 -0.58106379641E+00  0.87100465997E+01  0.51100000000E-03 0.  1.
         12    1    3    3    0    0 -0.18378633657E+02 -0.11641127048E+02  0.33173747875E+01  0.22006703287E+02  0.00000000000E+00 0. -1.
</event>
<event>
 7    1  0.6841384E-013  0.5930210E+02  0.7816164E-02  0.1266604E+00
        -11   -1    0    0    0    0  0.00000000000E+00  0.00000000000E+00  0.45593999997E+02  0.45594000000E+02  0.51100000000E-03 0.  1.
         11   -1    0    0    0    0 -0.00000000000E+00 -0.00000000000E+00 -0.45593999997E+02  0.45594000000E+02  0.51100000000E-03 0. -1.
    9900012    2    1    2    0    0  0.23704904704E+02  0.10563951461E+02 -0.18525410193E+02  0.59302103426E+02  0.50000290704E+02 0.  0.
        -12    1    1    2    0    0 -0.23704904704E+02 -0.10563951461E+02  0.18525410193E+02  0.31885896574E+02  0.00000000000E+00 0.  1.
         11    1    3    3    0    0  0.54250893782E+01 -0.84496448101E+01  0.96028903053E+00  0.10087132767E+02  0.51100000000E-03 0. -1.
        -11    1    3    3    0    0 -0.53638101315E+01  0.95520101019E+01  0.65755670593E+01  0.12776910367E+02  0.51100000000E-03 0.  1.
         12    1    3    3    0    0  0.23643625457E+02  0.94615861696E+01 -0.26061266282E+02  0.36438060292E+02  0.00000000000E+00 0. -1.
</event>
<event>
 7    1  0.6841384E-013  0.5930196E+02  0.7816164E-02  0.1266605E+00
        -11   -1    0    0    0    0  0.00000000000E+00  0.00000000000E+00  0.45593999997E+02  0.45594000000E+02  0.51100000000E-03 0. -1.
         11   -1    0    0    0    0 -0.00000000000E+00 -0.00000000000E+00 -0.45593999997E+02  0.45594000000E+02  0.51100000000E-03 0.  1.
    9900012    2    1    2    0    0 -0.14566051245E+02  0.20548403241E+02  0.19552822631E+02  0.59301959207E+02  0.50000027683E+02 0.  0.
        -12    1    1    2    0    0  0.14566051245E+02 -0.20548403241E+02 -0.19552822631E+02  0.31886040793E+02  0.00000000000E+00 0.  1.
         11    1    3    3    0    0 -0.21870698855E+00  0.20849282044E+02 -0.58327039593E+00  0.20858585741E+02  0.51100000000E-03 0. -1.
        -11    1    3    3    0    0  0.72018360789E+01  0.45692899183E+01  0.12370215119E+02  0.15025547431E+02  0.51100000000E-03 0.  1.
         12    1    3    3    0    0 -0.21549180335E+02 -0.48701687218E+01  0.77658779086E+01  0.23417826035E+02  0.00000000000E+00 0. -1.
</event>
<event>
 7    1  0.6841384E-013  0.5930193E+02  0.7816164E-02  0.1266605E+00
        -11   -1    0    0    0    0  0.00000000000E+00  0.00000000000E+00  0.45593999997E+02  0.45594000000E+02  0.51100000000E-03 0. -1.
         11   -1    0    0    0    0 -0.00000000000E+00 -0.00000000000E+00 -0.45593999997E+02  0.45594000000E+02  0.51100000000E-03 0.  1.
    9900012    2    1    2    0    0  0.57570535153E+01  0.22423495432E+02  0.21926339477E+02  0.59301934463E+02  0.49999982557E+02 0.  0.
        -12    1    1    2    0    0 -0.57570535153E+01 -0.22423495432E+02 -0.21926339477E+02  0.31886065537E+02  0.00000000000E+00 0.  1.
         11    1    3    3    0    0  0.73288415545E+01  0.74078625658E+01  0.38033329651E+01  0.11092956695E+02  0.51100000000E-03 0. -1.
        -11    1    3    3    0    0  0.14171942534E+02 -0.82613410715E+01  0.46852621009E+01  0.17060052541E+02  0.51100000000E-03 0.  1.
         12    1    3    3    0    0 -0.15743730573E+02  0.23276973937E+02  0.13437744411E+02  0.31148925228E+02  0.00000000000E+00 0. -1.
</event>
<event>
 7    1  0.6841384E-013  0.5930195E+02  0.7816164E-02  0.1266605E+00
        -11   -1    0    0    0    0  0.00000000000E+00  0.00000000000E+00  0.45593999997E+02  0.45594000000E+02  0.51100000000E-03 0.  1.
         11   -1    0    0    0    0 -0.00000000000E+00 -0.00000000000E+00 -0.45593999997E+02  0.45594000000E+02  0.51100000000E-03 0. -1.
    9900012    2    1    2    0    0 -0.18996378009E+02  0.18608665945E+02 -0.17594761407E+02  0.59301945765E+02  0.50000003169E+02 0.  0.
        -12    1    1    2    0    0  0.18996378009E+02 -0.18608665945E+02  0.17594761407E+02  0.31886054235E+02  0.00000000000E+00 0.  1.
         11    1    3    3    0    0 -0.11768841954E+02  0.32864853575E+00 -0.18743861483E+02  0.22134723724E+02  0.51100000000E-03 0. -1.
        -11    1    3    3    0    0  0.30541249319E+00 -0.83301234993E+01  0.42170914696E+01  0.93417394006E+01  0.51100000000E-03 0.  1.
        -12    1    3    3    0    0 -0.75329485476E+01  0.26610140908E+02 -0.30679913943E+01  0.27825482640E+02  0.00000000000E+00 0.  1.
</event>
<event>
 7    1  0.6841384E-013  0.5930197E+02  0.7816164E-02  0.1266605E+00
        -11   -1    0    0    0    0  0.00000000000E+00  0.00000000000E+00  0.45593999997E+02  0.45594000000E+02  0.51100000000E-03 0.  1.
         11   -1    0    0    0    0 -0.00000000000E+00 -0.00000000000E+00 -0.45593999997E+02  0.45594000000E+02  0.51100000000E-03 0. -1.
    9900012    2    1    2    0    0  0.37255582054E+01  0.30235953761E+02 -0.94141597553E+01  0.59301967200E+02  0.50000042261E+02 0.  0.
        -12    1    1    2    0    0 -0.37255582054E+01 -0.30235953761E+02  0.94141597553E+01  0.31886032800E+02  0.00000000000E+00 0.  1.
         11    1    3    3    0    0  0.11528840061E+02  0.13828602026E+01 -0.18217176305E+02  0.21603054605E+02  0.51100000000E-03 0. -1.
        -11    1    3    3    0    0  0.15967669332E+01 -0.67195830568E+00 -0.38561114250E+01  0.42273855025E+01  0.51100000000E-03 0.  1.
        -12    1    3    3    0    0 -0.94000487884E+01  0.29525051865E+02  0.12659127975E+02  0.33471527093E+02  0.00000000000E+00 0.  1.
</event>
<event>
 7    1  0.6841384E-013  0.5930195E+02  0.7816164E-02  0.1266605E+00
        -11   -1    0    0    0    0  0.00000000000E+00  0.00000000000E+00  0.45593999997E+02  0.45594000000E+02  0.51100000000E-03 0.  1.
         11   -1    0    0    0    0 -0.00000000000E+00 -0.00000000000E+00 -0.45593999997E+02  0.45594000000E+02  0.51100000000E-03 0. -1.
    9900012    2    1    2    0    0 -0.86488830287E+01  0.21565799440E+02 -0.21836516241E+02  0.59301947804E+02  0.50000006887E+02 0.  0.
        -12    1    1    2    0    0  0.86488830287E+01 -0.21565799440E+02  0.21836516241E+02  0.31886052196E+02  0.00000000000E+00 0.  1.
         11    1    3    3    0    0 -0.21060367551E+02  0.16838818063E+02 -0.12904397925E+02  0.29893282878E+02  0.51100000000E-03 0. -1.
        -11    1    3    3    0    0  0.11640432024E+02  0.21727825693E+01 -0.17109189671E+02  0.20807330758E+02  0.51100000000E-03 0.  1.
        -12    1    3    3    0    0  0.77105249791E+00  0.25541988076E+01  0.81770713561E+01  0.86013341678E+01  0.00000000000E+00 0.  1.
</event>
<event>
 7    1  0.6841384E-013  0.5930198E+02  0.7816164E-02  0.1266605E+00
        -11   -1    0    0    0    0  0.00000000000E+00  0.00000000000E+00  0.45593999997E+02  0.45594000000E+02  0.51100000000E-03 0.  1.
         11   -1    0    0    0    0 -0.00000000000E+00 -0.00000000000E+00 -0.45593999997E+02  0.45594000000E+02  0.51100000000E-03 0. -1.
    9900012    2    1    2    0    0 -0.29427191044E+02 -0.10258893198E+02  0.67464105934E+01  0.59301976129E+02  0.50000058545E+02 0.  0.
        -12    1    1    2    0    0  0.29427191044E+02  0.10258893198E+02 -0.67464105934E+01  0.31886023871E+02  0.00000000000E+00 0.  1.
         11    1    3    3    0    0 -0.91401400995E+01 -0.19853482986E+02  0.89608724843E+01  0.23622027509E+02  0.51100000000E-03 0. -1.
        -11    1    3    3    0    0  0.40673823098E+01 -0.17813319655E+01  0.60983273407E+01  0.75436290365E+01  0.51100000000E-03 0.  1.
        -12    1    3    3    0    0 -0.24354433254E+02  0.11375921753E+02 -0.83127892316E+01  0.28136319583E+02  0.00000000000E+00 0.  1.
</event>
<event>
 7    1  0.6841384E-013  0.5930206E+02  0.7816164E-02  0.1266604E+00
        -11   -1    0    0    0    0  0.00000000000E+00  0.00000000000E+00  0.45593999997E+02  0.45594000000E+02  0.51100000000E-03 0.  1.
         11   -1    0    0    0    0 -0.00000000000E+00 -0.00000000000E+00 -0.45593999997E+02  0.45594000000E+02  0.51100000000E-03 0. -1.
    9900012    2    1    2    0    0 -0.14908195972E+02  0.28172660699E+02 -0.87174581700E+00  0.59302061739E+02  0.50000214677E+02 0.  0.
        -12    1    1    2    0    0  0.14908195972E+02 -0.28172660699E+02  0.87174581700E+00  0.31885938261E+02  0.00000000000E+00 0.  1.
         11    1    3    3    0    0 -0.24247783914E+02  0.12029811307E+02 -0.15373219841E+02  0.31128881659E+02  0.51100000000E-03 0.  1.
        -11    1    3    3    0    0 -0.13080694276E+01 -0.38500965591E+00 -0.20574694255E+01  0.24682906556E+01  0.51100000000E-03 0. -1.
        -12    1    3    3    0    0  0.10647657370E+02  0.16527859048E+02  0.16558943449E+02  0.25704889424E+02  0.00000000000E+00 0.  1.
</event>
<event>
 7    1  0.6841384E-013  0.5930195E+02  0.7816164E-02  0.1266605E+00
        -11   -1    0    0    0    0  0.00000000000E+00  0.00000000000E+00  0.45593999997E+02  0.45594000000E+02  0.51100000000E-03 0. -1.
         11   -1    0    0    0    0 -0.00000000000E+00 -0.00000000000E+00 -0.45593999997E+02  0.45594000000E+02  0.51100000000E-03 0.  1.
    9900012    2    1    2    0    0  0.93105143497E+00 -0.29884330494E+01  0.31732044928E+02  0.59301948752E+02  0.50000008615E+02 0.  0.
        -12    1    1    2    0    0 -0.93105143497E+00  0.29884330494E+01 -0.31732044928E+02  0.31886051248E+02  0.00000000000E+00 0.  1.
         11    1    3    3    0    0  0.19056891596E+01  0.53007100820E+01  0.64278714334E+01  0.85467368025E+01  0.51100000000E-03 0. -1.
        -11    1    3    3    0    0 -0.11142940408E+02  0.69679317207E+01 -0.60232541982E+01  0.14456721094E+02  0.51100000000E-03 0.  1.
        -12    1    3    3    0    0  0.10168302683E+02 -0.15257074852E+02  0.31327427693E+02  0.36298490855E+02  0.00000000000E+00 0.  1.
</event>
<event>
 7    1  0.6841384E-013  0.5930194E+02  0.7816164E-02  0.1266605E+00
        -11   -1    0    0    0    0  0.00000000000E+00  0.00000000000E+00  0.45593999997E+02  0.45594000000E+02  0.51100000000E-03 0.  1.
         11   -1    0    0    0    0 -0.00000000000E+00 -0.00000000000E+00 -0.45593999997E+02  0.45594000000E+02  0.51100000000E-03 0. -1.
    9900012    2    1    2    0    0 -0.10888287978E+02  0.21245684166E+02 -0.21137336924E+02  0.59301938421E+02  0.49999989775E+02 0.  0.
        -12    1    1    2    0    0  0.10888287978E+02 -0.21245684166E+02  0.21137336924E+02  0.31886061579E+02  0.00000000000E+00 0.  1.
         11    1    3    3    0    0  0.28136249928E+01  0.51398973298E+01  0.51740223542E+00  0.58824089874E+01  0.51100000000E-03 0. -1.
        -11    1    3    3    0    0 -0.39325808699E+01  0.22542461285E+02  0.57738466055E+01  0.23600107160E+02  0.51100000000E-03 0.  1.
         12    1    3    3    0    0 -0.97693321010E+01 -0.64366744488E+01 -0.27428585765E+02  0.29819422273E+02  0.00000000000E+00 0. -1.
</event>
<event>
 7    1  0.6841384E-013  0.5930195E+02  0.7816164E-02  0.1266605E+00
        -11   -1    0    0    0    0  0.00000000000E+00  0.00000000000E+00  0.45593999997E+02  0.45594000000E+02  0.51100000000E-03 0.  1.
         11   -1    0    0    0    0 -0.00000000000E+00 -0.00000000000E+00 -0.45593999997E+02  0.45594000000E+02  0.51100000000E-03 0. -1.
    9900012    2    1    2    0    0  0.20346233657E+02  0.12618649155E+02 -0.21059928642E+02  0.59301950935E+02  0.50000012598E+02 0.  0.
        -12    1    1    2    0    0 -0.20346233657E+02 -0.12618649155E+02  0.21059928642E+02  0.31886049065E+02  0.00000000000E+00 0.  1.
         11    1    3    3    0    0  0.10894202914E+02  0.55761226121E+01 -0.14030375490E+02  0.18617954699E+02  0.51100000000E-03 0. -1.
        -11    1    3    3    0    0 -0.71884825188E+01 -0.91044486187E+01  0.70332635752E+01  0.13565841749E+02  0.51100000000E-03 0.  1.
         12    1    3    3    0    0  0.16640513262E+02  0.16146975162E+02 -0.14062816728E+02  0.27118154488E+02  0.00000000000E+00 0. -1.
</event>
<event>
 7    1  0.6841384E-013  0.5930195E+02  0.7816164E-02  0.1266605E+00
        -11   -1    0    0    0    0  0.00000000000E+00  0.00000000000E+00  0.45593999997E+02  0.45594000000E+02  0.51100000000E-03 0. -1.
         11   -1    0    0    0    0 -0.00000000000E+00 -0.00000000000E+00 -0.45593999997E+02  0.45594000000E+02  0.51100000000E-03 0.  1.
    9900012    2    1    2    0    0  0.22926649062E+02  0.20406097187E+02  0.86417808174E+01  0.59301946383E+02  0.50000004295E+02 0.  0.
        -12    1    1    2    0    0 -0.22926649062E+02 -0.20406097187E+02 -0.86417808174E+01  0.31886053617E+02  0.00000000000E+00 0.  1.
         11    1    3    3    0    0  0.22704306276E+02  0.16355789891E+02  0.47070834130E+01  0.28375236051E+02  0.51100000000E-03 0. -1.
        -11    1    3    3    0    0  0.16316129783E+01 -0.47718278985E+01  0.15507361014E+02  0.16306770014E+02  0.51100000000E-03 0.  1.
         12    1    3    3    0    0 -0.14092701926E+01  0.88221351945E+01 -0.11572663610E+02  0.14619940318E+02  0.00000000000E+00 0. -1.
</event>
<event>
 7    1  0.6841384E-013  0.5930196E+02  0.7816164E-02  0.1266605E+00
        -11   -1    0    0    0    0  0.00000000000E+00  0.00000000000E+00  0.45593999997E+02  0.45594000000E+02  0.51100000000E-03 0. -1.
         11   -1    0    0    0    0 -0.00000000000E+00 -0.00000000000E+00 -0.45593999997E+02  0.45594000000E+02  0.51100000000E-03 0.  1.
    9900012    2    1    2    0    0  0.30836286959E+02  0.46238046819E+01  0.66680879927E+01  0.59301959784E+02  0.50000028736E+02 0.  0.
        -12    1    1    2    0    0 -0.30836286959E+02 -0.46238046819E+01 -0.66680879927E+01  0.31886040216E+02  0.00000000000E+00 0.  1.
         11    1    3    3    0    0 -0.35430931695E+01 -0.91769478322E+01  0.41045542452E+01  0.10659139109E+02  0.51100000000E-03 0. -1.
        -11    1    3    3    0    0  0.57113366862E+01 -0.98662353205E+01  0.55887239376E+00  0.11413776972E+02  0.51100000000E-03 0.  1.
        -12    1    3    3    0    0  0.28668043442E+02  0.23666987835E+02  0.20046613538E+01  0.37229043704E+02  0.00000000000E+00 0.  1.
</event>
<event>
 7    1  0.6841384E-013  0.5930192E+02  0.7816164E-02  0.1266605E+00
        -11   -1    0    0    0    0  0.00000000000E+00  0.00000000000E+00  0.45593999997E+02  0.45594000000E+02  0.51100000000E-03 0.  1.
         11   -1    0    0    0    0 -0.00000000000E+00 -0.00000000000E+00 -0.45593999997E+02  0.45594000000E+02  0.51100000000E-03 0. -1.
    9900012    2    1    2    0    0  0.28871539255E+02 -0.98280483801E+01 -0.93040797351E+01  0.59301918183E+02  0.49999952866E+02 0.  0.
        -12    1    1    2    0    0 -0.28871539255E+02  0.98280483801E+01  0.93040797351E+01  0.31886081817E+02  0.00000000000E+00 0.  1.
         11    1    3    3    0    0  0.24898201115E+01  0.28752205851E+01 -0.84059874483E+00  0.38952155411E+01  0.51100000000E-03 0.  1.
        -11    1    3    3    0    0  0.20979058964E+02  0.44181529442E+01 -0.23628609881E+02  0.31905363117E+02  0.51100000000E-03 0. -1.
         12    1    3    3    0    0  0.54026601795E+01 -0.17121421909E+02  0.15165128891E+02  0.23501339525E+02  0.00000000000E+00 0. -1.
</event>
<event>
 7    1  0.6841384E-013  0.5930194E+02  0.7816164E-02  0.1266605E+00
        -11   -1    0    0    0    0  0.00000000000E+00  0.00000000000E+00  0.45593999997E+02  0.45594000000E+02  0.51100000000E-03 0. -1.
         11   -1    0    0    0    0 -0.00000000000E+00 -0.00000000000E+00 -0.45593999997E+02  0.45594000000E+02  0.51100000000E-03 0.  1.
    9900012    2    1    2    0    0 -0.60497439503E-01  0.21249610940E+02  0.23773322931E+02  0.59301944925E+02  0.50000001636E+02 0.  0.
        -12    1    1    2    0    0  0.60497439503E-01 -0.21249610940E+02 -0.23773322931E+02  0.31886055075E+02  0.00000000000E+00 0.  1.
         11    1    3    3    0    0  0.14228969812E+02 -0.74928915691E+01  0.11467650635E+02  0.19751304193E+02  0.51100000000E-03 0. -1.
        -11    1    3    3    0    0 -0.17045250935E+01  0.19737626262E+01  0.94849738774E+01  0.98369646952E+01  0.51100000000E-03 0.  1.
        -12    1    3    3    0    0 -0.12584942158E+02  0.26768739883E+02  0.28206984192E+01  0.29713676037E+02  0.00000000000E+00 0.  1.
</event>
<event>
 7    1  0.6841384E-013  0.5930193E+02  0.7816164E-02  0.1266605E+00
        -11   -1    0    0    0    0  0.00000000000E+00  0.00000000000E+00  0.45593999997E+02  0.45594000000E+02  0.51100000000E-03 0.  1.
         11   -1    0    0    0    0 -0.00000000000E+00 -0.00000000000E+00 -0.45593999997E+02  0.45594000000E+02  0.51100000000E-03 0. -1.
    9900012    2    1    2    0    0  0.43632081626E+00 -0.30013812457E+02  0.10756488063E+02  0.59301931734E+02  0.49999977579E+02 0.  0.
        -12    1    1    2    0    0 -0.43632081626E+00  0.30013812457E+02 -0.10756488063E+02  0.31886068266E+02  0.00000000000E+00 0.  1.
         11    1    3    3    0    0  0.62804056256E+00 -0.15097572255E+02  0.12959384359E+02  0.19906701539E+02  0.51100000000E-03 0. -1.
        -11    1    3    3    0    0  0.93286973095E+01 -0.16032677235E+02 -0.14684094257E+02  0.23657851915E+02  0.51100000000E-03 0.  1.
        -12    1    3    3    0    0 -0.95204170558E+01  0.11164370333E+01  0.12481197961E+02  0.15737378280E+02  0.00000000000E+00 0.  1.
</event>
<event>
 7    1  0.6841384E-013  0.5930194E+02  0.7816164E-02  0.1266605E+00
        -11   -1    0    0    0    0  0.00000000000E+00  0.00000000000E+00  0.45593999997E+02  0.45594000000E+02  0.51100000000E-03 0.  1.
         11   -1    0    0    0    0 -0.00000000000E+00 -0.00000000000E+00 -0.45593999997E+02  0.45594000000E+02  0.51100000000E-03 0. -1.
    9900012    2    1    2    0    0  0.11261984925E+02 -0.15657111852E+02 -0.25391802280E+02  0.59301935975E+02  0.49999985313E+02 0.  0.
        -12    1    1    2    0    0 -0.11261984925E+02  0.15657111852E+02  0.25391802280E+02  0.31886064025E+02  0.00000000000E+00 0.  1.
         11    1    3    3    0    0 -0.34950085923E+01 -0.15124891200E+02  0.15703074549E+01  0.15602669151E+02  0.51100000000E-03 0. -1.
        -11    1    3    3    0    0  0.13189778506E+02 -0.11673231266E+02 -0.39012978088E+01  0.18040363358E+02  0.51100000000E-03 0.  1.
         12    1    3    3    0    0  0.15672150120E+01  0.11141010614E+02 -0.23060811926E+02  0.25658903466E+02  0.00000000000E+00 0. -1.
</event>
<event>
 7    1  0.6841384E-013  0.5930195E+02  0.7816164E-02  0.1266605E+00
        -11   -1    0    0    0    0  0.00000000000E+00  0.00000000000E+00  0.45593999997E+02  0.45594000000E+02  0.51100000000E-03 0. -1.
         11   -1    0    0    0    0 -0.00000000000E+00 -0.00000000000E+00 -0.45593999997E+02  0.45594000000E+02  0.51100000000E-03 0.  1.
    9900012    2    1    2    0    0  0.14184570106E+02  0.63805669235E+01  0.27835341852E+02  0.59301954159E+02  0.50000018477E+02 0.  0.
        -12    1    1    2    0    0 -0.14184570106E+02 -0.63805669235E+01 -0.27835341852E+02  0.31886045841E+02  0.00000000000E+00 0.  1.
         11    1    3    3    0    0  0.17224521352E+02  0.44960164110E+01  0.25395593494E+02  0.31013456250E+02  0.51100000000E-03 0. -1.
        -11    1    3    3    0    0  0.12363151886E+02  0.28472753756E+01  0.20430859796E+01  0.12850241328E+02  0.51100000000E-03 0.  1.
         12    1    3    3    0    0 -0.15403103131E+02 -0.96272486314E+00  0.39666237810E+00  0.15438256582E+02  0.00000000000E+00 0. -1.
</event>
<event>
 7    1  0.6841384E-013  0.5930161E+02  0.7816164E-02  0.1266606E+00
        -11   -1    0    0    0    0  0.00000000000E+00  0.00000000000E+00  0.45593999997E+02  0.45594000000E+02  0.51100000000E-03 0. -1.
         11   -1    0    0    0    0 -0.00000000000E+00 -0.00000000000E+00 -0.45593999997E+02  0.45594000000E+02  0.51100000000E-03 0.  1.
    9900012    2    1    2    0    0  0.41180428752E+01  0.92199601278E-01  0.31619217245E+02  0.59301612982E+02  0.49999396249E+02 0.  0.
        -12    1    1    2    0    0 -0.41180428752E+01 -0.92199601278E-01 -0.31619217245E+02  0.31886387018E+02  0.00000000000E+00 0.  1.
         11    1    3    3    0    0  0.12793244233E+02  0.10830734375E+02  0.14083276703E+02  0.21893163044E+02  0.51100000000E-03 0. -1.
        -11    1    3    3    0    0  0.12974893164E+01 -0.17768982409E+02  0.24161876545E+01  0.17979382009E+02  0.51100000000E-03 0.  1.
         12    1    3    3    0    0 -0.99726906747E+01  0.70304476352E+01  0.15119752887E+02  0.19429067929E+02  0.00000000000E+00 0. -1.
</event>
<event>
 7    1  0.6841384E-013  0.5930200E+02  0.7816164E-02  0.1266605E+00
        -11   -1    0    0    0    0  0.00000000000E+00  0.00000000000E+00  0.45593999997E+02  0.45594000000E+02  0.51100000000E-03 0. -1.
         11   -1    0    0    0    0 -0.00000000000E+00 -0.00000000000E+00 -0.45593999997E+02  0.45594000000E+02  0.51100000000E-03 0.  1.
    9900012    2    1    2    0    0  0.29775182828E+02  0.11406873212E+02  0.19667113892E+00  0.59302000745E+02  0.50000103439E+02 0.  0.
        -12    1    1    2    0    0 -0.29775182828E+02 -0.11406873212E+02 -0.19667113892E+00  0.31885999255E+02  0.00000000000E+00 0.  1.
         11    1    3    3    0    0  0.12738515606E+02 -0.27811301327E+01  0.39639534722E+01  0.13627816848E+02  0.51100000000E-03 0. -1.
        -11    1    3    3    0    0 -0.62805116935E+01 -0.82287485617E+01  0.59004703374E+01  0.11915228931E+02  0.51100000000E-03 0.  1.
        -12    1    3    3    0    0  0.23317178916E+02  0.22416751907E+02 -0.96677526707E+01  0.33758954966E+02  0.00000000000E+00 0.  1.
</event>
<event>
 7    1  0.6841384E-013  0.5930195E+02  0.7816164E-02  0.1266605E+00
        -11   -1    0    0    0    0  0.00000000000E+00  0.00000000000E+00  0.45593999997E+02  0.45594000000E+02  0.51100000000E-03 0.  1.
         11   -1    0    0    0    0 -0.00000000000E+00 -0.00000000000E+00 -0.45593999997E+02  0.45594000000E+02  0.51100000000E-03 0. -1.
    9900012    2    1    2    0    0  0.31650320013E+02 -0.27856841517E+01 -0.26865396088E+01  0.59301948376E+02  0.50000007930E+02 0.  0.
        -12    1    1    2    0    0 -0.31650320013E+02  0.27856841517E+01  0.26865396088E+01  0.31886051624E+02  0.00000000000E+00 0.  1.
         11    1    3    3    0    0 -0.38079417164E+01  0.95591397781E+01 -0.16210479396E+01  0.10416591098E+02  0.51100000000E-03 0. -1.
        -11    1    3    3    0    0  0.25207446454E+01 -0.14151710039E+02 -0.59147535469E+01  0.15543788482E+02  0.51100000000E-03 0.  1.
         12    1    3    3    0    0  0.32937517084E+02  0.18068861089E+01  0.48492618776E+01  0.33341568796E+02  0.00000000000E+00 0. -1.
</event>
<event>
 7    1  0.6841384E-013  0.5930195E+02  0.7816164E-02  0.1266605E+00
        -11   -1    0    0    0    0  0.00000000000E+00  0.00000000000E+00  0.45593999997E+02  0.45594000000E+02  0.51100000000E-03 0.  1.
         11   -1    0    0    0    0 -0.00000000000E+00 -0.00000000000E+00 -0.45593999997E+02  0.45594000000E+02  0.51100000000E-03 0. -1.
    9900012    2    1    2    0    0 -0.33763826132E+01 -0.28432181047E+02 -0.14033219897E+02  0.59301950710E+02  0.50000012186E+02 0.  0.
        -12    1    1    2    0    0  0.33763826132E+01  0.28432181047E+02  0.14033219897E+02  0.31886049290E+02  0.00000000000E+00 0.  1.
         11    1    3    3    0    0 -0.59524370025E+01  0.20023446854E+01 -0.64145669735E+01  0.89770574370E+01  0.51100000000E-03 0. -1.
        -11    1    3    3    0    0  0.36783118505E+01  0.48275272140E+00  0.12753939196E+02  0.13282544694E+02  0.51100000000E-03 0.  1.
         12    1    3    3    0    0 -0.11022574612E+01 -0.30917278454E+02 -0.20372592120E+02  0.37042348579E+02  0.00000000000E+00 0. -1.
</event>
<event>
 7    1  0.6841384E-013  0.5930194E+02  0.7816164E-02  0.1266605E+00
        -11   -1    0    0    0    0  0.00000000000E+00  0.00000000000E+00  0.45593999997E+02  0.45594000000E+02  0.51100000000E-03 0.  1.
         11   -1    0    0    0    0 -0.00000000000E+00 -0.00000000000E+00 -0.45593999997E+02  0.45594000000E+02  0.51100000000E-03 0. -1.
    9900012    2    1    2    0    0  0.23576361560E+01 -0.21863891398E+02 -0.23089666763E+02  0.59301938680E+02  0.49999990246E+02 0.  0.
        -12    1    1    2    0    0 -0.23576361560E+01  0.21863891398E+02  0.23089666763E+02  0.31886061320E+02  0.00000000000E+00 0.  1.
         11    1    3    3    0    0 -0.12686325428E+02 -0.19261287968E+02 -0.53459342740E+01  0.23675284171E+02  0.51100000000E-03 0. -1.
        -11    1    3    3    0    0  0.32435986508E+00  0.10891302258E+02 -0.70033407256E+01  0.12952700713E+02  0.51100000000E-03 0.  1.
         12    1    3    3    0    0  0.14719601719E+02 -0.13493905688E+02 -0.10740391763E+02  0.22673953796E+02  0.00000000000E+00 0. -1.
</event>
<event>
 7    1  0.6841384E-013  0.5930196E+02  0.7816164E-02  0.1266605E+00
        -11   -1    0    0    0    0  0.00000000000E+00  0.00000000000E+00  0.45593999997E+02  0.45594000000E+02  0.51100000000E-03 0. -1.
         11   -1    0    0    0    0 -0.00000000000E+00 -0.00000000000E+00 -0.45593999997E+02  0.45594000000E+02  0.51100000000E-03 0.  1.
    9900012    2    1    2    0    0 -0.23773473148E+02 -0.17515471122E+02 -0.12031212070E+02  0.59301955749E+02  0.50000021376E+02 0.  0.
        -12    1    1    2    0    0  0.23773473148E+02  0.17515471122E+02  0.12031212070E+02  0.31886044251E+02  0.00000000000E+00 0.  1.
         11    1    3    3    0    0 -0.10609375705E+02 -0.13829705520E+02  0.48913565091E+00  0.17437283663E+02  0.51100000000E-03 0. -1.
        -11    1    3    3    0    0 -0.14599699913E+02 -0.14357918968E+02 -0.20102246874E+02  0.28694971760E+02  0.51100000000E-03 0.  1.
        -12    1    3    3    0    0  0.14356024705E+01  0.10672153366E+02  0.75818991525E+01  0.13169700326E+02  0.00000000000E+00 0.  1.
</event>
<event>
 7    1  0.6841384E-013  0.5930194E+02  0.7816164E-02  0.1266605E+00
        -11   -1    0    0    0    0  0.00000000000E+00  0.00000000000E+00  0.45593999997E+02  0.45594000000E+02  0.51100000000E-03 0.  1.
         11   -1    0    0    0    0 -0.00000000000E+00 -0.00000000000E+00 -0.45593999997E+02  0.45594000000E+02  0.51100000000E-03 0. -1.
    9900012    2    1    2    0    0 -0.28289266917E+02  0.10116372743E+02 -0.10681638984E+02  0.59301936719E+02  0.49999986670E+02 0.  0.
        -12    1    1    2    0    0  0.28289266917E+02 -0.10116372743E+02  0.10681638984E+02  0.31886063281E+02  0.00000000000E+00 0.  1.
         11    1    3    3    0    0 -0.23830014168E+02 -0.76804187207E+01 -0.86351606771E+00  0.25052027209E+02  0.51100000000E-03 0. -1.
        -11    1    3    3    0    0 -0.90904353682E+01  0.82051517691E+01  0.71762184075E+01  0.14193612705E+02  0.51100000000E-03 0.  1.
        -12    1    3    3    0    0  0.46311826196E+01  0.95916396950E+01 -0.16994341324E+02  0.20056296805E+02  0.00000000000E+00 0.  1.
</event>
<event>
 7    1  0.6841384E-013  0.5930195E+02  0.7816164E-02  0.1266605E+00
        -11   -1    0    0    0    0  0.00000000000E+00  0.00000000000E+00  0.45593999997E+02  0.45594000000E+02  0.51100000000E-03 0.  1.
         11   -1    0    0    0    0 -0.00000000000E+00 -0.00000000000E+00 -0.45593999997E+02  0.45594000000E+02  0.51100000000E-03 0. -1.
    9900012    2    1    2    0    0  0.25156118205E+02  0.14842133678E+01 -0.19536810984E+02  0.59301950450E+02  0.50000011713E+02 0.  0.
        -12    1    1    2    0    0 -0.25156118205E+02 -0.14842133678E+01  0.19536810984E+02  0.31886049550E+02  0.00000000000E+00 0.  1.
         11    1    3    3    0    0  0.21732066940E+02 -0.13322919097E+01 -0.11296490969E+02  0.24528930749E+02  0.51100000000E-03 0. -1.
        -11    1    3    3    0    0  0.18080807686E+02 -0.97065737277E+00 -0.13991101224E+01  0.18160817484E+02  0.51100000000E-03 0.  1.
        -12    1    3    3    0    0 -0.14656756420E+02  0.37871626503E+01 -0.68412098925E+01  0.16612202217E+02  0.00000000000E+00 0.  1.
</event>
<event>
 7    1  0.6841384E-013  0.5930195E+02  0.7816164E-02  0.1266605E+00
        -11   -1    0    0    0    0  0.00000000000E+00  0.00000000000E+00  0.45593999997E+02  0.45594000000E+02  0.51100000000E-03 0.  1.
         11   -1    0    0    0    0 -0.00000000000E+00 -0.00000000000E+00 -0.45593999997E+02  0.45594000000E+02  0.51100000000E-03 0. -1.
    9900012    2    1    2    0    0  0.13541967033E+02 -0.23535552719E+02 -0.16715652046E+02  0.59301950758E+02  0.50000012275E+02 0.  0.
        -12    1    1    2    0    0 -0.13541967033E+02  0.23535552719E+02  0.16715652046E+02  0.31886049242E+02  0.00000000000E+00 0.  1.
         11    1    3    3    0    0 -0.92610982405E+01 -0.42900825332E+01 -0.19519824585E+01  0.10391486157E+02  0.51100000000E-03 0. -1.
        -11    1    3    3    0    0  0.87304536946E+01 -0.93530413118E+01  0.11706544991E+02  0.17341954889E+02  0.51100000000E-03 0.  1.
         12    1    3    3    0    0  0.14072611578E+02 -0.98924288743E+01 -0.26470214578E+02  0.31568509713E+02  0.00000000000E+00 0. -1.
</event>
<event>
 7    1  0.6841384E-013  0.5930194E+02  0.7816164E-02  0.1266605E+00
        -11   -1    0    0    0    0  0.00000000000E+00  0.00000000000E+00  0.45593999997E+02  0.45594000000E+02  0.51100000000E-03 0.  1.
         11   -1    0    0    0    0 -0.00000000000E+00 -0.00000000000E+00 -0.45593999997E+02  0.45594000000E+02  0.51100000000E-03 0. -1.
    9900012    2    1    2    0    0  0.34506108365E+01 -0.30732866717E+02  0.77656136169E+01  0.59301944009E+02  0.49999999967E+02 0.  0.
        -12    1    1    2    0    0 -0.34506108365E+01  0.30732866717E+02 -0.77656136169E+01  0.31886055991E+02  0.00000000000E+00 0.  1.
         11    1    3    3    0    0 -0.62408680551E+00  0.16777669916E+01  0.31418718744E+01  0.36160400378E+01  0.51100000000E-03 0. -1.
        -11    1    3    3    0    0  0.27595249947E+01  0.10724381509E+02 -0.38170377847E+01  0.11713117205E+02  0.51100000000E-03 0.  1.
         12    1    3    3    0    0  0.13151726472E+01 -0.43135015218E+02  0.84407795272E+01  0.43972786766E+02  0.00000000000E+00 0. -1.
</event>
<event>
 7    1  0.6841384E-013  0.5930194E+02  0.7816164E-02  0.1266605E+00
        -11   -1    0    0    0    0  0.00000000000E+00  0.00000000000E+00  0.45593999997E+02  0.45594000000E+02  0.51100000000E-03 0.  1.
         11   -1    0    0    0    0 -0.00000000000E+00 -0.00000000000E+00 -0.45593999997E+02  0.45594000000E+02  0.51100000000E-03 0. -1.
    9900012    2    1    2    0    0  0.13420436282E+02 -0.26982850706E+02 -0.10418177083E+02  0.59301941041E+02  0.49999994552E+02 0.  0.
        -12    1    1    2    0    0 -0.13420436282E+02  0.26982850706E+02  0.10418177083E+02  0.31886058959E+02  0.00000000000E+00 0.  1.
         11    1    3    3    0    0 -0.17554907335E+01 -0.73974186411E+01 -0.33777460375E-01  0.76029396582E+01  0.51100000000E-03 0. -1.
        -11    1    3    3    0    0  0.11937984775E+01  0.14080984561E+02 -0.40296517194E+01  0.14694807731E+02  0.51100000000E-03 0.  1.
         12    1    3    3    0    0  0.13982128538E+02 -0.33666416626E+02 -0.63547479030E+01  0.37004193652E+02  0.00000000000E+00 0. -1.
</event>
<event>
 7    1  0.6841384E-013  0.5930194E+02  0.7816164E-02  0.1266605E+00
        -11   -1    0    0    0    0  0.00000000000E+00  0.00000000000E+00  0.45593999997E+02  0.45594000000E+02  0.51100000000E-03 0. -1.
         11   -1    0    0    0    0 -0.00000000000E+00 -0.00000000000E+00 -0.45593999997E+02  0.45594000000E+02  0.51100000000E-03 0.  1.
    9900012    2    1    2    0    0  0.19648714487E+01  0.29904459323E+02  0.10889596433E+02  0.59301941641E+02  0.49999995648E+02 0.  0.
        -12    1    1    2    0    0 -0.19648714487E+01 -0.29904459323E+02 -0.10889596433E+02  0.31886058359E+02  0.00000000000E+00 0.  1.
         11    1    3    3    0    0  0.13033424299E+02  0.28816757543E+02  0.33343564316E+01  0.31802414960E+02  0.51100000000E-03 0. -1.
        -11    1    3    3    0    0  0.70259009640E+01  0.40141568997E+01  0.18236701624E+01  0.82947280301E+01  0.51100000000E-03 0.  1.
        -12    1    3    3    0    0 -0.18094453814E+02 -0.29264551197E+01  0.57315698386E+01  0.19204798651E+02  0.00000000000E+00 0.  1.
</event>
<event>
 7    1  0.6841384E-013  0.5930195E+02  0.7816164E-02  0.1266605E+00
        -11   -1    0    0    0    0  0.00000000000E+00  0.00000000000E+00  0.45593999997E+02  0.45594000000E+02  0.51100000000E-03 0.  1.
         11   -1    0    0    0    0 -0.00000000000E+00 -0.00000000000E+00 -0.45593999997E+02  0.45594000000E+02  0.51100000000E-03 0. -1.
    9900012    2    1    2    0    0  0.44010766551E+01  0.27077996145E+02 -0.16252164255E+02  0.59301949853E+02  0.50000010625E+02 0.  0.
        -12    1    1    2    0    0 -0.44010766551E+01 -0.27077996145E+02  0.16252164255E+02  0.31886050147E+02  0.00000000000E+00 0.  1.
         11    1    3    3    0    0 -0.19031253503E+01 -0.60277164434E+01  0.48000526949E+01  0.79369866925E+01  0.51100000000E-03 0. -1.
        -11    1    3    3    0    0 -0.78487293237E+01  0.12014636971E+02  0.47907816978E+01  0.15129627989E+02  0.51100000000E-03 0.  1.
         12    1    3    3    0    0  0.14152931329E+02  0.21091075617E+02 -0.25842998648E+02  0.36235335172E+02  0.00000000000E+00 0. -1.
</event>
<event>
 7    1  0.6841384E-013  0.5930194E+02  0.7816164E-02  0.1266605E+00
        -11   -1    0    0    0    0  0.00000000000E+00  0.00000000000E+00  0.45593999997E+02  0.45594000000E+02  0.51100000000E-03 0.  1.
         11   -1    0    0    0    0 -0.00000000000E+00 -0.00000000000E+00 -0.45593999997E+02  0.45594000000E+02  0.51100000000E-03 0. -1.
    9900012    2    1    2    0    0 -0.23987163379E+02 -0.79992382055E+01 -0.19425481191E+02  0.59301935045E+02  0.49999983617E+02 0.  0.
        -12    1    1    2    0    0  0.23987163379E+02  0.79992382055E+01  0.19425481191E+02  0.31886064955E+02  0.00000000000E+00 0.  1.
         11    1    3    3    0    0 -0.64925999323E+01 -0.45262319533E+01 -0.18351646315E+02  0.19985583612E+02  0.51100000000E-03 0. -1.
        -11    1    3    3    0    0  0.69916769701E+01 -0.10702646417E+02 -0.45072931068E+01  0.13555289691E+02  0.51100000000E-03 0.  1.
        -12    1    3    3    0    0 -0.24486240417E+02  0.72296401650E+01  0.34334582311E+01  0.25761061742E+02  0.00000000000E+00 0.  1.
</event>
<event>
 7    1  0.6841384E-013  0.5930198E+02  0.7816164E-02  0.1266605E+00
        -11   -1    0    0    0    0  0.00000000000E+00  0.00000000000E+00  0.45593999997E+02  0.45594000000E+02  0.51100000000E-03 0. -1.
         11   -1    0    0    0    0 -0.00000000000E+00 -0.00000000000E+00 -0.45593999997E+02  0.45594000000E+02  0.51100000000E-03 0.  1.
    9900012    2    1    2    0    0 -0.47409363340E+01  0.77798182440E+01  0.30556765988E+02  0.59301984306E+02  0.50000073458E+02 0.  0.
        -12    1    1    2    0    0  0.47409363340E+01 -0.77798182440E+01 -0.30556765988E+02  0.31886015694E+02  0.00000000000E+00 0.  1.
         11    1    3    3    0    0  0.13836683457E-01  0.13154950692E+02  0.38166365400E+01  0.13697431653E+02  0.51100000000E-03 0. -1.
        -11    1    3    3    0    0  0.18600188112E+01  0.17894869891E+01 -0.85816887086E+01  0.89614348748E+01  0.51100000000E-03 0.  1.
         12    1    3    3    0    0 -0.66147918286E+01 -0.71646194370E+01  0.35321818156E+02  0.36643117778E+02  0.00000000000E+00 0. -1.
</event>
<event>
 7    1  0.6841384E-013  0.5930192E+02  0.7816164E-02  0.1266605E+00
        -11   -1    0    0    0    0  0.00000000000E+00  0.00000000000E+00  0.45593999997E+02  0.45594000000E+02  0.51100000000E-03 0.  1.
         11   -1    0    0    0    0 -0.00000000000E+00 -0.00000000000E+00 -0.45593999997E+02  0.45594000000E+02  0.51100000000E-03 0. -1.
    9900012    2    1    2    0    0  0.25752966964E+02 -0.10440136170E+02  0.15636827924E+02  0.59301919366E+02  0.49999955023E+02 0.  0.
        -12    1    1    2    0    0 -0.25752966964E+02  0.10440136170E+02 -0.15636827924E+02  0.31886080634E+02  0.00000000000E+00 0.  1.
         11    1    3    3    0    0  0.86739704291E+01  0.19465925280E+01  0.75425207539E+01  0.11658327713E+02  0.51100000000E-03 0. -1.
        -11    1    3    3    0    0  0.25847684660E+02 -0.10072060050E+02  0.18876850231E+02  0.33554204965E+02  0.51100000000E-03 0.  1.
        -12    1    3    3    0    0 -0.87686881254E+01 -0.23146686481E+01 -0.10782543061E+02  0.14089386688E+02  0.00000000000E+00 0.  1.
</event>
<event>
 7    1  0.6841384E-013  0.5930194E+02  0.7816164E-02  0.1266605E+00
        -11   -1    0    0    0    0  0.00000000000E+00  0.00000000000E+00  0.45593999997E+02  0.45594000000E+02  0.51100000000E-03 0.  1.
         11   -1    0    0    0    0 -0.00000000000E+00 -0.00000000000E+00 -0.45593999997E+02  0.45594000000E+02  0.51100000000E-03 0. -1.
    9900012    2    1    2    0    0  0.20372273083E+02 -0.12055406307E+02 -0.21362545388E+02  0.59301942275E+02  0.49999996804E+02 0.  0.
        -12    1    1    2    0    0 -0.20372273083E+02  0.12055406307E+02  0.21362545388E+02  0.31886057725E+02  0.00000000000E+00 0.  1.
         11    1    3    3    0    0  0.31096531397E+02 -0.14408741538E+02 -0.44973987801E+01  0.34566352045E+02  0.51100000000E-03 0. -1.
        -11    1    3    3    0    0  0.16745212271E+01 -0.30268815660E+01 -0.47531901547E+00  0.34916989822E+01  0.51100000000E-03 0.  1.
        -12    1    3    3    0    0 -0.12398779541E+02  0.53802167977E+01 -0.16389827592E+02  0.21243891249E+02  0.00000000000E+00 0.  1.
</event>
<event>
 7    1  0.6841384E-013  0.5930198E+02  0.7816164E-02  0.1266605E+00
        -11   -1    0    0    0    0  0.00000000000E+00  0.00000000000E+00  0.45593999997E+02  0.45594000000E+02  0.51100000000E-03 0. -1.
         11   -1    0    0    0    0 -0.00000000000E+00 -0.00000000000E+00 -0.45593999997E+02  0.45594000000E+02  0.51100000000E-03 0.  1.
    9900012    2    1    2    0    0 -0.23847277216E+02  0.11966601471E+01  0.21132761426E+02  0.59301980625E+02  0.50000066744E+02 0.  0.
        -12    1    1    2    0    0  0.23847277216E+02 -0.11966601471E+01 -0.21132761426E+02  0.31886019375E+02  0.00000000000E+00 0.  1.
         11    1    3    3    0    0  0.37839516317E+01  0.44814126644E+01  0.32320419334E+00  0.58741646752E+01  0.51100000000E-03 0. -1.
        -11    1    3    3    0    0 -0.25048961724E+00 -0.18055495525E+02  0.65999219633E+01  0.19225572394E+02  0.51100000000E-03 0.  1.
        -12    1    3    3    0    0 -0.27380739230E+02  0.14770743007E+02  0.14209635269E+02  0.34202243556E+02  0.00000000000E+00 0.  1.
</event>
<event>
 7    1  0.6841384E-013  0.5930192E+02  0.7816164E-02  0.1266605E+00
        -11   -1    0    0    0    0  0.00000000000E+00  0.00000000000E+00  0.45593999997E+02  0.45594000000E+02  0.51100000000E-03 0. -1.
         11   -1    0    0    0    0 -0.00000000000E+00 -0.00000000000E+00 -0.45593999997E+02  0.45594000000E+02  0.51100000000E-03 0.  1.
    9900012    2    1    2    0    0 -0.89692902477E+01 -0.30235784809E+02  0.46979866823E+01  0.59301922640E+02  0.49999960994E+02 0.  0.
        -12    1    1    2    0    0  0.89692902477E+01  0.30235784809E+02 -0.46979866823E+01  0.31886077360E+02  0.00000000000E+00 0.  1.
         11    1    3    3    0    0  0.69687293861E+00  0.78479797198E+01  0.56287969126E+00  0.78989398898E+01  0.51100000000E-03 0. -1.
        -11    1    3    3    0    0 -0.34104822821E+01  0.35089758030E+01 -0.63872656289E+01  0.80462079924E+01  0.51100000000E-03 0.  1.
        -12    1    3    3    0    0 -0.62556809042E+01 -0.41592740331E+02  0.10522372620E+02  0.43356774758E+02  0.00000000000E+00 0.  1.
</event>
<event>
 7    1  0.6841384E-013  0.5930194E+02  0.7816164E-02  0.1266605E+00
        -11   -1    0    0    0    0  0.00000000000E+00  0.00000000000E+00  0.45593999997E+02  0.45594000000E+02  0.51100000000E-03 0.  1.
         11   -1    0    0    0    0 -0.00000000000E+00 -0.00000000000E+00 -0.45593999997E+02  0.45594000000E+02  0.51100000000E-03 0. -1.
    9900012    2    1    2    0    0  0.23606883293E+02  0.21427136490E+02 -0.56029920868E+00  0.59301936395E+02  0.49999986080E+02 0.  0.
        -12    1    1    2    0    0 -0.23606883293E+02 -0.21427136490E+02  0.56029920868E+00  0.31886063605E+02  0.00000000000E+00 0.  1.
         11    1    3    3    0    0  0.34661580370E+02  0.22546606465E+02 -0.26670808868E+01  0.41435346475E+02  0.51100000000E-03 0. -1.
        -11    1    3    3    0    0  0.10443881989E+01 -0.38974147448E+01 -0.23589396412E+01  0.46738832779E+01  0.51100000000E-03 0.  1.
        -12    1    3    3    0    0 -0.12099085275E+02  0.27779447698E+01  0.44657213193E+01  0.13192706642E+02  0.00000000000E+00 0.  1.
</event>
<event>
 7    1  0.6841384E-013  0.5930198E+02  0.7816164E-02  0.1266605E+00
        -11   -1    0    0    0    0  0.00000000000E+00  0.00000000000E+00  0.45593999997E+02  0.45594000000E+02  0.51100000000E-03 0.  1.
         11   -1    0    0    0    0 -0.00000000000E+00 -0.00000000000E+00 -0.45593999997E+02  0.45594000000E+02  0.51100000000E-03 0. -1.
    9900012    2    1    2    0    0  0.15546551895E+02 -0.15957326596E+02 -0.22811993030E+02  0.59301975257E+02  0.50000056955E+02 0.  0.
        -12    1    1    2    0    0 -0.15546551895E+02  0.15957326596E+02  0.22811993030E+02  0.31886024743E+02  0.00000000000E+00 0.  1.
         11    1    3    3    0    0 -0.10403171112E+02 -0.35035713660E+01 -0.10519084779E+00  0.10977797907E+02  0.51100000000E-03 0. -1.
        -11    1    3    3    0    0 -0.68337036696E+01 -0.44365214958E+01 -0.82927467391E+01  0.11625483971E+02  0.51100000000E-03 0.  1.
         12    1    3    3    0    0  0.32783426677E+02 -0.80172337337E+01 -0.14414055443E+02  0.36698693379E+02  0.00000000000E+00 0. -1.
</event>
<event>
 7    1  0.6841384E-013  0.5930195E+02  0.7816164E-02  0.1266605E+00
        -11   -1    0    0    0    0  0.00000000000E+00  0.00000000000E+00  0.45593999997E+02  0.45594000000E+02  0.51100000000E-03 0. -1.
         11   -1    0    0    0    0 -0.00000000000E+00 -0.00000000000E+00 -0.45593999997E+02  0.45594000000E+02  0.51100000000E-03 0.  1.
    9900012    2    1    2    0    0 -0.26003908254E+02  0.38980971592E+01  0.18036672393E+02  0.59301953570E+02  0.50000017402E+02 0.  0.
        -12    1    1    2    0    0  0.26003908254E+02 -0.38980971592E+01 -0.18036672393E+02  0.31886046430E+02  0.00000000000E+00 0.  1.
         11    1    3    3    0    0  0.66196596724E+01  0.89533125750E+01 -0.81072714779E+01  0.13773509042E+02  0.51100000000E-03 0. -1.
        -11    1    3    3    0    0 -0.97098591422E+01  0.15753500604E+01 -0.39514318327E+00  0.98447565115E+01  0.51100000000E-03 0.  1.
         12    1    3    3    0    0 -0.22913708784E+02 -0.66305654762E+01  0.26539087054E+02  0.35683688016E+02  0.00000000000E+00 0. -1.
</event>
<event>
 7    1  0.6841384E-013  0.5930193E+02  0.7816164E-02  0.1266605E+00
        -11   -1    0    0    0    0  0.00000000000E+00  0.00000000000E+00  0.45593999997E+02  0.45594000000E+02  0.51100000000E-03 0.  1.
         11   -1    0    0    0    0 -0.00000000000E+00 -0.00000000000E+00 -0.45593999997E+02  0.45594000000E+02  0.51100000000E-03 0. -1.
    9900012    2    1    2    0    0  0.15466054707E+02  0.21156895951E+02 -0.18163373828E+02  0.59301933399E+02  0.49999980616E+02 0.  0.
        -12    1    1    2    0    0 -0.15466054707E+02 -0.21156895951E+02  0.18163373828E+02  0.31886066601E+02  0.00000000000E+00 0.  1.
         11    1    3    3    0    0 -0.38293300823E+01  0.20175795220E+01 -0.29750182879E+01  0.52521548036E+01  0.51100000000E-03 0. -1.
        -11    1    3    3    0    0 -0.14200879259E+02  0.32861925662E+01 -0.66451510235E+01  0.16019427758E+02  0.51100000000E-03 0.  1.
         12    1    3    3    0    0  0.33496264048E+02  0.15853123862E+02 -0.85432045167E+01  0.38030350837E+02  0.00000000000E+00 0. -1.
</event>
<event>
 7    1  0.6841384E-013  0.5930202E+02  0.7816164E-02  0.1266605E+00
        -11   -1    0    0    0    0  0.00000000000E+00  0.00000000000E+00  0.45593999997E+02  0.45594000000E+02  0.51100000000E-03 0.  1.
         11   -1    0    0    0    0 -0.00000000000E+00 -0.00000000000E+00 -0.45593999997E+02  0.45594000000E+02  0.51100000000E-03 0. -1.
    9900012    2    1    2    0    0  0.13511345104E+02  0.23801766430E+02 -0.16359565014E+02  0.59302017200E+02  0.50000133448E+02 0.  0.
        -12    1    1    2    0    0 -0.13511345104E+02 -0.23801766430E+02  0.16359565014E+02  0.31885982800E+02  0.00000000000E+00 0.  1.
         11    1    3    3    0    0 -0.48536083476E+01  0.28501851483E+02 -0.13644410891E+02  0.31970032856E+02  0.51100000000E-03 0. -1.
        -11    1    3    3    0    0  0.33891254843E+01  0.31009229420E+01 -0.83505058595E+01  0.95306265802E+01  0.51100000000E-03 0.  1.
        -12    1    3    3    0    0  0.14975827967E+02 -0.78010079954E+01  0.56353517368E+01  0.17801357764E+02  0.00000000000E+00 0.  1.
</event>
<event>
 7    1  0.6841384E-013  0.5930194E+02  0.7816164E-02  0.1266605E+00
        -11   -1    0    0    0    0  0.00000000000E+00  0.00000000000E+00  0.45593999997E+02  0.45594000000E+02  0.51100000000E-03 0. -1.
         11   -1    0    0    0    0 -0.00000000000E+00 -0.00000000000E+00 -0.45593999997E+02  0.45594000000E+02  0.51100000000E-03 0.  1.
    9900012    2    1    2    0    0  0.13321715050E+02  0.41439665050E+01  0.28671942905E+02  0.59301939406E+02  0.49999991571E+02 0.  0.
        -12    1    1    2    0    0 -0.13321715050E+02 -0.41439665050E+01 -0.28671942905E+02  0.31886060594E+02  0.00000000000E+00 0.  1.
         11    1    3    3    0    0  0.18525682554E+01 -0.56260392225E+01  0.21518828460E+02  0.22319146601E+02  0.51100000000E-03 0. -1.
        -11    1    3    3    0    0 -0.10379017793E+02 -0.17092516077E+01  0.63552734615E+01  0.12289631908E+02  0.51100000000E-03 0.  1.
         12    1    3    3    0    0  0.21848164588E+02  0.11479257335E+02  0.79784098344E+00  0.24693160896E+02  0.00000000000E+00 0. -1.
</event>
<event>
 7    1  0.6841384E-013  0.5930195E+02  0.7816164E-02  0.1266605E+00
        -11   -1    0    0    0    0  0.00000000000E+00  0.00000000000E+00  0.45593999997E+02  0.45594000000E+02  0.51100000000E-03 0. -1.
         11   -1    0    0    0    0 -0.00000000000E+00 -0.00000000000E+00 -0.45593999997E+02  0.45594000000E+02  0.51100000000E-03 0.  1.
    9900012    2    1    2    0    0 -0.97532165764E+01 -0.21065306462E+02  0.21859732006E+02  0.59301948923E+02  0.50000008927E+02 0.  0.
        -12    1    1    2    0    0  0.97532165764E+01  0.21065306462E+02 -0.21859732006E+02  0.31886051077E+02  0.00000000000E+00 0.  1.
         11    1    3    3    0    0 -0.11612014076E+02 -0.27438631003E+02  0.15022870287E+02  0.33367708554E+02  0.51100000000E-03 0. -1.
        -11    1    3    3    0    0 -0.68488840635E+01 -0.64271926983E+01  0.39339575976E+01  0.10182928927E+02  0.51100000000E-03 0.  1.
        -12    1    3    3    0    0  0.87076815634E+01  0.12800517239E+02  0.29029041208E+01  0.15751311441E+02  0.00000000000E+00 0.  1.
</event>
<event>
 7    1  0.6841384E-013  0.5930187E+02  0.7816164E-02  0.1266605E+00
        -11   -1    0    0    0    0  0.00000000000E+00  0.00000000000E+00  0.45593999997E+02  0.45594000000E+02  0.51100000000E-03 0. -1.
         11   -1    0    0    0    0 -0.00000000000E+00 -0.00000000000E+00 -0.45593999997E+02  0.45594000000E+02  0.51100000000E-03 0.  1.
    9900012    2    1    2    0    0 -0.18781339891E+02  0.31470130925E+01  0.25575038963E+02  0.59301873903E+02  0.49999872109E+02 0.  0.
        -12    1    1    2    0    0  0.18781339891E+02 -0.31470130925E+01 -0.25575038963E+02  0.31886126097E+02  0.00000000000E+00 0.  1.
         11    1    3    3    0    0  0.20067806755E+01  0.11588073082E+02  0.18890091620E+02  0.22251880103E+02  0.51100000000E-03 0. -1.
        -11    1    3    3    0    0  0.42671106853E+01  0.59415863404E+01  0.30761971482E+01  0.79355951886E+01  0.51100000000E-03 0.  1.
         12    1    3    3    0    0 -0.25055231252E+02 -0.14382646330E+02  0.36087501950E+01  0.29114398612E+02  0.00000000000E+00 0. -1.
</event>
<event>
 7    1  0.6841384E-013  0.5930198E+02  0.7816164E-02  0.1266605E+00
        -11   -1    0    0    0    0  0.00000000000E+00  0.00000000000E+00  0.45593999997E+02  0.45594000000E+02  0.51100000000E-03 0.  1.
         11   -1    0    0    0    0 -0.00000000000E+00 -0.00000000000E+00 -0.45593999997E+02  0.45594000000E+02  0.51100000000E-03 0. -1.
    9900012    2    1    2    0    0  0.20996743908E+02 -0.47140433820E+01 -0.23529400231E+02  0.59301982140E+02  0.50000069508E+02 0.  0.
        -12    1    1    2    0    0 -0.20996743908E+02  0.47140433820E+01  0.23529400231E+02  0.31886017860E+02  0.00000000000E+00 0.  1.
         11    1    3    3    0    0  0.25418507041E+02 -0.76325727741E+01  0.49736832535E+01  0.27001744253E+02  0.51100000000E-03 0. -1.
        -11    1    3    3    0    0 -0.24054999155E+01 -0.33850728193E+01 -0.13718342695E+01  0.43734514242E+01  0.51100000000E-03 0.  1.
         12    1    3    3    0    0 -0.20162632173E+01  0.63036022115E+01 -0.27131249215E+02  0.27926786463E+02  0.00000000000E+00 0. -1.
</event>
<event>
 7    1  0.6841384E-013  0.5930190E+02  0.7816164E-02  0.1266605E+00
        -11   -1    0    0    0    0  0.00000000000E+00  0.00000000000E+00  0.45593999997E+02  0.45594000000E+02  0.51100000000E-03 0.  1.
         11   -1    0    0    0    0 -0.00000000000E+00 -0.00000000000E+00 -0.45593999997E+02  0.45594000000E+02  0.51100000000E-03 0. -1.
    9900012    2    1    2    0    0 -0.16566488833E+02 -0.17681421892E+02 -0.20727810288E+02  0.59301900337E+02  0.49999920318E+02 0.  0.
        -12    1    1    2    0    0  0.16566488833E+02  0.17681421892E+02  0.20727810288E+02  0.31886099663E+02  0.00000000000E+00 0.  1.
         11    1    3    3    0    0 -0.94071381156E-01  0.78588518778E+01 -0.79440877148E+01  0.11174924257E+02  0.51100000000E-03 0. -1.
        -11    1    3    3    0    0 -0.25878208789E+02 -0.90537633970E+01 -0.74046659521E+01  0.28398616162E+02  0.51100000000E-03 0.  1.
        -12    1    3    3    0    0  0.94057913365E+01 -0.16486510373E+02 -0.53790566212E+01  0.19728359918E+02  0.00000000000E+00 0.  1.
</event>
<event>
 7    1  0.6841384E-013  0.5930195E+02  0.7816164E-02  0.1266605E+00
        -11   -1    0    0    0    0  0.00000000000E+00  0.00000000000E+00  0.45593999997E+02  0.45594000000E+02  0.51100000000E-03 0.  1.
         11   -1    0    0    0    0 -0.00000000000E+00 -0.00000000000E+00 -0.45593999997E+02  0.45594000000E+02  0.51100000000E-03 0. -1.
    9900012    2    1    2    0    0  0.15600864336E+02 -0.27262210866E+02 -0.54868266909E+01  0.59301946991E+02  0.50000005404E+02 0.  0.
        -12    1    1    2    0    0 -0.15600864336E+02  0.27262210866E+02  0.54868266909E+01  0.31886053009E+02  0.00000000000E+00 0.  1.
         11    1    3    3    0    0 -0.85446975505E+00 -0.20468961608E+02 -0.14173099921E+01  0.20535756031E+02  0.51100000000E-03 0. -1.
        -11    1    3    3    0    0 -0.37393734970E+01 -0.17653204199E+01 -0.14789190584E+02  0.15356413277E+02  0.51100000000E-03 0.  1.
        -12    1    3    3    0    0  0.20194707588E+02 -0.50279288383E+01  0.10719673885E+02  0.23409777683E+02  0.00000000000E+00 0.  1.
</event>
<event>
 7    1  0.6841384E-013  0.5930196E+02  0.7816164E-02  0.1266605E+00
        -11   -1    0    0    0    0  0.00000000000E+00  0.00000000000E+00  0.45593999997E+02  0.45594000000E+02  0.51100000000E-03 0.  1.
         11   -1    0    0    0    0 -0.00000000000E+00 -0.00000000000E+00 -0.45593999997E+02  0.45594000000E+02  0.51100000000E-03 0. -1.
    9900012    2    1    2    0    0 -0.28962669831E+01 -0.28425383065E+01 -0.31626746999E+02  0.59301960544E+02  0.50000030122E+02 0.  0.
        -12    1    1    2    0    0  0.28962669831E+01  0.28425383065E+01  0.31626746999E+02  0.31886039456E+02  0.00000000000E+00 0.  1.
         11    1    3    3    0    0  0.86713216682E+01  0.26317999157E+01 -0.22786154279E+02  0.24521970095E+02  0.51100000000E-03 0. -1.
        -11    1    3    3    0    0  0.44191871121E+01  0.33088832479E+01  0.81554638840E+01  0.98483254671E+01  0.51100000000E-03 0.  1.
         12    1    3    3    0    0 -0.15986775763E+02 -0.87832214701E+01 -0.16996056604E+02  0.24931664982E+02  0.00000000000E+00 0. -1.
</event>
<event>
 7    1  0.6841384E-013  0.5930195E+02  0.7816164E-02  0.1266605E+00
        -11   -1    0    0    0    0  0.00000000000E+00  0.00000000000E+00  0.45593999997E+02  0.45594000000E+02  0.51100000000E-03 0. -1.
         11   -1    0    0    0    0 -0.00000000000E+00 -0.00000000000E+00 -0.45593999997E+02  0.45594000000E+02  0.51100000000E-03 0.  1.
    9900012    2    1    2    0    0  0.27831952392E+02  0.15064980000E+02  0.38921931177E+01  0.59301947192E+02  0.50000005772E+02 0.  0.
        -12    1    1    2    0    0 -0.27831952392E+02 -0.15064980000E+02 -0.38921931177E+01  0.31886052808E+02  0.00000000000E+00 0.  1.
         11    1    3    3    0    0  0.40083584372E+01  0.54802329547E+01 -0.52302439656E+00  0.68098050911E+01  0.51100000000E-03 0. -1.
        -11    1    3    3    0    0  0.10423852706E+02  0.21341909424E+02 -0.13415763107E+02  0.27278498916E+02  0.51100000000E-03 0.  1.
         12    1    3    3    0    0  0.13399741249E+02 -0.11757162379E+02  0.17830980622E+02  0.25213643185E+02  0.00000000000E+00 0. -1.
</event>
<event>
 7    1  0.6841384E-013  0.5930208E+02  0.7816164E-02  0.1266604E+00
        -11   -1    0    0    0    0  0.00000000000E+00  0.00000000000E+00  0.45593999997E+02  0.45594000000E+02  0.51100000000E-03 0.  1.
         11   -1    0    0    0    0 -0.00000000000E+00 -0.00000000000E+00 -0.45593999997E+02  0.45594000000E+02  0.51100000000E-03 0. -1.
    9900012    2    1    2    0    0  0.92993001591E+01 -0.29869827201E+02  0.61667264094E+01  0.59302077164E+02  0.50000242809E+02 0.  0.
        -12    1    1    2    0    0 -0.92993001591E+01  0.29869827201E+02 -0.61667264094E+01  0.31885922836E+02  0.00000000000E+00 0.  1.
         11    1    3    3    0    0 -0.43968117906E+01 -0.10145646966E+01 -0.80494640754E+01  0.92279557653E+01  0.51100000000E-03 0. -1.
        -11    1    3    3    0    0 -0.88908346903E+01  0.22207542841E+01  0.15778230467E+00  0.91653470527E+01  0.51100000000E-03 0.  1.
        -12    1    3    3    0    0  0.22586946640E+02 -0.31076016789E+02  0.14058408180E+02  0.40908774346E+02  0.00000000000E+00 0.  1.
</event>
<event>
 7    1  0.6841384E-013  0.5930193E+02  0.7816164E-02  0.1266605E+00
        -11   -1    0    0    0    0  0.00000000000E+00  0.00000000000E+00  0.45593999997E+02  0.45594000000E+02  0.51100000000E-03 0.  1.
         11   -1    0    0    0    0 -0.00000000000E+00 -0.00000000000E+00 -0.45593999997E+02  0.45594000000E+02  0.51100000000E-03 0. -1.
    9900012    2    1    2    0    0 -0.24661330150E+02  0.78012040719E+00 -0.20197311135E+02  0.59301934553E+02  0.49999982720E+02 0.  0.
        -12    1    1    2    0    0  0.24661330150E+02 -0.78012040719E+00  0.20197311135E+02  0.31886065447E+02  0.00000000000E+00 0.  1.
         11    1    3    3    0    0 -0.74551843241E+01 -0.11349617616E+02  0.77092035958E+01  0.15614909980E+02  0.51100000000E-03 0. -1.
        -11    1    3    3    0    0  0.31685929641E+01 -0.37058911238E+01  0.95834216127E+00  0.49691076012E+01  0.51100000000E-03 0.  1.
         12    1    3    3    0    0 -0.20374738790E+02  0.15835629147E+02 -0.28864856892E+02  0.38717916972E+02  0.00000000000E+00 0. -1.
</event>
<event>
 7    1  0.6841384E-013  0.5930194E+02  0.7816164E-02  0.1266605E+00
        -11   -1    0    0    0    0  0.00000000000E+00  0.00000000000E+00  0.45593999997E+02  0.45594000000E+02  0.51100000000E-03 0. -1.
         11   -1    0    0    0    0 -0.00000000000E+00 -0.00000000000E+00 -0.45593999997E+02  0.45594000000E+02  0.51100000000E-03 0.  1.
    9900012    2    1    2    0    0  0.11124776882E+02 -0.29562020994E+02  0.43642965310E+01  0.59301939877E+02  0.49999992431E+02 0.  0.
        -12    1    1    2    0    0 -0.11124776882E+02  0.29562020994E+02 -0.43642965310E+01  0.31886060123E+02  0.00000000000E+00 0.  1.
         11    1    3    3    0    0  0.12848490423E+02 -0.97187284823E+01 -0.17188948558E+02  0.23558381571E+02  0.51100000000E-03 0. -1.
        -11    1    3    3    0    0  0.30178613887E+01  0.32266103495E+01  0.11069153958E+01  0.45545322113E+01  0.51100000000E-03 0.  1.
         12    1    3    3    0    0 -0.47415749294E+01 -0.23069902861E+02  0.20446329693E+02  0.31189026095E+02  0.00000000000E+00 0. -1.
</event>
<event>
 7    1  0.6841384E-013  0.5930195E+02  0.7816164E-02  0.1266605E+00
        -11   -1    0    0    0    0  0.00000000000E+00  0.00000000000E+00  0.45593999997E+02  0.45594000000E+02  0.51100000000E-03 0.  1.
         11   -1    0    0    0    0 -0.00000000000E+00 -0.00000000000E+00 -0.45593999997E+02  0.45594000000E+02  0.51100000000E-03 0. -1.
    9900012    2    1    2    0    0  0.17736372300E+02 -0.13741135003E+02 -0.22656614708E+02  0.59301954721E+02  0.50000019501E+02 0.  0.
        -12    1    1    2    0    0 -0.17736372300E+02  0.13741135003E+02  0.22656614708E+02  0.31886045279E+02  0.00000000000E+00 0.  1.
         11    1    3    3    0    0  0.19349734783E+02  0.77154880403E+01 -0.15582392833E+02  0.26014456722E+02  0.51100000000E-03 0. -1.
        -11    1    3    3    0    0  0.10551927349E+02 -0.16050318831E+02 -0.45026615257E+01  0.19728909408E+02  0.51100000000E-03 0.  1.
         12    1    3    3    0    0 -0.12165289832E+02 -0.54063042121E+01 -0.25715603499E+01  0.13558588591E+02  0.00000000000E+00 0. -1.
</event>
<event>
 7    1  0.6841384E-013  0.5930196E+02  0.7816164E-02  0.1266605E+00
        -11   -1    0    0    0    0  0.00000000000E+00  0.00000000000E+00  0.45593999997E+02  0.45594000000E+02  0.51100000000E-03 0.  1.
         11   -1    0    0    0    0 -0.00000000000E+00 -0.00000000000E+00 -0.45593999997E+02  0.45594000000E+02  0.51100000000E-03 0. -1.
    9900012    2    1    2    0    0 -0.22477340297E+02  0.20030000774E+02 -0.10501813043E+02  0.59301955481E+02  0.50000020889E+02 0.  0.
        -12    1    1    2    0    0  0.22477340297E+02 -0.20030000774E+02  0.10501813043E+02  0.31886044519E+02  0.00000000000E+00 0.  1.
         11    1    3    3    0    0 -0.70494697992E+01  0.11602267925E+02 -0.10821648539E+02  0.17361328371E+02  0.51100000000E-03 0. -1.
        -11    1    3    3    0    0 -0.69232980767E+01  0.23555414087E+02 -0.63519659981E+00  0.24559989089E+02  0.51100000000E-03 0.  1.
         12    1    3    3    0    0 -0.85045724213E+01 -0.15127681238E+02  0.95503209543E+00  0.17380638021E+02  0.00000000000E+00 0. -1.
</event>
<event>
 7    1  0.6841384E-013  0.5930194E+02  0.7816164E-02  0.1266605E+00
        -11   -1    0    0    0    0  0.00000000000E+00  0.00000000000E+00  0.45593999997E+02  0.45594000000E+02  0.51100000000E-03 0.  1.
         11   -1    0    0    0    0 -0.00000000000E+00 -0.00000000000E+00 -0.45593999997E+02  0.45594000000E+02  0.51100000000E-03 0. -1.
    9900012    2    1    2    0    0  0.30474226967E+02  0.62421154695E+01 -0.70056033457E+01  0.59301937323E+02  0.49999987773E+02 0.  0.
        -12    1    1    2    0    0 -0.30474226967E+02 -0.62421154695E+01  0.70056033457E+01  0.31886062677E+02  0.00000000000E+00 0.  1.
         11    1    3    3    0    0 -0.80232114047E+01  0.16831237692E+01  0.40168012898E-01  0.81979534395E+01  0.51100000000E-03 0. -1.
        -11    1    3    3    0    0  0.34657128764E+02  0.49252603090E+01  0.77166757483E+01  0.35845806562E+02  0.51100000000E-03 0.  1.
         12    1    3    3    0    0  0.38403096084E+01 -0.36626860867E+00 -0.14762447107E+02  0.15258177321E+02  0.00000000000E+00 0. -1.
</event>
<event>
 7    1  0.6841384E-013  0.5930193E+02  0.7816164E-02  0.1266605E+00
        -11   -1    0    0    0    0  0.00000000000E+00  0.00000000000E+00  0.45593999997E+02  0.45594000000E+02  0.51100000000E-03 0. -1.
         11   -1    0    0    0    0 -0.00000000000E+00 -0.00000000000E+00 -0.45593999997E+02  0.45594000000E+02  0.51100000000E-03 0.  1.
    9900012    2    1    2    0    0  0.10623155187E+02  0.17931996419E+02 -0.24131169519E+02  0.59301933073E+02  0.49999980021E+02 0.  0.
        -12    1    1    2    0    0 -0.10623155187E+02 -0.17931996419E+02  0.24131169519E+02  0.31886066927E+02  0.00000000000E+00 0.  1.
         11    1    3    3    0    0 -0.83880891615E+01  0.22670715559E+02 -0.86967502075E+01  0.25689586376E+02  0.51100000000E-03 0. -1.
        -11    1    3    3    0    0  0.73712052188E+01 -0.57388475194E+01  0.46056845571E+01  0.10415438912E+02  0.51100000000E-03 0.  1.
        -12    1    3    3    0    0  0.11640039130E+02  0.10001283795E+01 -0.20040103868E+02  0.23196907785E+02  0.00000000000E+00 0.  1.
</event>
<event>
 7    1  0.6841384E-013  0.5930197E+02  0.7816164E-02  0.1266605E+00
        -11   -1    0    0    0    0  0.00000000000E+00  0.00000000000E+00  0.45593999997E+02  0.45594000000E+02  0.51100000000E-03 0.  1.
         11   -1    0    0    0    0 -0.00000000000E+00 -0.00000000000E+00 -0.45593999997E+02  0.45594000000E+02  0.51100000000E-03 0. -1.
    9900012    2    1    2    0    0  0.15643709785E+02 -0.23555119649E+02 -0.14736002306E+02  0.59301967298E+02  0.50000042439E+02 0.  0.
        -12    1    1    2    0    0 -0.15643709785E+02  0.23555119649E+02  0.14736002306E+02  0.31886032702E+02  0.00000000000E+00 0.  1.
         11    1    3    3    0    0  0.64211768249E+01 -0.14863552105E+02  0.58727391085E+01  0.17223407267E+02  0.51100000000E-03 0.  1.
        -11    1    3    3    0    0 -0.67394350410E+01 -0.16948929559E+02 -0.70031593465E+01  0.19537923098E+02  0.51100000000E-03 0. -1.
        -12    1    3    3    0    0  0.15961968001E+02  0.82573620153E+01 -0.13605582068E+02  0.22540636933E+02  0.00000000000E+00 0.  1.
</event>
<event>
 7    1  0.6841384E-013  0.5930198E+02  0.7816164E-02  0.1266605E+00
        -11   -1    0    0    0    0  0.00000000000E+00  0.00000000000E+00  0.45593999997E+02  0.45594000000E+02  0.51100000000E-03 0. -1.
         11   -1    0    0    0    0 -0.00000000000E+00 -0.00000000000E+00 -0.45593999997E+02  0.45594000000E+02  0.51100000000E-03 0.  1.
    9900012    2    1    2    0    0 -0.18332755493E+02 -0.12677569616E+02  0.22801484630E+02  0.59301978037E+02  0.50000062024E+02 0.  0.
        -12    1    1    2    0    0  0.18332755493E+02  0.12677569616E+02 -0.22801484630E+02  0.31886021963E+02  0.00000000000E+00 0.  1.
         11    1    3    3    0    0  0.54396301317E+01 -0.45372501371E+01 -0.46440427555E+01  0.84701445177E+01  0.51100000000E-03 0. -1.
        -11    1    3    3    0    0  0.84355190888E+00 -0.84651730477E-01 -0.73812234271E+01  0.74297513606E+01  0.51100000000E-03 0.  1.
         12    1    3    3    0    0 -0.24615937533E+02 -0.80556677481E+01  0.34826750812E+02  0.43402082158E+02  0.00000000000E+00 0. -1.
</event>
<event>
 7    1  0.6841384E-013  0.5930189E+02  0.7816164E-02  0.1266605E+00
        -11   -1    0    0    0    0  0.00000000000E+00  0.00000000000E+00  0.45593999997E+02  0.45594000000E+02  0.51100000000E-03 0.  1.
         11   -1    0    0    0    0 -0.00000000000E+00 -0.00000000000E+00 -0.45593999997E+02  0.45594000000E+02  0.51100000000E-03 0. -1.
    9900012    2    1    2    0    0 -0.67410148673E+01 -0.16294327143E+02 -0.26566481162E+02  0.59301885470E+02  0.49999893205E+02 0.  0.
        -12    1    1    2    0    0  0.67410148673E+01  0.16294327143E+02  0.26566481162E+02  0.31886114530E+02  0.00000000000E+00 0.  1.
         11    1    3    3    0    0  0.26624066153E+01 -0.22502298057E+01  0.25531907078E+01  0.43209635749E+01  0.51100000000E-03 0. -1.
        -11    1    3    3    0    0  0.97667371886E+01 -0.18216431920E+02 -0.10000557272E+01  0.20693662289E+02  0.51100000000E-03 0.  1.
         12    1    3    3    0    0 -0.19170158671E+02  0.41723345820E+01 -0.28119616142E+02  0.34287259607E+02  0.00000000000E+00 0. -1.
</event>
<event>
 7    1  0.6841384E-013  0.5930191E+02  0.7816164E-02  0.1266605E+00
        -11   -1    0    0    0    0  0.00000000000E+00  0.00000000000E+00  0.45593999997E+02  0.45594000000E+02  0.51100000000E-03 0.  1.
         11   -1    0    0    0    0 -0.00000000000E+00 -0.00000000000E+00 -0.45593999997E+02  0.45594000000E+02  0.51100000000E-03 0. -1.
    9900012    2    1    2    0    0  0.15951637514E+02 -0.24690194865E+02 -0.12355660941E+02  0.59301908689E+02  0.49999935550E+02 0.  0.
        -12    1    1    2    0    0 -0.15951637514E+02  0.24690194865E+02  0.12355660941E+02  0.31886091311E+02  0.00000000000E+00 0.  1.
         11    1    3    3    0    0 -0.98967447767E-01 -0.14987458185E+02  0.49227215444E+01  0.15775515366E+02  0.51100000000E-03 0. -1.
        -11    1    3    3    0    0  0.10902462891E+02 -0.27604000134E+01  0.99147153996E+01  0.14992834523E+02  0.51100000000E-03 0.  1.
         12    1    3    3    0    0  0.51481420709E+01 -0.69423366660E+01 -0.27193097885E+02  0.28533558799E+02  0.00000000000E+00 0. -1.
</event>
<event>
 7    1  0.6841384E-013  0.5930195E+02  0.7816164E-02  0.1266605E+00
        -11   -1    0    0    0    0  0.00000000000E+00  0.00000000000E+00  0.45593999997E+02  0.45594000000E+02  0.51100000000E-03 0.  1.
         11   -1    0    0    0    0 -0.00000000000E+00 -0.00000000000E+00 -0.45593999997E+02  0.45594000000E+02  0.51100000000E-03 0. -1.
    9900012    2    1    2    0    0 -0.71052730959E+01  0.14502736355E+02 -0.27493747579E+02  0.59301946254E+02  0.50000004061E+02 0.  0.
        -12    1    1    2    0    0  0.71052730959E+01 -0.14502736355E+02  0.27493747579E+02  0.31886053746E+02  0.00000000000E+00 0.  1.
         11    1    3    3    0    0 -0.17945205041E+01 -0.17389819435E+01  0.51838450412E+01  0.57547034426E+01  0.51100000000E-03 0. -1.
        -11    1    3    3    0    0 -0.20567246915E+02  0.15838390221E+02 -0.14224786981E+02  0.29600858356E+02  0.51100000000E-03 0.  1.
         12    1    3    3    0    0  0.15256494323E+02  0.40332807765E+00 -0.18452805639E+02  0.23946384456E+02  0.00000000000E+00 0. -1.
</event>
<event>
 7    1  0.6841384E-013  0.5930191E+02  0.7816164E-02  0.1266605E+00
        -11   -1    0    0    0    0  0.00000000000E+00  0.00000000000E+00  0.45593999997E+02  0.45594000000E+02  0.51100000000E-03 0.  1.
         11   -1    0    0    0    0 -0.00000000000E+00 -0.00000000000E+00 -0.45593999997E+02  0.45594000000E+02  0.51100000000E-03 0. -1.
    9900012    2    1    2    0    0  0.24629432728E+02  0.18942293629E+02  0.71626458968E+01  0.59301906783E+02  0.49999932074E+02 0.  0.
        -12    1    1    2    0    0 -0.24629432728E+02 -0.18942293629E+02 -0.71626458968E+01  0.31886093217E+02  0.00000000000E+00 0.  1.
         11    1    3    3    0    0  0.70169246252E+01 -0.42983405276E+01  0.81354614442E+01  0.11571460394E+02  0.51100000000E-03 0. -1.
        -11    1    3    3    0    0  0.18838214668E+02 -0.27248190343E+01  0.73981811543E+01  0.20421460656E+02  0.51100000000E-03 0.  1.
         12    1    3    3    0    0 -0.12257065649E+01  0.25965453190E+02 -0.83709967018E+01  0.27308985733E+02  0.00000000000E+00 0. -1.
</event>
<event>
 7    1  0.6841384E-013  0.5930196E+02  0.7816164E-02  0.1266605E+00
        -11   -1    0    0    0    0  0.00000000000E+00  0.00000000000E+00  0.45593999997E+02  0.45594000000E+02  0.51100000000E-03 0.  1.
         11   -1    0    0    0    0 -0.00000000000E+00 -0.00000000000E+00 -0.45593999997E+02  0.45594000000E+02  0.51100000000E-03 0. -1.
    9900012    2    1    2    0    0 -0.15256167276E+02 -0.86661561442E+01 -0.26624553974E+02  0.59301956398E+02  0.50000022561E+02 0.  0.
        -12    1    1    2    0    0  0.15256167276E+02  0.86661561442E+01  0.26624553974E+02  0.31886043602E+02  0.00000000000E+00 0.  1.
         11    1    3    3    0    0 -0.51714302399E+01 -0.12059509697E+02  0.46041384877E+01  0.13905882076E+02  0.51100000000E-03 0. -1.
        -11    1    3    3    0    0  0.23060997237E+00  0.31349374462E+01  0.59947539794E+01  0.67689060627E+01  0.51100000000E-03 0.  1.
         12    1    3    3    0    0 -0.10315347009E+02  0.25841610628E+00 -0.37223446441E+02  0.38627168259E+02  0.00000000000E+00 0. -1.
</event>
<event>
 7    1  0.6841384E-013  0.5930188E+02  0.7816164E-02  0.1266605E+00
        -11   -1    0    0    0    0  0.00000000000E+00  0.00000000000E+00  0.45593999997E+02  0.45594000000E+02  0.51100000000E-03 0. -1.
         11   -1    0    0    0    0 -0.00000000000E+00 -0.00000000000E+00 -0.45593999997E+02  0.45594000000E+02  0.51100000000E-03 0.  1.
    9900012    2    1    2    0    0  0.30720394433E+02 -0.10127495257E+01 -0.84827219115E+01  0.59301876581E+02  0.49999876992E+02 0.  0.
        -12    1    1    2    0    0 -0.30720394433E+02  0.10127495257E+01  0.84827219115E+01  0.31886123419E+02  0.00000000000E+00 0.  1.
         11    1    3    3    0    0  0.94188166085E+01 -0.74242226475E+01  0.92184407891E+00  0.12028424044E+02  0.51100000000E-03 0. -1.
        -11    1    3    3    0    0  0.29246671716E+02 -0.62422443229E+01 -0.56003166543E+00  0.29910651220E+02  0.51100000000E-03 0.  1.
        -12    1    3    3    0    0 -0.79450938922E+01  0.12653717445E+02 -0.88445343250E+01  0.17362801316E+02  0.00000000000E+00 0.  1.
</event>
<event>
 7    1  0.6841384E-013  0.5930194E+02  0.7816164E-02  0.1266605E+00
        -11   -1    0    0    0    0  0.00000000000E+00  0.00000000000E+00  0.45593999997E+02  0.45594000000E+02  0.51100000000E-03 0. -1.
         11   -1    0    0    0    0 -0.00000000000E+00 -0.00000000000E+00 -0.45593999997E+02  0.45594000000E+02  0.51100000000E-03 0.  1.
    9900012    2    1    2    0    0  0.27071836798E+02 -0.53291033593E+01 -0.15982393979E+02  0.59301943369E+02  0.49999998798E+02 0.  0.
        -12    1    1    2    0    0 -0.27071836798E+02  0.53291033593E+01  0.15982393979E+02  0.31886056631E+02  0.00000000000E+00 0.  1.
         11    1    3    3    0    0  0.51973363234E+01  0.10320986364E+02 -0.83298621325E+01  0.14245057662E+02  0.51100000000E-03 0. -1.
        -11    1    3    3    0    0  0.43922514637E+01 -0.78859862212E+01 -0.20237576274E+02  0.22159425654E+02  0.51100000000E-03 0.  1.
        -12    1    3    3    0    0  0.17482249010E+02 -0.77641035016E+01  0.12585044428E+02  0.22897460053E+02  0.00000000000E+00 0.  1.
</event>
<event>
 7    1  0.6841384E-013  0.5930202E+02  0.7816164E-02  0.1266604E+00
        -11   -1    0    0    0    0  0.00000000000E+00  0.00000000000E+00  0.45593999997E+02  0.45594000000E+02  0.51100000000E-03 0.  1.
         11   -1    0    0    0    0 -0.00000000000E+00 -0.00000000000E+00 -0.45593999997E+02  0.45594000000E+02  0.51100000000E-03 0. -1.
    9900012    2    1    2    0    0  0.13785582674E+02  0.84562761754E+01 -0.27480262446E+02  0.59302020000E+02  0.50000138555E+02 0.  0.
        -12    1    1    2    0    0 -0.13785582674E+02 -0.84562761754E+01  0.27480262446E+02  0.31885980000E+02  0.00000000000E+00 0.  1.
         11    1    3    3    0    0 -0.37813982271E+01  0.12972785434E+02 -0.19532252288E+02  0.23750810811E+02  0.51100000000E-03 0. -1.
        -11    1    3    3    0    0  0.19620069273E+02  0.82858445938E+01 -0.23457406412E+01  0.21426731863E+02  0.51100000000E-03 0.  1.
         12    1    3    3    0    0 -0.20530883711E+01 -0.12802353852E+02 -0.56022695173E+01  0.14124477327E+02  0.00000000000E+00 0. -1.
</event>
<event>
 7    1  0.6841384E-013  0.5930195E+02  0.7816164E-02  0.1266605E+00
        -11   -1    0    0    0    0  0.00000000000E+00  0.00000000000E+00  0.45593999997E+02  0.45594000000E+02  0.51100000000E-03 0.  1.
         11   -1    0    0    0    0 -0.00000000000E+00 -0.00000000000E+00 -0.45593999997E+02  0.45594000000E+02  0.51100000000E-03 0. -1.
    9900012    2    1    2    0    0 -0.29164507128E+01 -0.26008503689E+02 -0.18214620268E+02  0.59301947557E+02  0.50000006436E+02 0.  0.
        -12    1    1    2    0    0  0.29164507128E+01  0.26008503689E+02  0.18214620268E+02  0.31886052443E+02  0.00000000000E+00 0.  1.
         11    1    3    3    0    0  0.18221020870E+02 -0.24950276060E+02 -0.16031212250E+02  0.34806919477E+02  0.51100000000E-03 0. -1.
        -11    1    3    3    0    0 -0.30887064479E+01 -0.15958307814E+01  0.41006088965E+01  0.53760372941E+01  0.51100000000E-03 0.  1.
        -12    1    3    3    0    0 -0.18048765135E+02  0.53760315300E+00 -0.62840169152E+01  0.19118990785E+02  0.00000000000E+00 0.  1.
</event>
<event>
 7    1  0.6841384E-013  0.5930195E+02  0.7816164E-02  0.1266605E+00
        -11   -1    0    0    0    0  0.00000000000E+00  0.00000000000E+00  0.45593999997E+02  0.45594000000E+02  0.51100000000E-03 0.  1.
         11   -1    0    0    0    0 -0.00000000000E+00 -0.00000000000E+00 -0.45593999997E+02  0.45594000000E+02  0.51100000000E-03 0. -1.
    9900012    2    1    2    0    0 -0.12321263444E+02 -0.26344731946E+02 -0.13071411654E+02  0.59301949181E+02  0.50000009399E+02 0.  0.
        -12    1    1    2    0    0  0.12321263444E+02  0.26344731946E+02  0.13071411654E+02  0.31886050819E+02  0.00000000000E+00 0.  1.
         11    1    3    3    0    0 -0.71047074291E+01 -0.57901954417E+01 -0.14432491022E+01  0.92782648775E+01  0.51100000000E-03 0. -1.
        -11    1    3    3    0    0 -0.24428978293E+02 -0.84017111019E+01 -0.76726026881E+01  0.26948702421E+02  0.51100000000E-03 0.  1.
         12    1    3    3    0    0  0.19212422278E+02 -0.12152825403E+02 -0.39555598642E+01  0.23074981883E+02  0.00000000000E+00 0. -1.
</event>
<event>
 7    1  0.6841384E-013  0.5930194E+02  0.7816164E-02  0.1266605E+00
        -11   -1    0    0    0    0  0.00000000000E+00  0.00000000000E+00  0.45593999997E+02  0.45594000000E+02  0.51100000000E-03 0. -1.
         11   -1    0    0    0    0 -0.00000000000E+00 -0.00000000000E+00 -0.45593999997E+02  0.45594000000E+02  0.51100000000E-03 0.  1.
    9900012    2    1    2    0    0 -0.30421301552E+02  0.91453112465E+01  0.27619816837E+01  0.59301939586E+02  0.49999991899E+02 0.  0.
        -12    1    1    2    0    0  0.30421301552E+02 -0.91453112465E+01 -0.27619816837E+01  0.31886060414E+02  0.00000000000E+00 0.  1.
         11    1    3    3    0    0  0.53462624913E+01 -0.14309614427E+02  0.78439927426E+00  0.15295844865E+02  0.51100000000E-03 0. -1.
        -11    1    3    3    0    0 -0.87779447360E+01  0.45426701319E+01  0.46868736684E+01  0.10938690541E+02  0.51100000000E-03 0.  1.
        -12    1    3    3    0    0 -0.26989619307E+02  0.18912255541E+02 -0.27092912589E+01  0.33067404179E+02  0.00000000000E+00 0.  1.
</event>
<event>
 7    1  0.6841384E-013  0.5930195E+02  0.7816164E-02  0.1266605E+00
        -11   -1    0    0    0    0  0.00000000000E+00  0.00000000000E+00  0.45593999997E+02  0.45594000000E+02  0.51100000000E-03 0. -1.
         11   -1    0    0    0    0 -0.00000000000E+00 -0.00000000000E+00 -0.45593999997E+02  0.45594000000E+02  0.51100000000E-03 0.  1.
    9900012    2    1    2    0    0  0.20630946444E+02  0.23803775310E+02 -0.49461760816E+01  0.59301947752E+02  0.50000006791E+02 0.  0.
        -12    1    1    2    0    0 -0.20630946444E+02 -0.23803775310E+02  0.49461760816E+01  0.31886052248E+02  0.00000000000E+00 0.  1.
         11    1    3    3    0    0 -0.28724817880E+01  0.84355867699E+01 -0.14987508770E+01  0.90364002915E+01  0.51100000000E-03 0. -1.
        -11    1    3    3    0    0  0.75173308733E+01  0.26842410426E+02 -0.98626099818E+01  0.29568502445E+02  0.51100000000E-03 0.  1.
         12    1    3    3    0    0  0.15986097358E+02 -0.11474221886E+02  0.64151847772E+01  0.20697045015E+02  0.00000000000E+00 0. -1.
</event>
<event>
 7    1  0.6841384E-013  0.5930195E+02  0.7816164E-02  0.1266605E+00
        -11   -1    0    0    0    0  0.00000000000E+00  0.00000000000E+00  0.45593999997E+02  0.45594000000E+02  0.51100000000E-03 0.  1.
         11   -1    0    0    0    0 -0.00000000000E+00 -0.00000000000E+00 -0.45593999997E+02  0.45594000000E+02  0.51100000000E-03 0. -1.
    9900012    2    1    2    0    0  0.31843490267E+02  0.15878454699E+01 -0.43706662585E+00  0.59301950498E+02  0.50000011801E+02 0.  0.
        -12    1    1    2    0    0 -0.31843490267E+02 -0.15878454699E+01  0.43706662585E+00  0.31886049502E+02  0.00000000000E+00 0.  1.
         11    1    3    3    0    0 -0.59901101238E+01  0.30202281243E+01  0.37507326626E+01  0.76857786194E+01  0.51100000000E-03 0. -1.
        -11    1    3    3    0    0  0.32383410463E+01 -0.12933321777E+02  0.46201314154E+01  0.14110396149E+02  0.51100000000E-03 0.  1.
         12    1    3    3    0    0  0.34595259344E+02  0.11500939123E+02 -0.88079307039E+01  0.37505775730E+02  0.00000000000E+00 0. -1.
</event>
<event>
 7    1  0.6841384E-013  0.5930195E+02  0.7816164E-02  0.1266605E+00
        -11   -1    0    0    0    0  0.00000000000E+00  0.00000000000E+00  0.45593999997E+02  0.45594000000E+02  0.51100000000E-03 0. -1.
         11   -1    0    0    0    0 -0.00000000000E+00 -0.00000000000E+00 -0.45593999997E+02  0.45594000000E+02  0.51100000000E-03 0.  1.
    9900012    2    1    2    0    0  0.15546440398E+02  0.13827378577E+02  0.24162611079E+02  0.59301953185E+02  0.50000016700E+02 0.  0.
        -12    1    1    2    0    0 -0.15546440398E+02 -0.13827378577E+02 -0.24162611079E+02  0.31886046815E+02  0.00000000000E+00 0.  1.
         11    1    3    3    0    0  0.16280966138E+02  0.39702818984E+01 -0.13428190294E+01  0.16811786340E+02  0.51100000000E-03 0. -1.
        -11    1    3    3    0    0 -0.11733512997E+02 -0.57530022147E+01  0.38617109383E+01  0.13626634704E+02  0.51100000000E-03 0.  1.
         12    1    3    3    0    0  0.10998987257E+02  0.15610098893E+02  0.21643719170E+02  0.28863532141E+02  0.00000000000E+00 0. -1.
</event>
<event>
 7    1  0.6841384E-013  0.5930197E+02  0.7816164E-02  0.1266605E+00
        -11   -1    0    0    0    0  0.00000000000E+00  0.00000000000E+00  0.45593999997E+02  0.45594000000E+02  0.51100000000E-03 0.  1.
         11   -1    0    0    0    0 -0.00000000000E+00 -0.00000000000E+00 -0.45593999997E+02  0.45594000000E+02  0.51100000000E-03 0. -1.
    9900012    2    1    2    0    0 -0.69963389139E+01  0.10685465275E+01 -0.31090646195E+02  0.59301971231E+02  0.50000049611E+02 0.  0.
        -12    1    1    2    0    0  0.69963389139E+01 -0.10685465275E+01  0.31090646195E+02  0.31886028769E+02  0.00000000000E+00 0.  1.
         11    1    3    3    0    0 -0.19205404916E+02 -0.12469457269E+02 -0.29115978278E+02  0.37041532553E+02  0.51100000000E-03 0. -1.
        -11    1    3    3    0    0 -0.11151968754E+01 -0.64061268196E+00 -0.24836980150E+01  0.27969277377E+01  0.51100000000E-03 0.  1.
        -12    1    3    3    0    0  0.13324262877E+02  0.14178616478E+02  0.50903009820E+00  0.19463510940E+02  0.00000000000E+00 0.  1.
</event>
<event>
 7    1  0.6841384E-013  0.5930196E+02  0.7816164E-02  0.1266605E+00
        -11   -1    0    0    0    0  0.00000000000E+00  0.00000000000E+00  0.45593999997E+02  0.45594000000E+02  0.51100000000E-03 0.  1.
         11   -1    0    0    0    0 -0.00000000000E+00 -0.00000000000E+00 -0.45593999997E+02  0.45594000000E+02  0.51100000000E-03 0. -1.
    9900012    2    1    2    0    0 -0.23205813610E+02  0.10669230526E+02 -0.19088672229E+02  0.59301958026E+02  0.50000025529E+02 0.  0.
        -12    1    1    2    0    0  0.23205813610E+02 -0.10669230526E+02  0.19088672229E+02  0.31886041974E+02  0.00000000000E+00 0.  1.
         11    1    3    3    0    0  0.19597698236E+01  0.73141865199E+01 -0.95108741246E+01  0.12157086373E+02  0.51100000000E-03 0. -1.
        -11    1    3    3    0    0  0.18853527508E+01 -0.56730708024E+01 -0.16711378579E+02  0.17748477727E+02  0.51100000000E-03 0.  1.
        -12    1    3    3    0    0 -0.27050936184E+02  0.90281148089E+01  0.71335804752E+01  0.29396393926E+02  0.00000000000E+00 0.  1.
</event>
<event>
 7    1  0.6841384E-013  0.5930189E+02  0.7816164E-02  0.1266605E+00
        -11   -1    0    0    0    0  0.00000000000E+00  0.00000000000E+00  0.45593999997E+02  0.45594000000E+02  0.51100000000E-03 0.  1.
         11   -1    0    0    0    0 -0.00000000000E+00 -0.00000000000E+00 -0.45593999997E+02  0.45594000000E+02  0.51100000000E-03 0. -1.
    9900012    2    1    2    0    0 -0.24334667710E+02  0.64551662610E+01 -0.19567293997E+02  0.59301886747E+02  0.49999895534E+02 0.  0.
        -12    1    1    2    0    0  0.24334667710E+02 -0.64551662610E+01  0.19567293997E+02  0.31886113253E+02  0.00000000000E+00 0.  1.
         11    1    3    3    0    0 -0.12751724123E+02 -0.78241737730E+01  0.10026263372E+01  0.14994313028E+02  0.51100000000E-03 0. -1.
        -11    1    3    3    0    0  0.10251983596E+02 -0.35794922222E+01 -0.76395766801E+01  0.13277012628E+02  0.51100000000E-03 0.  1.
        -12    1    3    3    0    0 -0.21834927182E+02  0.17858832256E+02 -0.12930343654E+02  0.31030561091E+02  0.00000000000E+00 0.  1.
</event>
<event>
 7    1  0.6841384E-013  0.5930193E+02  0.7816164E-02  0.1266605E+00
        -11   -1    0    0    0    0  0.00000000000E+00  0.00000000000E+00  0.45593999997E+02  0.45594000000E+02  0.51100000000E-03 0. -1.
         11   -1    0    0    0    0 -0.00000000000E+00 -0.00000000000E+00 -0.45593999997E+02  0.45594000000E+02  0.51100000000E-03 0.  1.
    9900012    2    1    2    0    0 -0.18710865731E+02 -0.24654547690E+02 -0.76666970947E+01  0.59301929961E+02  0.49999974345E+02 0.  0.
        -12    1    1    2    0    0  0.18710865731E+02  0.24654547690E+02  0.76666970947E+01  0.31886070039E+02  0.00000000000E+00 0.  1.
         11    1    3    3    0    0 -0.25059722264E+02 -0.18101590888E+02  0.10356027018E+02  0.32602217232E+02  0.51100000000E-03 0. -1.
        -11    1    3    3    0    0  0.35569338867E+01 -0.54697728494E+01  0.17068571322E+01  0.67441497039E+01  0.51100000000E-03 0.  1.
        -12    1    3    3    0    0  0.27919226455E+01 -0.10831839527E+01 -0.19729581245E+02  0.19955563024E+02  0.00000000000E+00 0.  1.
</event>
<event>
 7    1  0.6841384E-013  0.5930195E+02  0.7816164E-02  0.1266605E+00
        -11   -1    0    0    0    0  0.00000000000E+00  0.00000000000E+00  0.45593999997E+02  0.45594000000E+02  0.51100000000E-03 0.  1.
         11   -1    0    0    0    0 -0.00000000000E+00 -0.00000000000E+00 -0.45593999997E+02  0.45594000000E+02  0.51100000000E-03 0. -1.
    9900012    2    1    2    0    0  0.24433597759E+02  0.20359162385E+02  0.22855490236E+01  0.59301954042E+02  0.50000018264E+02 0.  0.
        -12    1    1    2    0    0 -0.24433597759E+02 -0.20359162385E+02 -0.22855490236E+01  0.31886045958E+02  0.00000000000E+00 0.  1.
         11    1    3    3    0    0  0.83500948173E+01 -0.18359499003E+01  0.29093473321E+01  0.90310075658E+01  0.51100000000E-03 0. -1.
        -11    1    3    3    0    0  0.15456018809E+02 -0.71092818999E+01  0.92207578780E+01  0.19350782482E+02  0.51100000000E-03 0.  1.
         12    1    3    3    0    0  0.62748413230E+00  0.29304394186E+02 -0.98445561865E+01  0.30920163994E+02  0.00000000000E+00 0. -1.
</event>
<event>
 7    1  0.6841384E-013  0.5930199E+02  0.7816164E-02  0.1266605E+00
        -11   -1    0    0    0    0  0.00000000000E+00  0.00000000000E+00  0.45593999997E+02  0.45594000000E+02  0.51100000000E-03 0.  1.
         11   -1    0    0    0    0 -0.00000000000E+00 -0.00000000000E+00 -0.45593999997E+02  0.45594000000E+02  0.51100000000E-03 0. -1.
    9900012    2    1    2    0    0 -0.17648003632E+02  0.25326651640E+02  0.79891276161E+01  0.59301992480E+02  0.50000088365E+02 0.  0.
        -12    1    1    2    0    0  0.17648003632E+02 -0.25326651640E+02 -0.79891276161E+01  0.31886007520E+02  0.00000000000E+00 0.  1.
         11    1    3    3    0    0 -0.13156196885E+01 -0.74088339711E+00  0.15775695625E+02  0.15847786473E+02  0.51100000000E-03 0. -1.
        -11    1    3    3    0    0  0.89868702843E+00  0.62069808716E+01  0.99329353026E+01  0.11747231755E+02  0.51100000000E-03 0.  1.
         12    1    3    3    0    0 -0.17231070971E+02  0.19860554166E+02 -0.17719503312E+02  0.31706974252E+02  0.00000000000E+00 0. -1.
</event>
<event>
 7    1  0.6841384E-013  0.5930197E+02  0.7816164E-02  0.1266605E+00
        -11   -1    0    0    0    0  0.00000000000E+00  0.00000000000E+00  0.45593999997E+02  0.45594000000E+02  0.51100000000E-03 0. -1.
         11   -1    0    0    0    0 -0.00000000000E+00 -0.00000000000E+00 -0.45593999997E+02  0.45594000000E+02  0.51100000000E-03 0.  1.
    9900012    2    1    2    0    0 -0.76510642083E+01  0.12296299433E+02  0.28407409129E+02  0.59301973959E+02  0.50000054588E+02 0.  0.
        -12    1    1    2    0    0  0.76510642083E+01 -0.12296299433E+02 -0.28407409129E+02  0.31886026041E+02  0.00000000000E+00 0.  1.
         11    1    3    3    0    0  0.56980256809E+01  0.79745303319E+01 -0.79837509876E+01  0.12641238498E+02  0.51100000000E-03 0.  1.
        -11    1    3    3    0    0 -0.69824597759E+01  0.11790217984E+02  0.33857267708E+02  0.36525040199E+02  0.51100000000E-03 0. -1.
         12    1    3    3    0    0 -0.63666301133E+01 -0.74684488824E+01  0.25338924084E+01  0.10135695262E+02  0.00000000000E+00 0. -1.
</event>
<event>
 7    1  0.6841384E-013  0.5930196E+02  0.7816164E-02  0.1266605E+00
        -11   -1    0    0    0    0  0.00000000000E+00  0.00000000000E+00  0.45593999997E+02  0.45594000000E+02  0.51100000000E-03 0. -1.
         11   -1    0    0    0    0 -0.00000000000E+00 -0.00000000000E+00 -0.45593999997E+02  0.45594000000E+02  0.51100000000E-03 0.  1.
    9900012    2    1    2    0    0 -0.11166759174E+02 -0.12416280645E+02  0.27163558141E+02  0.59301961890E+02  0.50000032576E+02 0.  0.
        -12    1    1    2    0    0  0.11166759174E+02  0.12416280645E+02 -0.27163558141E+02  0.31886038110E+02  0.00000000000E+00 0.  1.
         11    1    3    3    0    0 -0.26051087767E+02 -0.15357353321E+02  0.77690034166E+01  0.31222826413E+02  0.51100000000E-03 0. -1.
        -11    1    3    3    0    0 -0.11575644903E+01 -0.20056277990E+01 -0.14297055260E+00  0.23201162164E+01  0.51100000000E-03 0.  1.
         12    1    3    3    0    0  0.16041893084E+02  0.49467004749E+01  0.19537525277E+02  0.25759019260E+02  0.00000000000E+00 0. -1.
</event>
<event>
 7    1  0.6841384E-013  0.5930195E+02  0.7816164E-02  0.1266605E+00
        -11   -1    0    0    0    0  0.00000000000E+00  0.00000000000E+00  0.45593999997E+02  0.45594000000E+02  0.51100000000E-03 0. -1.
         11   -1    0    0    0    0 -0.00000000000E+00 -0.00000000000E+00 -0.45593999997E+02  0.45594000000E+02  0.51100000000E-03 0.  1.
    9900012    2    1    2    0    0  0.17020059500E+02  0.13777137663E+02  0.23178187571E+02  0.59301947773E+02  0.50000006831E+02 0.  0.
        -12    1    1    2    0    0 -0.17020059500E+02 -0.13777137663E+02 -0.23178187571E+02  0.31886052227E+02  0.00000000000E+00 0.  1.
         11    1    3    3    0    0  0.14376152504E+02  0.59899862861E+01  0.17806862070E+02  0.23656669959E+02  0.51100000000E-03 0. -1.
        -11    1    3    3    0    0  0.97629775555E+01  0.57587980116E+01  0.17844974515E+02  0.21140544009E+02  0.51100000000E-03 0.  1.
        -12    1    3    3    0    0 -0.71190705598E+01  0.20283533655E+01 -0.12473649014E+02  0.14504733805E+02  0.00000000000E+00 0.  1.
</event>
<event>
 7    1  0.6841384E-013  0.5930198E+02  0.7816164E-02  0.1266605E+00
        -11   -1    0    0    0    0  0.00000000000E+00  0.00000000000E+00  0.45593999997E+02  0.45594000000E+02  0.51100000000E-03 0. -1.
         11   -1    0    0    0    0 -0.00000000000E+00 -0.00000000000E+00 -0.45593999997E+02  0.45594000000E+02  0.51100000000E-03 0.  1.
    9900012    2    1    2    0    0 -0.13138031606E+02  0.23694818599E+02  0.16812667647E+02  0.59301982746E+02  0.50000070612E+02 0.  0.
        -12    1    1    2    0    0  0.13138031606E+02 -0.23694818599E+02 -0.16812667647E+02  0.31886017254E+02  0.00000000000E+00 0.  1.
         11    1    3    3    0    0 -0.15671503043E+02  0.11909511772E+01 -0.84086311640E-01  0.15716915826E+02  0.51100000000E-03 0. -1.
        -11    1    3    3    0    0  0.44260358780E+01 -0.64108844619E+01 -0.30934480569E+01  0.83820435646E+01  0.51100000000E-03 0.  1.
         12    1    3    3    0    0 -0.18925644417E+01  0.28914751884E+02  0.19990202016E+02  0.35203023355E+02  0.00000000000E+00 0. -1.
</event>
<event>
 7    1  0.6841384E-013  0.5930191E+02  0.7816164E-02  0.1266605E+00
        -11   -1    0    0    0    0  0.00000000000E+00  0.00000000000E+00  0.45593999997E+02  0.45594000000E+02  0.51100000000E-03 0. -1.
         11   -1    0    0    0    0 -0.00000000000E+00 -0.00000000000E+00 -0.45593999997E+02  0.45594000000E+02  0.51100000000E-03 0.  1.
    9900012    2    1    2    0    0  0.14463798575E+02  0.20292515769E+02  0.19893088788E+02  0.59301911388E+02  0.49999940472E+02 0.  0.
        -12    1    1    2    0    0 -0.14463798575E+02 -0.20292515769E+02 -0.19893088788E+02  0.31886088612E+02  0.00000000000E+00 0.  1.
         11    1    3    3    0    0  0.14456705707E+02  0.14427787619E+02  0.17040223773E+02  0.26599372586E+02  0.51100000000E-03 0.  1.
        -11    1    3    3    0    0 -0.40715379489E+01  0.46027941411E+00  0.16749933143E+02  0.17243826112E+02  0.51100000000E-03 0. -1.
        -12    1    3    3    0    0  0.40786308176E+01  0.54044487353E+01 -0.13897068128E+02  0.15458712690E+02  0.00000000000E+00 0.  1.
</event>
<event>
 7    1  0.6841384E-013  0.5930194E+02  0.7816164E-02  0.1266605E+00
        -11   -1    0    0    0    0  0.00000000000E+00  0.00000000000E+00  0.45593999997E+02  0.45594000000E+02  0.51100000000E-03 0.  1.
         11   -1    0    0    0    0 -0.00000000000E+00 -0.00000000000E+00 -0.45593999997E+02  0.45594000000E+02  0.51100000000E-03 0. -1.
    9900012    2    1    2    0    0  0.49649002618E+01  0.72074881889E+00 -0.31488905487E+02  0.59301939060E+02  0.49999990941E+02 0.  0.
        -12    1    1    2    0    0 -0.49649002618E+01 -0.72074881889E+00  0.31488905487E+02  0.31886060940E+02  0.00000000000E+00 0.  1.
         11    1    3    3    0    0 -0.14085702944E+01 -0.89444626509E-02 -0.51438200678E-01  0.14095376644E+01  0.51100000000E-03 0. -1.
        -11    1    3    3    0    0 -0.11635093219E+01  0.36688995859E+01  0.12570754100E+02  0.13146803300E+02  0.51100000000E-03 0.  1.
         12    1    3    3    0    0  0.75369798781E+01 -0.29392063044E+01 -0.44008221386E+02  0.44745598096E+02  0.00000000000E+00 0. -1.
</event>
<event>
 7    1  0.6841384E-013  0.5930196E+02  0.7816164E-02  0.1266605E+00
        -11   -1    0    0    0    0  0.00000000000E+00  0.00000000000E+00  0.45593999997E+02  0.45594000000E+02  0.51100000000E-03 0.  1.
         11   -1    0    0    0    0 -0.00000000000E+00 -0.00000000000E+00 -0.45593999997E+02  0.45594000000E+02  0.51100000000E-03 0. -1.
    9900012    2    1    2    0    0 -0.20867543616E+02  0.11215203441E+02 -0.21342073759E+02  0.59301964230E+02  0.50000036845E+02 0.  0.
        -12    1    1    2    0    0  0.20867543616E+02 -0.11215203441E+02  0.21342073759E+02  0.31886035770E+02  0.00000000000E+00 0.  1.
         11    1    3    3    0    0 -0.20451340154E+02  0.67996761020E+01 -0.36933470611E+01  0.21866269045E+02  0.51100000000E-03 0. -1.
        -11    1    3    3    0    0 -0.43039630947E+01  0.48771513012E+01  0.86636083115E+01  0.10833688770E+02  0.51100000000E-03 0.  1.
         12    1    3    3    0    0  0.38877596330E+01 -0.46162396188E+00 -0.26312335009E+02  0.26602006415E+02  0.00000000000E+00 0. -1.
</event>
<event>
 7    1  0.6841384E-013  0.5930185E+02  0.7816164E-02  0.1266605E+00
        -11   -1    0    0    0    0  0.00000000000E+00  0.00000000000E+00  0.45593999997E+02  0.45594000000E+02  0.51100000000E-03 0. -1.
         11   -1    0    0    0    0 -0.00000000000E+00 -0.00000000000E+00 -0.45593999997E+02  0.45594000000E+02  0.51100000000E-03 0.  1.
    9900012    2    1    2    0    0  0.15912171912E+02  0.39629106073E+01  0.27346380921E+02  0.59301852147E+02  0.49999832431E+02 0.  0.
        -12    1    1    2    0    0 -0.15912171912E+02 -0.39629106073E+01 -0.27346380921E+02  0.31886147853E+02  0.00000000000E+00 0.  1.
         11    1    3    3    0    0 -0.48087524715E+00  0.17191373066E+01 -0.12534628120E+02  0.12661104867E+02  0.51100000000E-03 0.  1.
        -11    1    3    3    0    0  0.49918467581E+01 -0.64111697327E+01  0.67989219879E+01  0.10594667142E+02  0.51100000000E-03 0. -1.
        -12    1    3    3    0    0  0.11401200401E+02  0.86549430334E+01  0.33082087053E+02  0.36046080138E+02  0.00000000000E+00 0.  1.
</event>
<event>
 7    1  0.6841384E-013  0.5930194E+02  0.7816164E-02  0.1266605E+00
        -11   -1    0    0    0    0  0.00000000000E+00  0.00000000000E+00  0.45593999997E+02  0.45594000000E+02  0.51100000000E-03 0. -1.
         11   -1    0    0    0    0 -0.00000000000E+00 -0.00000000000E+00 -0.45593999997E+02  0.45594000000E+02  0.51100000000E-03 0.  1.
    9900012    2    1    2    0    0 -0.20467100517E+02 -0.13454814726E+02  0.20415345425E+02  0.59301943930E+02  0.49999999821E+02 0.  0.
        -12    1    1    2    0    0  0.20467100517E+02  0.13454814726E+02 -0.20415345425E+02  0.31886056070E+02  0.00000000000E+00 0.  1.
         11    1    3    3    0    0 -0.16957602097E+02  0.11292987775E+02  0.98422875287E+01  0.22626587587E+02  0.51100000000E-03 0. -1.
        -11    1    3    3    0    0  0.84308405354E+01 -0.36602037699E+01 -0.19526292453E+01  0.93962186543E+01  0.51100000000E-03 0.  1.
        -12    1    3    3    0    0 -0.11940338956E+02 -0.21087598732E+02  0.12525687142E+02  0.27279137688E+02  0.00000000000E+00 0.  1.
</event>
<event>
 7    1  0.6841384E-013  0.5930195E+02  0.7816164E-02  0.1266605E+00
        -11   -1    0    0    0    0  0.00000000000E+00  0.00000000000E+00  0.45593999997E+02  0.45594000000E+02  0.51100000000E-03 0. -1.
         11   -1    0    0    0    0 -0.00000000000E+00 -0.00000000000E+00 -0.45593999997E+02  0.45594000000E+02  0.51100000000E-03 0.  1.
    9900012    2    1    2    0    0 -0.28517797941E+02  0.19214671780E+01 -0.14133756762E+02  0.59301954216E+02  0.50000018581E+02 0.  0.
        -12    1    1    2    0    0  0.28517797941E+02 -0.19214671780E+01  0.14133756762E+02  0.31886045784E+02  0.00000000000E+00 0.  1.
         11    1    3    3    0    0 -0.18357895653E+02 -0.49339426887E+01  0.78340025935E+01  0.20560343387E+02  0.51100000000E-03 0. -1.
        -11    1    3    3    0    0 -0.92716635516E+00 -0.11404619757E+02 -0.82845838870E+01  0.14126546630E+02  0.51100000000E-03 0.  1.
        -12    1    3    3    0    0 -0.92327359323E+01  0.18260029623E+02 -0.13683175469E+02  0.24615064200E+02  0.00000000000E+00 0.  1.
</event>
<event>
 7    1  0.6841384E-013  0.5930195E+02  0.7816164E-02  0.1266605E+00
        -11   -1    0    0    0    0  0.00000000000E+00  0.00000000000E+00  0.45593999997E+02  0.45594000000E+02  0.51100000000E-03 0. -1.
         11   -1    0    0    0    0 -0.00000000000E+00 -0.00000000000E+00 -0.45593999997E+02  0.45594000000E+02  0.51100000000E-03 0.  1.
    9900012    2    1    2    0    0 -0.25182026661E+02 -0.17555129161E+02  0.86257367954E+01  0.59301947221E+02  0.50000005823E+02 0.  0.
        -12    1    1    2    0    0  0.25182026661E+02  0.17555129161E+02 -0.86257367954E+01  0.31886052779E+02  0.00000000000E+00 0.  1.
         11    1    3    3    0    0  0.23805225565E+01 -0.10062924484E+02  0.18809049304E+02  0.21464148546E+02  0.51100000000E-03 0. -1.
        -11    1    3    3    0    0 -0.71618573263E+01  0.53518269451E+00  0.69650164265E+01  0.10004502734E+02  0.51100000000E-03 0.  1.
        -12    1    3    3    0    0 -0.20400691891E+02 -0.80273873715E+01 -0.17148328935E+02  0.27833295940E+02  0.00000000000E+00 0.  1.
</event>
<event>
 7    1  0.6841384E-013  0.5930190E+02  0.7816164E-02  0.1266605E+00
        -11   -1    0    0    0    0  0.00000000000E+00  0.00000000000E+00  0.45593999997E+02  0.45594000000E+02  0.51100000000E-03 0. -1.
         11   -1    0    0    0    0 -0.00000000000E+00 -0.00000000000E+00 -0.45593999997E+02  0.45594000000E+02  0.51100000000E-03 0.  1.
    9900012    2    1    2    0    0  0.19559769425E+02  0.20871621993E+02  0.14089510588E+02  0.59301898118E+02  0.49999916272E+02 0.  0.
        -12    1    1    2    0    0 -0.19559769425E+02 -0.20871621993E+02 -0.14089510588E+02  0.31886101882E+02  0.00000000000E+00 0.  1.
         11    1    3    3    0    0  0.54790497945E+01  0.23392030954E+02 -0.98289604462E+01  0.25957957595E+02  0.51100000000E-03 0. -1.
        -11    1    3    3    0    0 -0.12089093585E+01  0.36886050078E+01 -0.45626074182E+00  0.39083811056E+01  0.51100000000E-03 0.  1.
        -12    1    3    3    0    0  0.15289628989E+02 -0.62090139683E+01  0.24374731776E+02  0.29435559418E+02  0.00000000000E+00 0.  1.
</event>
<event>
 7    1  0.6841384E-013  0.5930192E+02  0.7816164E-02  0.1266605E+00
        -11   -1    0    0    0    0  0.00000000000E+00  0.00000000000E+00  0.45593999997E+02  0.45594000000E+02  0.51100000000E-03 0. -1.
         11   -1    0    0    0    0 -0.00000000000E+00 -0.00000000000E+00 -0.45593999997E+02  0.45594000000E+02  0.51100000000E-03 0.  1.
    9900012    2    1    2    0    0  0.12087959360E+02 -0.25382467819E+02  0.15044379242E+02  0.59301924970E+02  0.49999965243E+02 0.  0.
        -12    1    1    2    0    0 -0.12087959360E+02  0.25382467819E+02 -0.15044379242E+02  0.31886075030E+02  0.00000000000E+00 0.  1.
         11    1    3    3    0    0  0.18802765544E+02 -0.24547230367E+02  0.38910040307E+01  0.31164890877E+02  0.51100000000E-03 0. -1.
        -11    1    3    3    0    0 -0.37944201206E+01 -0.11984613238E+02  0.72158704420E+00  0.12591634788E+02  0.51100000000E-03 0.  1.
        -12    1    3    3    0    0 -0.29203860632E+01  0.11149375786E+02  0.10431788167E+02  0.15545399304E+02  0.00000000000E+00 0.  1.
</event>
<event>
 7    1  0.6841384E-013  0.5930186E+02  0.7816164E-02  0.1266605E+00
        -11   -1    0    0    0    0  0.00000000000E+00  0.00000000000E+00  0.45593999997E+02  0.45594000000E+02  0.51100000000E-03 0. -1.
         11   -1    0    0    0    0 -0.00000000000E+00 -0.00000000000E+00 -0.45593999997E+02  0.45594000000E+02  0.51100000000E-03 0.  1.
    9900012    2    1    2    0    0 -0.42261355741E+01 -0.30273113834E+02  0.90776929482E+01  0.59301856421E+02  0.49999840226E+02 0.  0.
        -12    1    1    2    0    0  0.42261355741E+01  0.30273113834E+02 -0.90776929482E+01  0.31886143579E+02  0.00000000000E+00 0.  1.
         11    1    3    3    0    0  0.37759581106E+01 -0.20557177011E+01 -0.27385815642E+01  0.50974174015E+01  0.51100000000E-03 0.  1.
        -11    1    3    3    0    0 -0.39006243146E+01 -0.30948676625E+01 -0.15847451431E+02  0.16611285110E+02  0.51100000000E-03 0. -1.
         12    1    3    3    0    0 -0.41014693701E+01 -0.25122528470E+02  0.27663725944E+02  0.37593153909E+02  0.00000000000E+00 0. -1.
</event>
<event>
 7    1  0.6841384E-013  0.5930193E+02  0.7816164E-02  0.1266605E+00
        -11   -1    0    0    0    0  0.00000000000E+00  0.00000000000E+00  0.45593999997E+02  0.45594000000E+02  0.51100000000E-03 0. -1.
         11   -1    0    0    0    0 -0.00000000000E+00 -0.00000000000E+00 -0.45593999997E+02  0.45594000000E+02  0.51100000000E-03 0.  1.
    9900012    2    1    2    0    0 -0.21324294227E+02 -0.26585615168E+01  0.23556904278E+02  0.59301933877E+02  0.49999981488E+02 0.  0.
        -12    1    1    2    0    0  0.21324294227E+02  0.26585615168E+01 -0.23556904278E+02  0.31886066123E+02  0.00000000000E+00 0.  1.
         11    1    3    3    0    0 -0.12769163825E+02  0.12920950400E+01  0.43162764338E+01  0.13540727340E+02  0.51100000000E-03 0. -1.
        -11    1    3    3    0    0  0.27556333964E+01  0.16231520254E+02  0.13572029579E+01  0.16519617589E+02  0.51100000000E-03 0.  1.
         12    1    3    3    0    0 -0.11310763798E+02 -0.20182176811E+02  0.17883424887E+02  0.29241588948E+02  0.00000000000E+00 0. -1.
</event>
<event>
 7    1  0.6841384E-013  0.5930192E+02  0.7816164E-02  0.1266605E+00
        -11   -1    0    0    0    0  0.00000000000E+00  0.00000000000E+00  0.45593999997E+02  0.45594000000E+02  0.51100000000E-03 0.  1.
         11   -1    0    0    0    0 -0.00000000000E+00 -0.00000000000E+00 -0.45593999997E+02  0.45594000000E+02  0.51100000000E-03 0. -1.
    9900012    2    1    2    0    0 -0.71715985515E+01  0.28518016689E+02 -0.12329358631E+02  0.59301918617E+02  0.49999953658E+02 0.  0.
        -12    1    1    2    0    0  0.71715985515E+01 -0.28518016689E+02  0.12329358631E+02  0.31886081383E+02  0.00000000000E+00 0.  1.
         11    1    3    3    0    0 -0.10538699697E+02 -0.15460527201E+01 -0.29394543915E+01  0.11049654416E+02  0.51100000000E-03 0. -1.
        -11    1    3    3    0    0 -0.78138847743E+01  0.13797781788E+01  0.93092003282E+01  0.12231998778E+02  0.51100000000E-03 0.  1.
         12    1    3    3    0    0  0.11180985920E+02  0.28684291231E+02 -0.18699104568E+02  0.36020265424E+02  0.00000000000E+00 0. -1.
</event>
<event>
 7    1  0.6841384E-013  0.5930194E+02  0.7816164E-02  0.1266605E+00
        -11   -1    0    0    0    0  0.00000000000E+00  0.00000000000E+00  0.45593999997E+02  0.45594000000E+02  0.51100000000E-03 0.  1.
         11   -1    0    0    0    0 -0.00000000000E+00 -0.00000000000E+00 -0.45593999997E+02  0.45594000000E+02  0.51100000000E-03 0. -1.
    9900012    2    1    2    0    0 -0.26458603860E+02  0.10778855772E+02 -0.14159082049E+02  0.59301936360E+02  0.49999986016E+02 0.  0.
        -12    1    1    2    0    0  0.26458603860E+02 -0.10778855772E+02  0.14159082049E+02  0.31886063640E+02  0.00000000000E+00 0.  1.
         11    1    3    3    0    0 -0.27069633183E+02  0.14102853373E+02 -0.10525398594E+01  0.30541174737E+02  0.51100000000E-03 0. -1.
        -11    1    3    3    0    0 -0.62174367668E+01  0.86927145085E+01 -0.16611989175E+01  0.10815700975E+02  0.51100000000E-03 0.  1.
        -12    1    3    3    0    0  0.68284660895E+01 -0.12016712109E+02 -0.11445343272E+02  0.17945060648E+02  0.00000000000E+00 0.  1.
</event>
<event>
 7    1  0.6841384E-013  0.5930194E+02  0.7816164E-02  0.1266605E+00
        -11   -1    0    0    0    0  0.00000000000E+00  0.00000000000E+00  0.45593999997E+02  0.45594000000E+02  0.51100000000E-03 0.  1.
         11   -1    0    0    0    0 -0.00000000000E+00 -0.00000000000E+00 -0.45593999997E+02  0.45594000000E+02  0.51100000000E-03 0. -1.
    9900012    2    1    2    0    0 -0.74768822602E+01  0.21063570921E+02 -0.22740774658E+02  0.59301943168E+02  0.49999998432E+02 0.  0.
        -12    1    1    2    0    0  0.74768822602E+01 -0.21063570921E+02  0.22740774658E+02  0.31886056832E+02  0.00000000000E+00 0.  1.
         11    1    3    3    0    0  0.78448191243E+01  0.10071649938E+02 -0.80431173721E+01  0.15088772544E+02  0.51100000000E-03 0. -1.
        -11    1    3    3    0    0  0.19829946084E+01 -0.79253687825E+01  0.68975059407E+01  0.10692021625E+02  0.51100000000E-03 0.  1.
         12    1    3    3    0    0 -0.17304695993E+02  0.18917289765E+02 -0.21595163226E+02  0.33521148999E+02  0.00000000000E+00 0. -1.
</event>
<event>
 7    1  0.6841384E-013  0.5930194E+02  0.7816164E-02  0.1266605E+00
        -11   -1    0    0    0    0  0.00000000000E+00  0.00000000000E+00  0.45593999997E+02  0.45594000000E+02  0.51100000000E-03 0.  1.
         11   -1    0    0    0    0 -0.00000000000E+00 -0.00000000000E+00 -0.45593999997E+02  0.45594000000E+02  0.51100000000E-03 0. -1.
    9900012    2    1    2    0    0  0.62712981421E+01  0.21694592750E+02 -0.22510804979E+02  0.59301939162E+02  0.49999991125E+02 0.  0.
        -12    1    1    2    0    0 -0.62712981421E+01 -0.21694592750E+02  0.22510804979E+02  0.31886060838E+02  0.00000000000E+00 0.  1.
         11    1    3    3    0    0  0.15730124498E+02  0.52350330860E+01 -0.11332562851E+02  0.20081567897E+02  0.51100000000E-03 0. -1.
        -11    1    3    3    0    0 -0.71906441278E+01 -0.30608094650E+01  0.84051313786E+01  0.11476939980E+02  0.51100000000E-03 0.  1.
         12    1    3    3    0    0 -0.22681822286E+01  0.19520369129E+02 -0.19583373506E+02  0.27743431285E+02  0.00000000000E+00 0. -1.
</event>
<event>
 7    1  0.6841384E-013  0.5930194E+02  0.7816164E-02  0.1266605E+00
        -11   -1    0    0    0    0  0.00000000000E+00  0.00000000000E+00  0.45593999997E+02  0.45594000000E+02  0.51100000000E-03 0. -1.
         11   -1    0    0    0    0 -0.00000000000E+00 -0.00000000000E+00 -0.45593999997E+02  0.45594000000E+02  0.51100000000E-03 0.  1.
    9900012    2    1    2    0    0 -0.15371715583E+02 -0.19439114405E+02  0.20063705546E+02  0.59301935817E+02  0.49999985026E+02 0.  0.
        -12    1    1    2    0    0  0.15371715583E+02  0.19439114405E+02 -0.20063705546E+02  0.31886064183E+02  0.00000000000E+00 0.  1.
         11    1    3    3    0    0 -0.27618086100E+01  0.14060927745E+01  0.17335776450E+02  0.17610616942E+02  0.51100000000E-03 0. -1.
        -11    1    3    3    0    0  0.88633119587E+01  0.30971592454E+01  0.14904410853E+01  0.95064246254E+01  0.51100000000E-03 0.  1.
         12    1    3    3    0    0 -0.21473218932E+02 -0.23942366425E+02  0.12374880112E+01  0.32184894250E+02  0.00000000000E+00 0. -1.
</event>
<event>
 7    1  0.6841384E-013  0.5930209E+02  0.7816164E-02  0.1266604E+00
        -11   -1    0    0    0    0  0.00000000000E+00  0.00000000000E+00  0.45593999997E+02  0.45594000000E+02  0.51100000000E-03 0.  1.
         11   -1    0    0    0    0 -0.00000000000E+00 -0.00000000000E+00 -0.45593999997E+02  0.45594000000E+02  0.51100000000E-03 0. -1.
    9900012    2    1    2    0    0 -0.11971934697E+02  0.28823727570E+02 -0.65250952522E+01  0.59302088386E+02  0.50000263274E+02 0.  0.
        -12    1    1    2    0    0  0.11971934697E+02 -0.28823727570E+02  0.65250952522E+01  0.31885911614E+02  0.00000000000E+00 0.  1.
         11    1    3    3    0    0  0.11625388257E+02  0.70573682896E+01 -0.13143379340E+02  0.18913078016E+02  0.51100000000E-03 0. -1.
        -11    1    3    3    0    0 -0.40296376292E+01  0.17295325892E+02 -0.31996788290E+01  0.18044506698E+02  0.51100000000E-03 0.  1.
        -12    1    3    3    0    0 -0.19567685324E+02  0.44710333890E+01  0.98179629165E+01  0.22344503672E+02  0.00000000000E+00 0.  1.
</event>
<event>
 7    1  0.6841384E-013  0.5930190E+02  0.7816164E-02  0.1266605E+00
        -11   -1    0    0    0    0  0.00000000000E+00  0.00000000000E+00  0.45593999997E+02  0.45594000000E+02  0.51100000000E-03 0.  1.
         11   -1    0    0    0    0 -0.00000000000E+00 -0.00000000000E+00 -0.45593999997E+02  0.45594000000E+02  0.51100000000E-03 0. -1.
    9900012    2    1    2    0    0 -0.49936928133E+01  0.66315985039E+01 -0.30786494805E+02  0.59301900693E+02  0.49999920968E+02 0.  0.
        -12    1    1    2    0    0  0.49936928133E+01 -0.66315985039E+01  0.30786494805E+02  0.31886099307E+02  0.00000000000E+00 0.  1.
         11    1    3    3    0    0 -0.25130088030E+02 -0.29971778583E+01 -0.13939541613E+02  0.28893169092E+02  0.51100000000E-03 0. -1.
        -11    1    3    3    0    0  0.39756322059E+01 -0.97970129138E+00  0.87070355209E+00  0.41861188461E+01  0.51100000000E-03 0.  1.
        -12    1    3    3    0    0  0.16160763011E+02  0.10608477654E+02 -0.17717656744E+02  0.26222612755E+02  0.00000000000E+00 0.  1.
</event>
<event>
 7    1  0.6841384E-013  0.5930194E+02  0.7816164E-02  0.1266605E+00
        -11   -1    0    0    0    0  0.00000000000E+00  0.00000000000E+00  0.45593999997E+02  0.45594000000E+02  0.51100000000E-03 0.  1.
         11   -1    0    0    0    0 -0.00000000000E+00 -0.00000000000E+00 -0.45593999997E+02  0.45594000000E+02  0.51100000000E-03 0. -1.
    9900012    2    1    2    0    0  0.23963290813E+02  0.21010655595E+01 -0.20930053298E+02  0.59301938560E+02  0.49999990028E+02 0.  0.
        -12    1    1    2    0    0 -0.23963290813E+02 -0.21010655595E+01  0.20930053298E+02  0.31886061440E+02  0.00000000000E+00 0.  1.
         11    1    3    3    0    0  0.99695921547E+00  0.55458486532E+01 -0.13498090078E+02  0.14626988787E+02  0.51100000000E-03 0. -1.
        -11    1    3    3    0    0  0.32095043017E+02  0.38395707517E+01 -0.45183699501E+01  0.32638164120E+02  0.51100000000E-03 0.  1.
         12    1    3    3    0    0 -0.91287114193E+01 -0.72843538454E+01 -0.29135932705E+01  0.12036785653E+02  0.00000000000E+00 0. -1.
</event>
<event>
 7    1  0.6841384E-013  0.5930186E+02  0.7816164E-02  0.1266605E+00
        -11   -1    0    0    0    0  0.00000000000E+00  0.00000000000E+00  0.45593999997E+02  0.45594000000E+02  0.51100000000E-03 0.  1.
         11   -1    0    0    0    0 -0.00000000000E+00 -0.00000000000E+00 -0.45593999997E+02  0.45594000000E+02  0.51100000000E-03 0. -1.
    9900012    2    1    2    0    0 -0.26347018746E+01  0.95983277480E+01 -0.30292843445E+02  0.59301860166E+02  0.49999847057E+02 0.  0.
        -12    1    1    2    0    0  0.26347018746E+01 -0.95983277480E+01  0.30292843445E+02  0.31886139834E+02  0.00000000000E+00 0.  1.
         11    1    3    3    0    0 -0.95576867742E+01 -0.11736019754E+02 -0.95254092134E+01  0.17883426883E+02  0.51100000000E-03 0. -1.
        -11    1    3    3    0    0  0.11760700465E+02  0.73654667266E+01  0.22547302382E+01  0.14058733379E+02  0.51100000000E-03 0.  1.
         12    1    3    3    0    0 -0.48377155651E+01  0.13968880775E+02 -0.23022164469E+02  0.27359699904E+02  0.00000000000E+00 0. -1.
</event>
<event>
 7    1  0.6841384E-013  0.5930194E+02  0.7816164E-02  0.1266605E+00
        -11   -1    0    0    0    0  0.00000000000E+00  0.00000000000E+00  0.45593999997E+02  0.45594000000E+02  0.51100000000E-03 0.  1.
         11   -1    0    0    0    0 -0.00000000000E+00 -0.00000000000E+00 -0.45593999997E+02  0.45594000000E+02  0.51100000000E-03 0. -1.
    9900012    2    1    2    0    0  0.33478215309E+01  0.10764293368E+02 -0.29826884752E+02  0.59301937610E+02  0.49999988295E+02 0.  0.
        -12    1    1    2    0    0 -0.33478215309E+01 -0.10764293368E+02  0.29826884752E+02  0.31886062390E+02  0.00000000000E+00 0.  1.
         11    1    3    3    0    0  0.78744060488E+01  0.10649479130E+02 -0.33888045025E+02  0.36384299804E+02  0.51100000000E-03 0. -1.
        -11    1    3    3    0    0 -0.83349624259E+01  0.25812077400E+01 -0.68549292119E+01  0.11096138373E+02  0.51100000000E-03 0.  1.
        -12    1    3    3    0    0  0.38083779080E+01 -0.24663935018E+01  0.10916089485E+02  0.11821499432E+02  0.00000000000E+00 0.  1.
</event>
<event>
 7    1  0.6841384E-013  0.5930171E+02  0.7816164E-02  0.1266606E+00
        -11   -1    0    0    0    0  0.00000000000E+00  0.00000000000E+00  0.45593999997E+02  0.45594000000E+02  0.51100000000E-03 0.  1.
         11   -1    0    0    0    0 -0.00000000000E+00 -0.00000000000E+00 -0.45593999997E+02  0.45594000000E+02  0.51100000000E-03 0. -1.
    9900012    2    1    2    0    0  0.90583525317E+01 -0.30384541180E+02 -0.33854525512E+01  0.59301711688E+02  0.49999576267E+02 0.  0.
        -12    1    1    2    0    0 -0.90583525317E+01  0.30384541180E+02  0.33854525512E+01  0.31886288312E+02  0.00000000000E+00 0.  1.
         11    1    3    3    0    0 -0.92716797128E+01 -0.88467882240E+01  0.86714493047E+00  0.12844518176E+02  0.51100000000E-03 0. -1.
        -11    1    3    3    0    0  0.58126132376E+01 -0.25723013168E+02  0.88914039290E+01  0.27830144505E+02  0.51100000000E-03 0.  1.
        -12    1    3    3    0    0  0.12517419007E+02  0.41852602122E+01 -0.13144001411E+02  0.18627049007E+02  0.00000000000E+00 0.  1.
</event>
<event>
 7    1  0.6841384E-013  0.5930195E+02  0.7816164E-02  0.1266605E+00
        -11   -1    0    0    0    0  0.00000000000E+00  0.00000000000E+00  0.45593999997E+02  0.45594000000E+02  0.51100000000E-03 0. -1.
         11   -1    0    0    0    0 -0.00000000000E+00 -0.00000000000E+00 -0.45593999997E+02  0.45594000000E+02  0.51100000000E-03 0.  1.
    9900012    2    1    2    0    0  0.13974288410E+02 -0.28583023676E+02 -0.21095530200E+01  0.59301949868E+02  0.50000010652E+02 0.  0.
        -12    1    1    2    0    0 -0.13974288410E+02  0.28583023676E+02  0.21095530200E+01  0.31886050132E+02  0.00000000000E+00 0.  1.
         11    1    3    3    0    0  0.20148697320E+02 -0.78583590325E+00  0.12895424097E+01  0.20205208775E+02  0.51100000000E-03 0. -1.
        -11    1    3    3    0    0  0.51419520962E+01 -0.24555560443E+01  0.73796934577E+01  0.93235885064E+01  0.51100000000E-03 0.  1.
        -12    1    3    3    0    0 -0.11316361006E+02 -0.25341631729E+02 -0.10778788887E+02  0.29773152587E+02  0.00000000000E+00 0.  1.
</event>
<event>
 7    1  0.6841384E-013  0.5930195E+02  0.7816164E-02  0.1266605E+00
        -11   -1    0    0    0    0  0.00000000000E+00  0.00000000000E+00  0.45593999997E+02  0.45594000000E+02  0.51100000000E-03 0. -1.
         11   -1    0    0    0    0 -0.00000000000E+00 -0.00000000000E+00 -0.45593999997E+02  0.45594000000E+02  0.51100000000E-03 0.  1.
    9900012    2    1    2    0    0 -0.17103141229E+02  0.16291514829E+02 -0.21419362739E+02  0.59301952966E+02  0.50000016302E+02 0.  0.
        -12    1    1    2    0    0  0.17103141229E+02 -0.16291514829E+02  0.21419362739E+02  0.31886047034E+02  0.00000000000E+00 0.  1.
         11    1    3    3    0    0  0.15619902025E+02  0.42907037926E+01 -0.20695843368E+01  0.16330176297E+02  0.51100000000E-03 0. -1.
        -11    1    3    3    0    0 -0.13105313406E+02  0.12856251857E+02 -0.63651419894E+01  0.19430581157E+02  0.51100000000E-03 0.  1.
        -12    1    3    3    0    0 -0.19617729848E+02 -0.85544082093E+00 -0.12984636413E+02  0.23541195512E+02  0.00000000000E+00 0.  1.
</event>
<event>
 7    1  0.6841384E-013  0.5930203E+02  0.7816164E-02  0.1266604E+00
        -11   -1    0    0    0    0  0.00000000000E+00  0.00000000000E+00  0.45593999997E+02  0.45594000000E+02  0.51100000000E-03 0.  1.
         11   -1    0    0    0    0 -0.00000000000E+00 -0.00000000000E+00 -0.45593999997E+02  0.45594000000E+02  0.51100000000E-03 0. -1.
    9900012    2    1    2    0    0  0.25707495707E+02  0.14828895736E+01 -0.18805343936E+02  0.59302027260E+02  0.50000151796E+02 0.  0.
        -12    1    1    2    0    0 -0.25707495707E+02 -0.14828895736E+01  0.18805343936E+02  0.31885972740E+02  0.00000000000E+00 0.  1.
         11    1    3    3    0    0  0.20910516090E+02 -0.47083217916E+01  0.16945614975E+01  0.21500918961E+02  0.51100000000E-03 0. -1.
        -11    1    3    3    0    0  0.20518705687E+01 -0.12488832491E+02 -0.10446461982E+02  0.16410657453E+02  0.51100000000E-03 0.  1.
         12    1    3    3    0    0  0.27451090483E+01  0.18680043857E+02 -0.10053443451E+02  0.21390450846E+02  0.00000000000E+00 0. -1.
</event>
<event>
 7    1  0.6841384E-013  0.5930192E+02  0.7816164E-02  0.1266605E+00
        -11   -1    0    0    0    0  0.00000000000E+00  0.00000000000E+00  0.45593999997E+02  0.45594000000E+02  0.51100000000E-03 0.  1.
         11   -1    0    0    0    0 -0.00000000000E+00 -0.00000000000E+00 -0.45593999997E+02  0.45594000000E+02  0.51100000000E-03 0. -1.
    9900012    2    1    2    0    0 -0.56680141225E+01  0.20715291011E+02 -0.23568465006E+02  0.59301918264E+02  0.49999953013E+02 0.  0.
        -12    1    1    2    0    0  0.56680141225E+01 -0.20715291011E+02  0.23568465006E+02  0.31886081736E+02  0.00000000000E+00 0.  1.
         11    1    3    3    0    0 -0.11275938634E+02  0.10209286609E+02 -0.18931828881E+02  0.24285602117E+02  0.51100000000E-03 0. -1.
        -11    1    3    3    0    0 -0.10416075533E+02  0.11339891994E+02  0.51326758645E+01  0.16230592772E+02  0.51100000000E-03 0.  1.
        -12    1    3    3    0    0  0.16024000044E+02 -0.83388759296E+00 -0.97693119896E+01  0.18785723374E+02  0.00000000000E+00 0.  1.
</event>
<event>
 7    1  0.6841384E-013  0.5930194E+02  0.7816164E-02  0.1266605E+00
        -11   -1    0    0    0    0  0.00000000000E+00  0.00000000000E+00  0.45593999997E+02  0.45594000000E+02  0.51100000000E-03 0. -1.
         11   -1    0    0    0    0 -0.00000000000E+00 -0.00000000000E+00 -0.45593999997E+02  0.45594000000E+02  0.51100000000E-03 0.  1.
    9900012    2    1    2    0    0  0.29223705551E+02 -0.82236068973E+01  0.97502811967E+01  0.59301942547E+02  0.49999997299E+02 0.  0.
        -12    1    1    2    0    0 -0.29223705551E+02  0.82236068973E+01 -0.97502811967E+01  0.31886057453E+02  0.00000000000E+00 0.  1.
         11    1    3    3    0    0  0.20625928077E+02 -0.22179196688E+01  0.75330237978E+01  0.22070218043E+02  0.51100000000E-03 0. -1.
        -11    1    3    3    0    0  0.20745417188E+02 -0.41041143305E+01  0.92332249291E+01  0.23075279664E+02  0.51100000000E-03 0.  1.
        -12    1    3    3    0    0 -0.12147639714E+02 -0.19015728980E+01 -0.70159675301E+01  0.14156444839E+02  0.00000000000E+00 0.  1.
</event>
<event>
 7    1  0.6841384E-013  0.5930193E+02  0.7816164E-02  0.1266605E+00
        -11   -1    0    0    0    0  0.00000000000E+00  0.00000000000E+00  0.45593999997E+02  0.45594000000E+02  0.51100000000E-03 0. -1.
         11   -1    0    0    0    0 -0.00000000000E+00 -0.00000000000E+00 -0.45593999997E+02  0.45594000000E+02  0.51100000000E-03 0.  1.
    9900012    2    1    2    0    0 -0.21130151562E+01  0.28240768749E+02  0.14653179283E+02  0.59301929128E+02  0.49999972826E+02 0.  0.
        -12    1    1    2    0    0  0.21130151562E+01 -0.28240768749E+02 -0.14653179283E+02  0.31886070872E+02  0.00000000000E+00 0.  1.
         11    1    3    3    0    0  0.78704576102E+00  0.53092029883E+01 -0.11647789366E+02  0.12824900576E+02  0.51100000000E-03 0. -1.
        -11    1    3    3    0    0  0.62939688962E+01 -0.38975322690E+01 -0.54795568758E+00  0.74232781136E+01  0.51100000000E-03 0.  1.
         12    1    3    3    0    0 -0.91940298135E+01  0.26829098029E+02  0.26848924337E+02  0.39053750438E+02  0.00000000000E+00 0. -1.
</event>
<event>
 7    1  0.6841384E-013  0.5930218E+02  0.7816164E-02  0.1266604E+00
        -11   -1    0    0    0    0  0.00000000000E+00  0.00000000000E+00  0.45593999997E+02  0.45594000000E+02  0.51100000000E-03 0.  1.
         11   -1    0    0    0    0 -0.00000000000E+00 -0.00000000000E+00 -0.45593999997E+02  0.45594000000E+02  0.51100000000E-03 0. -1.
    9900012    2    1    2    0    0 -0.15545244457E+02 -0.15403120383E+02 -0.23190399811E+02  0.59302182053E+02  0.50000434099E+02 0.  0.
        -12    1    1    2    0    0  0.15545244457E+02  0.15403120383E+02  0.23190399811E+02  0.31885817947E+02  0.00000000000E+00 0.  1.
         11    1    3    3    0    0  0.69717915130E+01  0.38581362517E+01  0.17916630908E+01  0.81670771473E+01  0.51100000000E-03 0. -1.
        -11    1    3    3    0    0  0.25199753483E+01  0.26754733630E+01  0.50880102391E+01  0.62766457544E+01  0.51100000000E-03 0.  1.
         12    1    3    3    0    0 -0.25037011318E+02 -0.21936729998E+02 -0.30070073141E+02  0.44858459151E+02  0.00000000000E+00 0. -1.
</event>
<event>
 7    1  0.6841384E-013  0.5930194E+02  0.7816164E-02  0.1266605E+00
        -11   -1    0    0    0    0  0.00000000000E+00  0.00000000000E+00  0.45593999997E+02  0.45594000000E+02  0.51100000000E-03 0. -1.
         11   -1    0    0    0    0 -0.00000000000E+00 -0.00000000000E+00 -0.45593999997E+02  0.45594000000E+02  0.51100000000E-03 0.  1.
    9900012    2    1    2    0    0 -0.19454458304E+02  0.23294459080E+01  0.25155887916E+02  0.59301937794E+02  0.49999988632E+02 0.  0.
        -12    1    1    2    0    0  0.19454458304E+02 -0.23294459080E+01 -0.25155887916E+02  0.31886062206E+02  0.00000000000E+00 0.  1.
         11    1    3    3    0    0 -0.17553125693E+02  0.76061566784E+01  0.76969445401E+01  0.20620591566E+02  0.51100000000E-03 0. -1.
        -11    1    3    3    0    0 -0.14155799388E+02  0.81525798282E+01  0.84365704813E+01  0.18385508856E+02  0.51100000000E-03 0.  1.
        -12    1    3    3    0    0  0.12254466777E+02 -0.13429290599E+02  0.90223728945E+01  0.20295837372E+02  0.00000000000E+00 0.  1.
</event>
<event>
 7    1  0.6841384E-013  0.5930206E+02  0.7816164E-02  0.1266604E+00
        -11   -1    0    0    0    0  0.00000000000E+00  0.00000000000E+00  0.45593999997E+02  0.45594000000E+02  0.51100000000E-03 0. -1.
         11   -1    0    0    0    0 -0.00000000000E+00 -0.00000000000E+00 -0.45593999997E+02  0.45594000000E+02  0.51100000000E-03 0.  1.
    9900012    2    1    2    0    0  0.26944888211E+02 -0.15360243292E+02  0.73992550269E+01  0.59302061882E+02  0.50000214938E+02 0.  0.
        -12    1    1    2    0    0 -0.26944888211E+02  0.15360243292E+02 -0.73992550269E+01  0.31885938118E+02  0.00000000000E+00 0.  1.
         11    1    3    3    0    0 -0.23768707920E+01 -0.31927056520E+01  0.29676074252E+01  0.49648341597E+01  0.51100000000E-03 0. -1.
        -11    1    3    3    0    0 -0.67865949790E+01 -0.14485992517E+02  0.81689745712E+01  0.17962015377E+02  0.51100000000E-03 0.  1.
         12    1    3    3    0    0  0.36108353982E+02  0.23184548769E+01 -0.37373269696E+01  0.36375212345E+02  0.00000000000E+00 0. -1.
</event>
<event>
 7    1  0.6841384E-013  0.5930205E+02  0.7816164E-02  0.1266604E+00
        -11   -1    0    0    0    0  0.00000000000E+00  0.00000000000E+00  0.45593999997E+02  0.45594000000E+02  0.51100000000E-03 0.  1.
         11   -1    0    0    0    0 -0.00000000000E+00 -0.00000000000E+00 -0.45593999997E+02  0.45594000000E+02  0.51100000000E-03 0. -1.
    9900012    2    1    2    0    0 -0.29375442173E+02  0.11767247630E+02  0.39152074664E+01  0.59302053736E+02  0.50000200080E+02 0.  0.
        -12    1    1    2    0    0  0.29375442173E+02 -0.11767247630E+02 -0.39152074664E+01  0.31885946264E+02  0.00000000000E+00 0.  1.
         11    1    3    3    0    0  0.65891573477E+01 -0.74941791825E+00  0.15108336692E+01  0.68015616153E+01  0.51100000000E-03 0. -1.
        -11    1    3    3    0    0  0.24327653688E+01 -0.79579407899E+01  0.33616025227E+01  0.89748281732E+01  0.51100000000E-03 0.  1.
        -12    1    3    3    0    0 -0.38397364890E+02  0.20474606339E+02 -0.95722872560E+00  0.43525663947E+02  0.00000000000E+00 0.  1.
</event>
<event>
 7    1  0.6841384E-013  0.5930205E+02  0.7816164E-02  0.1266604E+00
        -11   -1    0    0    0    0  0.00000000000E+00  0.00000000000E+00  0.45593999997E+02  0.45594000000E+02  0.51100000000E-03 0. -1.
         11   -1    0    0    0    0 -0.00000000000E+00 -0.00000000000E+00 -0.45593999997E+02  0.45594000000E+02  0.51100000000E-03 0.  1.
    9900012    2    1    2    0    0  0.17988902080E+02 -0.25650258293E+02  0.59310332704E+01  0.59302054755E+02  0.50000201939E+02 0.  0.
        -12    1    1    2    0    0 -0.17988902080E+02  0.25650258293E+02 -0.59310332704E+01  0.31885945245E+02  0.00000000000E+00 0.  1.
         11    1    3    3    0    0  0.28245884150E+02 -0.31449775221E+02  0.40387165629E+01  0.42464450598E+02  0.51100000000E-03 0. -1.
        -11    1    3    3    0    0  0.22431110712E+01 -0.55381951346E+00 -0.10046589884E+01  0.25194450332E+01  0.51100000000E-03 0.  1.
         12    1    3    3    0    0 -0.12500093142E+02  0.63533364416E+01  0.28969756959E+01  0.14318159123E+02  0.00000000000E+00 0. -1.
</event>
<event>
 7    1  0.6841384E-013  0.5930171E+02  0.7816164E-02  0.1266606E+00
        -11   -1    0    0    0    0  0.00000000000E+00  0.00000000000E+00  0.45593999997E+02  0.45594000000E+02  0.51100000000E-03 0.  1.
         11   -1    0    0    0    0 -0.00000000000E+00 -0.00000000000E+00 -0.45593999997E+02  0.45594000000E+02  0.51100000000E-03 0. -1.
    9900012    2    1    2    0    0  0.13295064454E+02  0.25854081754E+02 -0.13097452505E+02  0.59301709148E+02  0.49999571634E+02 0.  0.
        -12    1    1    2    0    0 -0.13295064454E+02 -0.25854081754E+02  0.13097452505E+02  0.31886290852E+02  0.00000000000E+00 0.  1.
         11    1    3    3    0    0  0.37665767236E+01  0.13677609114E+02 -0.14928782481E+02  0.20594480764E+02  0.51100000000E-03 0. -1.
        -11    1    3    3    0    0  0.16744817797E+02 -0.43491755560E+01 -0.69573857026E+01  0.18646969383E+02  0.51100000000E-03 0.  1.
        -12    1    3    3    0    0 -0.72163300668E+01  0.16525648196E+02  0.87887156788E+01  0.20060259002E+02  0.00000000000E+00 0.  1.
</event>
<event>
 7    1  0.6841384E-013  0.5930193E+02  0.7816164E-02  0.1266605E+00
        -11   -1    0    0    0    0  0.00000000000E+00  0.00000000000E+00  0.45593999997E+02  0.45594000000E+02  0.51100000000E-03 0.  1.
         11   -1    0    0    0    0 -0.00000000000E+00 -0.00000000000E+00 -0.45593999997E+02  0.45594000000E+02  0.51100000000E-03 0. -1.
    9900012    2    1    2    0    0  0.20225913010E+02 -0.10004944950E+02 -0.22528536220E+02  0.59301930554E+02  0.49999975427E+02 0.  0.
        -12    1    1    2    0    0 -0.20225913010E+02  0.10004944950E+02  0.22528536220E+02  0.31886069446E+02  0.00000000000E+00 0.  1.
         11    1    3    3    0    0  0.10785309508E+02  0.51614713012E+01 -0.30783406938E+02  0.33023958426E+02  0.51100000000E-03 0. -1.
        -11    1    3    3    0    0 -0.10514531127E+01  0.92819466871E+00 -0.34890785200E+01  0.37604212757E+01  0.51100000000E-03 0.  1.
        -12    1    3    3    0    0  0.10492056615E+02 -0.16094610920E+02  0.11743949238E+02  0.22517550852E+02  0.00000000000E+00 0.  1.
</event>
<event>
 7    1  0.6841384E-013  0.5930190E+02  0.7816164E-02  0.1266605E+00
        -11   -1    0    0    0    0  0.00000000000E+00  0.00000000000E+00  0.45593999997E+02  0.45594000000E+02  0.51100000000E-03 0. -1.
         11   -1    0    0    0    0 -0.00000000000E+00 -0.00000000000E+00 -0.45593999997E+02  0.45594000000E+02  0.51100000000E-03 0.  1.
    9900012    2    1    2    0    0  0.21451099487E+02 -0.79407807501E+01  0.22215252603E+02  0.59301904028E+02  0.49999927050E+02 0.  0.
        -12    1    1    2    0    0 -0.21451099487E+02  0.79407807501E+01 -0.22215252603E+02  0.31886095972E+02  0.00000000000E+00 0.  1.
         11    1    3    3    0    0  0.92382717092E+01  0.35585186997E+00 -0.84209481169E+01  0.12505385327E+02  0.51100000000E-03 0. -1.
        -11    1    3    3    0    0  0.58232992431E+01  0.12379010094E+02  0.13129868120E+02  0.18961649245E+02  0.51100000000E-03 0.  1.
         12    1    3    3    0    0  0.63895285351E+01 -0.20675642714E+02  0.17506332599E+02  0.27834869456E+02  0.00000000000E+00 0. -1.
</event>
<event>
 7    1  0.6841384E-013  0.5930199E+02  0.7816164E-02  0.1266605E+00
        -11   -1    0    0    0    0  0.00000000000E+00  0.00000000000E+00  0.45593999997E+02  0.45594000000E+02  0.51100000000E-03 0.  1.
         11   -1    0    0    0    0 -0.00000000000E+00 -0.00000000000E+00 -0.45593999997E+02  0.45594000000E+02  0.51100000000E-03 0. -1.
    9900012    2    1    2    0    0  0.27461116080E+02 -0.13116924732E+02 -0.95158389240E+01  0.59301987373E+02  0.50000079052E+02 0.  0.
        -12    1    1    2    0    0 -0.27461116080E+02  0.13116924732E+02  0.95158389240E+01  0.31886012627E+02  0.00000000000E+00 0.  1.
         11    1    3    3    0    0 -0.54511731157E+01 -0.11519988548E+00 -0.21249934516E+01  0.58518507142E+01  0.51100000000E-03 0.  1.
        -11    1    3    3    0    0  0.90848524827E+01 -0.19745711420E+02 -0.16262129115E+02  0.27145616731E+02  0.51100000000E-03 0. -1.
         12    1    3    3    0    0  0.23827436713E+02  0.67439865726E+01  0.88712836422E+01  0.26304519928E+02  0.00000000000E+00 0. -1.
</event>
<event>
 7    1  0.6841384E-013  0.5930195E+02  0.7816164E-02  0.1266605E+00
        -11   -1    0    0    0    0  0.00000000000E+00  0.00000000000E+00  0.45593999997E+02  0.45594000000E+02  0.51100000000E-03 0.  1.
         11   -1    0    0    0    0 -0.00000000000E+00 -0.00000000000E+00 -0.45593999997E+02  0.45594000000E+02  0.51100000000E-03 0. -1.
    9900012    2    1    2    0    0  0.66190115294E+01  0.66739822587E+01 -0.30469112309E+02  0.59301950422E+02  0.50000011662E+02 0.  0.
        -12    1    1    2    0    0 -0.66190115294E+01 -0.66739822587E+01  0.30469112309E+02  0.31886049578E+02  0.00000000000E+00 0.  1.
         11    1    3    3    0    0 -0.34706341061E+01  0.39057170703E+01  0.56855489315E+01  0.77217481082E+01  0.51100000000E-03 0.  1.
        -11    1    3    3    0    0  0.55408845724E+01  0.54550744464E+01  0.55431045337E+01  0.95490966689E+01  0.51100000000E-03 0. -1.
         12    1    3    3    0    0  0.45487610632E+01 -0.26868092579E+01 -0.41697765774E+02  0.42031105645E+02  0.00000000000E+00 0. -1.
</event>
<event>
 7    1  0.6841384E-013  0.5930191E+02  0.7816164E-02  0.1266605E+00
        -11   -1    0    0    0    0  0.00000000000E+00  0.00000000000E+00  0.45593999997E+02  0.45594000000E+02  0.51100000000E-03 0.  1.
         11   -1    0    0    0    0 -0.00000000000E+00 -0.00000000000E+00 -0.45593999997E+02  0.45594000000E+02  0.51100000000E-03 0. -1.
    9900012    2    1    2    0    0  0.99164374729E+01 -0.18115764269E+02 -0.24294158529E+02  0.59301909211E+02  0.49999936503E+02 0.  0.
        -12    1    1    2    0    0 -0.99164374729E+01  0.18115764269E+02  0.24294158529E+02  0.31886090789E+02  0.00000000000E+00 0.  1.
         11    1    3    3    0    0  0.86146012614E+00 -0.12194027753E+02  0.20645617085E+01  0.12397533694E+02  0.51100000000E-03 0. -1.
        -11    1    3    3    0    0 -0.63572680804E+01 -0.17270534879E+02 -0.70236418530E+01  0.19698166859E+02  0.51100000000E-03 0.  1.
        -12    1    3    3    0    0  0.15412245427E+02  0.11348798364E+02 -0.19335078384E+02  0.27206208658E+02  0.00000000000E+00 0.  1.
</event>
<event>
 7    1  0.6841384E-013  0.5930165E+02  0.7816164E-02  0.1266606E+00
        -11   -1    0    0    0    0  0.00000000000E+00  0.00000000000E+00  0.45593999997E+02  0.45594000000E+02  0.51100000000E-03 0. -1.
         11   -1    0    0    0    0 -0.00000000000E+00 -0.00000000000E+00 -0.45593999997E+02  0.45594000000E+02  0.51100000000E-03 0.  1.
    9900012    2    1    2    0    0  0.24032893031E+02  0.35798045628E+01  0.20648115813E+02  0.59301645006E+02  0.49999454654E+02 0.  0.
        -12    1    1    2    0    0 -0.24032893031E+02 -0.35798045628E+01 -0.20648115813E+02  0.31886354994E+02  0.00000000000E+00 0.  1.
         11    1    3    3    0    0  0.33690057013E+01 -0.13539735686E+02 -0.52772911458E+00  0.13962562090E+02  0.51100000000E-03 0. -1.
        -11    1    3    3    0    0  0.51010793301E+01 -0.86022472413E+01  0.45906417598E+01  0.11004256447E+02  0.51100000000E-03 0.  1.
         12    1    3    3    0    0  0.15562807999E+02  0.25721787490E+02  0.16585203168E+02  0.34334826468E+02  0.00000000000E+00 0. -1.
</event>
<event>
 7    1  0.6841384E-013  0.5930193E+02  0.7816164E-02  0.1266605E+00
        -11   -1    0    0    0    0  0.00000000000E+00  0.00000000000E+00  0.45593999997E+02  0.45594000000E+02  0.51100000000E-03 0.  1.
         11   -1    0    0    0    0 -0.00000000000E+00 -0.00000000000E+00 -0.45593999997E+02  0.45594000000E+02  0.51100000000E-03 0. -1.
    9900012    2    1    2    0    0 -0.12021408632E+02 -0.17370998808E+02 -0.23884213144E+02  0.59301929333E+02  0.49999973200E+02 0.  0.
        -12    1    1    2    0    0  0.12021408632E+02  0.17370998808E+02  0.23884213144E+02  0.31886070667E+02  0.00000000000E+00 0.  1.
         11    1    3    3    0    0 -0.46678168593E+01 -0.12119396701E+02 -0.38457651380E+01  0.13544674244E+02  0.51100000000E-03 0. -1.
        -11    1    3    3    0    0 -0.69227733989E+01 -0.11187394985E+02 -0.30781920918E+02  0.33475502292E+02  0.51100000000E-03 0.  1.
        -12    1    3    3    0    0 -0.43081837341E+00  0.59357928777E+01  0.10743472911E+02  0.12281752797E+02  0.00000000000E+00 0.  1.
</event>
<event>
 7    1  0.6841384E-013  0.5930195E+02  0.7816164E-02  0.1266605E+00
        -11   -1    0    0    0    0  0.00000000000E+00  0.00000000000E+00  0.45593999997E+02  0.45594000000E+02  0.51100000000E-03 0.  1.
         11   -1    0    0    0    0 -0.00000000000E+00 -0.00000000000E+00 -0.45593999997E+02  0.45594000000E+02  0.51100000000E-03 0. -1.
    9900012    2    1    2    0    0  0.17715457716E+02  0.52200025675E+00 -0.26506797458E+02  0.59301949165E+02  0.50000009370E+02 0.  0.
        -12    1    1    2    0    0 -0.17715457716E+02 -0.52200025675E+00  0.26506797458E+02  0.31886050835E+02  0.00000000000E+00 0.  1.
         11    1    3    3    0    0  0.11726276127E+02 -0.10565833416E+02 -0.23536573271E+02  0.28339242565E+02  0.51100000000E-03 0. -1.
        -11    1    3    3    0    0  0.17307217420E+02  0.52559282394E+01 -0.17585447622E+01  0.18172975442E+02  0.51100000000E-03 0.  1.
        -12    1    3    3    0    0 -0.11318035831E+02  0.58319054334E+01 -0.12116794253E+01  0.12789731158E+02  0.00000000000E+00 0.  1.
</event>
<event>
 7    1  0.6841384E-013  0.5930191E+02  0.7816164E-02  0.1266605E+00
        -11   -1    0    0    0    0  0.00000000000E+00  0.00000000000E+00  0.45593999997E+02  0.45594000000E+02  0.51100000000E-03 0.  1.
         11   -1    0    0    0    0 -0.00000000000E+00 -0.00000000000E+00 -0.45593999997E+02  0.45594000000E+02  0.51100000000E-03 0. -1.
    9900012    2    1    2    0    0 -0.19579378440E+02 -0.37934959664E+01 -0.24879309776E+02  0.59301910138E+02  0.49999938194E+02 0.  0.
        -12    1    1    2    0    0  0.19579378440E+02  0.37934959664E+01  0.24879309776E+02  0.31886089862E+02  0.00000000000E+00 0.  1.
         11    1    3    3    0    0  0.29572479934E+01 -0.14961834902E+02 -0.40639651957E+01  0.15783460733E+02  0.51100000000E-03 0. -1.
        -11    1    3    3    0    0 -0.68030660524E+01  0.26885316811E+01  0.72150521699E+01  0.10274574852E+02  0.51100000000E-03 0.  1.
        -12    1    3    3    0    0 -0.15733560381E+02  0.84798072547E+01 -0.28030396750E+02  0.33243874553E+02  0.00000000000E+00 0.  1.
</event>
<event>
 7    1  0.6841384E-013  0.5930194E+02  0.7816164E-02  0.1266605E+00
        -11   -1    0    0    0    0  0.00000000000E+00  0.00000000000E+00  0.45593999997E+02  0.45594000000E+02  0.51100000000E-03 0.  1.
         11   -1    0    0    0    0 -0.00000000000E+00 -0.00000000000E+00 -0.45593999997E+02  0.45594000000E+02  0.51100000000E-03 0. -1.
    9900012    2    1    2    0    0  0.14710002307E+02 -0.99171093748E+01 -0.26495044833E+02  0.59301943064E+02  0.49999998242E+02 0.  0.
        -12    1    1    2    0    0 -0.14710002307E+02  0.99171093748E+01  0.26495044833E+02  0.31886056936E+02  0.00000000000E+00 0.  1.
         11    1    3    3    0    0  0.14692368996E+01 -0.93830736302E+00 -0.23211823827E+00  0.17586804463E+01  0.51100000000E-03 0. -1.
        -11    1    3    3    0    0  0.18629867274E+02  0.16645526889E+02 -0.11796344794E+02  0.27627871268E+02  0.51100000000E-03 0.  1.
         12    1    3    3    0    0 -0.53891018664E+01 -0.25624328901E+02 -0.14466581801E+02  0.29915391349E+02  0.00000000000E+00 0. -1.
</event>
<event>
 7    1  0.6841384E-013  0.5930196E+02  0.7816164E-02  0.1266605E+00
        -11   -1    0    0    0    0  0.00000000000E+00  0.00000000000E+00  0.45593999997E+02  0.45594000000E+02  0.51100000000E-03 0.  1.
         11   -1    0    0    0    0 -0.00000000000E+00 -0.00000000000E+00 -0.45593999997E+02  0.45594000000E+02  0.51100000000E-03 0. -1.
    9900012    2    1    2    0    0  0.42748783267E+00  0.28274300670E+02 -0.14734344853E+02  0.59301956933E+02  0.50000023536E+02 0.  0.
        -12    1    1    2    0    0 -0.42748783267E+00 -0.28274300670E+02  0.14734344853E+02  0.31886043067E+02  0.00000000000E+00 0.  1.
         11    1    3    3    0    0 -0.10154604187E+02  0.22799076582E+02  0.33956768653E+01  0.25188181769E+02  0.51100000000E-03 0.  1.
        -11    1    3    3    0    0  0.79446821407E+01  0.13191795322E+02 -0.20483190074E+02  0.25626207562E+02  0.51100000000E-03 0. -1.
        -12    1    3    3    0    0  0.26374098792E+01 -0.77165712343E+01  0.23531683559E+01  0.84875676019E+01  0.00000000000E+00 0.  1.
</event>
<event>
 7    1  0.6841384E-013  0.5930195E+02  0.7816164E-02  0.1266605E+00
        -11   -1    0    0    0    0  0.00000000000E+00  0.00000000000E+00  0.45593999997E+02  0.45594000000E+02  0.51100000000E-03 0.  1.
         11   -1    0    0    0    0 -0.00000000000E+00 -0.00000000000E+00 -0.45593999997E+02  0.45594000000E+02  0.51100000000E-03 0. -1.
    9900012    2    1    2    0    0 -0.22642446728E+02  0.21288221489E+02 -0.71309994904E+01  0.59301954122E+02  0.50000018410E+02 0.  0.
        -12    1    1    2    0    0  0.22642446728E+02 -0.21288221489E+02  0.71309994904E+01  0.31886045878E+02  0.00000000000E+00 0.  1.
         11    1    3    3    0    0 -0.23706361723E+02  0.22829947934E+02  0.12961282119E+02  0.35372205801E+02  0.51100000000E-03 0.  1.
        -11    1    3    3    0    0 -0.54953580187E+00 -0.71380025164E+01 -0.11630674938E+02  0.13657440071E+02  0.51100000000E-03 0. -1.
        -12    1    3    3    0    0  0.16134507969E+01  0.55962760715E+01 -0.84616066712E+01  0.10272308251E+02  0.00000000000E+00 0.  1.
</event>
<event>
 7    1  0.6841384E-013  0.5930193E+02  0.7816164E-02  0.1266605E+00
        -11   -1    0    0    0    0  0.00000000000E+00  0.00000000000E+00  0.45593999997E+02  0.45594000000E+02  0.51100000000E-03 0.  1.
         11   -1    0    0    0    0 -0.00000000000E+00 -0.00000000000E+00 -0.45593999997E+02  0.45594000000E+02  0.51100000000E-03 0. -1.
    9900012    2    1    2    0    0  0.17819900057E+02  0.35514131350E+01 -0.26202290138E+02  0.59301931227E+02  0.49999976654E+02 0.  0.
        -12    1    1    2    0    0 -0.17819900057E+02 -0.35514131350E+01  0.26202290138E+02  0.31886068773E+02  0.00000000000E+00 0.  1.
         11    1    3    3    0    0  0.15772932562E+02  0.14127309749E+02 -0.21758507548E+02  0.30361141831E+02  0.51100000000E-03 0. -1.
        -11    1    3    3    0    0 -0.32653389849E+01 -0.82420602917E+01 -0.14694585050E+02  0.17161725630E+02  0.51100000000E-03 0.  1.
         12    1    3    3    0    0  0.53123064809E+01 -0.23338363225E+01  0.10250802459E+02  0.11779063765E+02  0.00000000000E+00 0. -1.
</event>
<event>
 7    1  0.6841384E-013  0.5930194E+02  0.7816164E-02  0.1266605E+00
        -11   -1    0    0    0    0  0.00000000000E+00  0.00000000000E+00  0.45593999997E+02  0.45594000000E+02  0.51100000000E-03 0.  1.
         11   -1    0    0    0    0 -0.00000000000E+00 -0.00000000000E+00 -0.45593999997E+02  0.45594000000E+02  0.51100000000E-03 0. -1.
    9900012    2    1    2    0    0 -0.28055320548E+02  0.10787525218E+02 -0.10641855283E+02  0.59301940424E+02  0.49999993428E+02 0.  0.
        -12    1    1    2    0    0  0.28055320548E+02 -0.10787525218E+02  0.10641855283E+02  0.31886059576E+02  0.00000000000E+00 0.  1.
         11    1    3    3    0    0 -0.19891910134E+02  0.19439078356E+02 -0.12496097519E+02  0.30491282518E+02  0.51100000000E-03 0. -1.
        -11    1    3    3    0    0 -0.16909502729E+02 -0.57866073306E+01 -0.34296703179E+01  0.18198317112E+02  0.51100000000E-03 0.  1.
         12    1    3    3    0    0  0.87460923153E+01 -0.28649458076E+01  0.52839125535E+01  0.10612340795E+02  0.00000000000E+00 0. -1.
</event>
<event>
 7    1  0.6841384E-013  0.5930191E+02  0.7816164E-02  0.1266605E+00
        -11   -1    0    0    0    0  0.00000000000E+00  0.00000000000E+00  0.45593999997E+02  0.45594000000E+02  0.51100000000E-03 0.  1.
         11   -1    0    0    0    0 -0.00000000000E+00 -0.00000000000E+00 -0.45593999997E+02  0.45594000000E+02  0.51100000000E-03 0. -1.
    9900012    2    1    2    0    0 -0.27964423937E+02 -0.15248850587E+02 -0.14786281710E+01  0.59301909120E+02  0.49999936336E+02 0.  0.
        -12    1    1    2    0    0  0.27964423937E+02  0.15248850587E+02  0.14786281710E+01  0.31886090880E+02  0.00000000000E+00 0.  1.
         11    1    3    3    0    0 -0.29111936219E+02 -0.90687452978E+01 -0.62580451424E+01  0.31127320812E+02  0.51100000000E-03 0. -1.
        -11    1    3    3    0    0 -0.12884736152E+02 -0.16253271580E+01  0.28512287764E+01  0.13296150566E+02  0.51100000000E-03 0.  1.
        -12    1    3    3    0    0  0.14032248433E+02 -0.45547781308E+01  0.19281881950E+01  0.14878437742E+02  0.00000000000E+00 0.  1.
</event>
<event>
 7    1  0.6841384E-013  0.5930193E+02  0.7816164E-02  0.1266605E+00
        -11   -1    0    0    0    0  0.00000000000E+00  0.00000000000E+00  0.45593999997E+02  0.45594000000E+02  0.51100000000E-03 0.  1.
         11   -1    0    0    0    0 -0.00000000000E+00 -0.00000000000E+00 -0.45593999997E+02  0.45594000000E+02  0.51100000000E-03 0. -1.
    9900012    2    1    2    0    0  0.21786319953E+01 -0.27167566864E+02  0.16549877957E+02  0.59301928008E+02  0.49999970783E+02 0.  0.
        -12    1    1    2    0    0 -0.21786319953E+01  0.27167566864E+02 -0.16549877957E+02  0.31886071992E+02  0.00000000000E+00 0.  1.
         11    1    3    3    0    0  0.83486978546E+01 -0.81373426626E+01  0.18363036727E+02  0.21751280872E+02  0.51100000000E-03 0. -1.
        -11    1    3    3    0    0  0.49476476698E+01  0.42941460637E+01 -0.86234174204E+01  0.10829692339E+02  0.51100000000E-03 0.  1.
         12    1    3    3    0    0 -0.11117713529E+02 -0.23324370265E+02  0.68102586509E+01  0.26720954797E+02  0.00000000000E+00 0. -1.
</event>
<event>
 7    1  0.6841384E-013  0.5930188E+02  0.7816164E-02  0.1266605E+00
        -11   -1    0    0    0    0  0.00000000000E+00  0.00000000000E+00  0.45593999997E+02  0.45594000000E+02  0.51100000000E-03 0. -1.
         11   -1    0    0    0    0 -0.00000000000E+00 -0.00000000000E+00 -0.45593999997E+02  0.45594000000E+02  0.51100000000E-03 0.  1.
    9900012    2    1    2    0    0  0.20344558537E+02  0.79950006420E+01  0.23214303074E+02  0.59301875046E+02  0.49999874195E+02 0.  0.
        -12    1    1    2    0    0 -0.20344558537E+02 -0.79950006420E+01 -0.23214303074E+02  0.31886124954E+02  0.00000000000E+00 0.  1.
         11    1    3    3    0    0  0.10682445211E+02 -0.72309547973E+01 -0.57651034718E+01  0.14129322746E+02  0.51100000000E-03 0. -1.
        -11    1    3    3    0    0 -0.72455871465E+01 -0.36962651358E+01  0.12506855245E+02  0.14919193592E+02  0.51100000000E-03 0.  1.
        -12    1    3    3    0    0  0.16907700473E+02  0.18922220575E+02  0.16472551300E+02  0.30253358708E+02  0.00000000000E+00 0.  1.
</event>
<event>
 7    1  0.6841384E-013  0.5930195E+02  0.7816164E-02  0.1266605E+00
        -11   -1    0    0    0    0  0.00000000000E+00  0.00000000000E+00  0.45593999997E+02  0.45594000000E+02  0.51100000000E-03 0. -1.
         11   -1    0    0    0    0 -0.00000000000E+00 -0.00000000000E+00 -0.45593999997E+02  0.45594000000E+02  0.51100000000E-03 0.  1.
    9900012    2    1    2    0    0  0.22488836575E+02  0.21392523371E+02 -0.73028801778E+01  0.59301954689E+02  0.50000019444E+02 0.  0.
        -12    1    1    2    0    0 -0.22488836575E+02 -0.21392523371E+02  0.73028801778E+01  0.31886045311E+02  0.00000000000E+00 0.  1.
         11    1    3    3    0    0 -0.76301740347E+01  0.20300033091E+02  0.87693000703E+01  0.23392552731E+02  0.51100000000E-03 0.  1.
        -11    1    3    3    0    0  0.61574930851E+01 -0.74151742993E+00  0.11970234390E+01  0.63164416064E+01  0.51100000000E-03 0. -1.
        -12    1    3    3    0    0  0.23961517525E+02  0.18340077095E+01 -0.17269203687E+02  0.29592960352E+02  0.00000000000E+00 0.  1.
</event>
<event>
 7    1  0.6841384E-013  0.5930195E+02  0.7816164E-02  0.1266605E+00
        -11   -1    0    0    0    0  0.00000000000E+00  0.00000000000E+00  0.45593999997E+02  0.45594000000E+02  0.51100000000E-03 0.  1.
         11   -1    0    0    0    0 -0.00000000000E+00 -0.00000000000E+00 -0.45593999997E+02  0.45594000000E+02  0.51100000000E-03 0. -1.
    9900012    2    1    2    0    0 -0.51898754746E+01  0.31506919351E+01 -0.31302691089E+02  0.59301950754E+02  0.50000012266E+02 0.  0.
        -12    1    1    2    0    0  0.51898754746E+01 -0.31506919351E+01  0.31302691089E+02  0.31886049246E+02  0.00000000000E+00 0.  1.
         11    1    3    3    0    0 -0.13072233265E+02 -0.74072115615E+01 -0.12845452010E+02  0.19767541659E+02  0.51100000000E-03 0. -1.
        -11    1    3    3    0    0 -0.99855414578E+01 -0.50767138051E+01 -0.53445263898E+01  0.12411608431E+02  0.51100000000E-03 0.  1.
         12    1    3    3    0    0  0.17867899248E+02  0.15634617302E+02 -0.13112712690E+02  0.27122800663E+02  0.00000000000E+00 0. -1.
</event>
<event>
 7    1  0.6841384E-013  0.5930192E+02  0.7816164E-02  0.1266605E+00
        -11   -1    0    0    0    0  0.00000000000E+00  0.00000000000E+00  0.45593999997E+02  0.45594000000E+02  0.51100000000E-03 0. -1.
         11   -1    0    0    0    0 -0.00000000000E+00 -0.00000000000E+00 -0.45593999997E+02  0.45594000000E+02  0.51100000000E-03 0.  1.
    9900012    2    1    2    0    0 -0.11244502305E+02  0.18326714751E+02  0.23546008502E+02  0.59301924324E+02  0.49999964065E+02 0.  0.
        -12    1    1    2    0    0  0.11244502305E+02 -0.18326714751E+02 -0.23546008502E+02  0.31886075676E+02  0.00000000000E+00 0.  1.
         11    1    3    3    0    0  0.17557944208E+01  0.21059211704E+01  0.28408226153E+02  0.28540235308E+02  0.51100000000E-03 0. -1.
        -11    1    3    3    0    0  0.26359745752E+01  0.14357446369E+02 -0.16486733671E+01  0.14690226422E+02  0.51100000000E-03 0.  1.
        -12    1    3    3    0    0 -0.15636271301E+02  0.18633472113E+01 -0.32135442833E+01  0.16071462594E+02  0.00000000000E+00 0.  1.
</event>
<event>
 7    1  0.7869986E-013  0.5930194E+02  0.7816164E-02  0.1266605E+00
        -11   -1    0    0    0    0  0.00000000000E+00  0.00000000000E+00  0.45593999997E+02  0.45594000000E+02  0.51100000000E-03 0. -1.
         11   -1    0    0    0    0 -0.00000000000E+00 -0.00000000000E+00 -0.45593999997E+02  0.45594000000E+02  0.51100000000E-03 0.  1.
    9900012    2    1    2    0    0  0.23206021694E+02  0.17944388650E+01  0.21794072271E+02  0.59301936589E+02  0.49999986434E+02 0.  0.
        -12    1    1    2    0    0 -0.23206021694E+02 -0.17944388650E+01 -0.21794072271E+02  0.31886063411E+02  0.00000000000E+00 0.  1.
         11    1    3    3    0    0  0.53404906955E+00  0.11506976321E+02  0.21100497087E+02  0.24040105866E+02  0.51100000000E-03 0. -1.
        -11    1    3    3    0    0  0.66640003570E+01 -0.78956212801E+01  0.11807354560E+02  0.15689593944E+02  0.51100000000E-03 0.  1.
        -12    1    3    3    0    0  0.16007972268E+02 -0.18169161759E+01 -0.11113779377E+02  0.19572236779E+02  0.00000000000E+00 0.  1.
</event>
<event>
 7    1  0.6841384E-013  0.5930175E+02  0.7816164E-02  0.1266605E+00
        -11   -1    0    0    0    0  0.00000000000E+00  0.00000000000E+00  0.45593999997E+02  0.45594000000E+02  0.51100000000E-03 0. -1.
         11   -1    0    0    0    0 -0.00000000000E+00 -0.00000000000E+00 -0.45593999997E+02  0.45594000000E+02  0.51100000000E-03 0.  1.
    9900012    2    1    2    0    0  0.27531540263E+02  0.82450397304E+01  0.13811819589E+02  0.59301752968E+02  0.49999651552E+02 0.  0.
        -12    1    1    2    0    0 -0.27531540263E+02 -0.82450397304E+01 -0.13811819589E+02  0.31886247032E+02  0.00000000000E+00 0.  1.
         11    1    3    3    0    0  0.27846468418E+02  0.19511267103E+01 -0.22020025821E+01  0.28001455577E+02  0.51100000000E-03 0. -1.
        -11    1    3    3    0    0 -0.37442496782E+01 -0.53096843154E+01 -0.42038488996E+01  0.77385075443E+01  0.51100000000E-03 0.  1.
         12    1    3    3    0    0  0.34293215233E+01  0.11603597336E+02  0.20217671071E+02  0.23561789846E+02  0.00000000000E+00 0. -1.
</event>
<event>
 7    1  0.6841384E-013  0.5930196E+02  0.7816164E-02  0.1266605E+00
        -11   -1    0    0    0    0  0.00000000000E+00  0.00000000000E+00  0.45593999997E+02  0.45594000000E+02  0.51100000000E-03 0. -1.
         11   -1    0    0    0    0 -0.00000000000E+00 -0.00000000000E+00 -0.45593999997E+02  0.45594000000E+02  0.51100000000E-03 0.  1.
    9900012    2    1    2    0    0 -0.39590376285E+01  0.26844333513E+02  0.16745962100E+02  0.59301961247E+02  0.50000031404E+02 0.  0.
        -12    1    1    2    0    0  0.39590376285E+01 -0.26844333513E+02 -0.16745962100E+02  0.31886038753E+02  0.00000000000E+00 0.  1.
         11    1    3    3    0    0 -0.12276484960E+02  0.11491697193E+02  0.18608974112E+01  0.16918455212E+02  0.51100000000E-03 0. -1.
        -11    1    3    3    0    0 -0.53759454667E+01  0.13668549741E+02  0.22313882353E+02  0.26714029790E+02  0.51100000000E-03 0.  1.
        -12    1    3    3    0    0  0.13693392798E+02  0.16840865794E+01 -0.74288176643E+01  0.15669476246E+02  0.00000000000E+00 0.  1.
</event>
<event>
 7    1  0.6841384E-013  0.5930196E+02  0.7816164E-02  0.1266605E+00
        -11   -1    0    0    0    0  0.00000000000E+00  0.00000000000E+00  0.45593999997E+02  0.45594000000E+02  0.51100000000E-03 0. -1.
         11   -1    0    0    0    0 -0.00000000000E+00 -0.00000000000E+00 -0.45593999997E+02  0.45594000000E+02  0.51100000000E-03 0.  1.
    9900012    2    1    2    0    0 -0.24150781228E+02 -0.42546909052E+01  0.20380308762E+02  0.59301958949E+02  0.50000027213E+02 0.  0.
        -12    1    1    2    0    0  0.24150781228E+02  0.42546909052E+01 -0.20380308762E+02  0.31886041051E+02  0.00000000000E+00 0.  1.
         11    1    3    3    0    0 -0.12810232868E+02 -0.45981878781E+01  0.10930538035E+02  0.17456289981E+02  0.51100000000E-03 0. -1.
        -11    1    3    3    0    0 -0.22868566367E+02 -0.28912738416E+01 -0.44751039655E+01  0.23480999720E+02  0.51100000000E-03 0.  1.
         12    1    3    3    0    0  0.11528018007E+02  0.32347708145E+01  0.13924874693E+02  0.18364669248E+02  0.00000000000E+00 0. -1.
</event>
<event>
 7    1  0.6841384E-013  0.5930195E+02  0.7816164E-02  0.1266605E+00
        -11   -1    0    0    0    0  0.00000000000E+00  0.00000000000E+00  0.45593999997E+02  0.45594000000E+02  0.51100000000E-03 0.  1.
         11   -1    0    0    0    0 -0.00000000000E+00 -0.00000000000E+00 -0.45593999997E+02  0.45594000000E+02  0.51100000000E-03 0. -1.
    9900012    2    1    2    0    0 -0.19003757603E+02 -0.31891081035E+01 -0.25404866214E+02  0.59301945981E+02  0.50000003563E+02 0.  0.
        -12    1    1    2    0    0  0.19003757603E+02  0.31891081035E+01  0.25404866214E+02  0.31886054019E+02  0.00000000000E+00 0.  1.
         11    1    3    3    0    0 -0.25209115043E+02 -0.77538765513E+01 -0.23869294325E+02  0.35571973443E+02  0.51100000000E-03 0. -1.
        -11    1    3    3    0    0 -0.30814155062E+01  0.70415800394E+01 -0.87985179990E+01  0.11683017171E+02  0.51100000000E-03 0.  1.
         12    1    3    3    0    0  0.92867729467E+01 -0.24768115916E+01  0.72629461096E+01  0.12046955367E+02  0.00000000000E+00 0. -1.
</event>
<event>
 7    1  0.6841384E-013  0.5930195E+02  0.7816164E-02  0.1266605E+00
        -11   -1    0    0    0    0  0.00000000000E+00  0.00000000000E+00  0.45593999997E+02  0.45594000000E+02  0.51100000000E-03 0. -1.
         11   -1    0    0    0    0 -0.00000000000E+00 -0.00000000000E+00 -0.45593999997E+02  0.45594000000E+02  0.51100000000E-03 0.  1.
    9900012    2    1    2    0    0  0.45590187436E+00  0.23282741650E+02  0.21781332484E+02  0.59301947405E+02  0.50000006160E+02 0.  0.
        -12    1    1    2    0    0 -0.45590187436E+00 -0.23282741650E+02 -0.21781332484E+02  0.31886052595E+02  0.00000000000E+00 0.  1.
         11    1    3    3    0    0  0.11369399678E+02 -0.79153306416E+00  0.89294243541E+01  0.14478411280E+02  0.51100000000E-03 0. -1.
        -11    1    3    3    0    0 -0.59648736378E+01 -0.60549231967E+01 -0.45902542902E+01  0.96598264551E+01  0.51100000000E-03 0.  1.
         12    1    3    3    0    0 -0.49486241658E+01  0.30129197911E+02  0.17442162420E+02  0.35163709671E+02  0.00000000000E+00 0. -1.
</event>
<event>
 7    1  0.6841384E-013  0.5930194E+02  0.7816164E-02  0.1266605E+00
        -11   -1    0    0    0    0  0.00000000000E+00  0.00000000000E+00  0.45593999997E+02  0.45594000000E+02  0.51100000000E-03 0.  1.
         11   -1    0    0    0    0 -0.00000000000E+00 -0.00000000000E+00 -0.45593999997E+02  0.45594000000E+02  0.51100000000E-03 0. -1.
    9900012    2    1    2    0    0  0.14274336767E+02 -0.21216446599E+02 -0.19048012075E+02  0.59301936266E+02  0.49999985844E+02 0.  0.
        -12    1    1    2    0    0 -0.14274336767E+02  0.21216446599E+02  0.19048012075E+02  0.31886063734E+02  0.00000000000E+00 0.  1.
         11    1    3    3    0    0  0.76519798396E+01  0.63516289849E-01  0.87554856830E+01  0.11628213947E+02  0.51100000000E-03 0.  1.
        -11    1    3    3    0    0  0.42703162301E+01 -0.21836270128E+02 -0.26531771240E+01  0.22407535404E+02  0.51100000000E-03 0. -1.
        -12    1    3    3    0    0  0.23520406978E+01  0.55630723853E+00 -0.25150320634E+02  0.25266186914E+02  0.00000000000E+00 0.  1.
</event>
<event>
 7    1  0.6841384E-013  0.5930194E+02  0.7816164E-02  0.1266605E+00
        -11   -1    0    0    0    0  0.00000000000E+00  0.00000000000E+00  0.45593999997E+02  0.45594000000E+02  0.51100000000E-03 0.  1.
         11   -1    0    0    0    0 -0.00000000000E+00 -0.00000000000E+00 -0.45593999997E+02  0.45594000000E+02  0.51100000000E-03 0. -1.
    9900012    2    1    2    0    0 -0.19539403969E+02 -0.17556189487E+02 -0.18075198035E+02  0.59301939083E+02  0.49999990983E+02 0.  0.
        -12    1    1    2    0    0  0.19539403969E+02  0.17556189487E+02  0.18075198035E+02  0.31886060917E+02  0.00000000000E+00 0.  1.
         11    1    3    3    0    0  0.12619845365E+01  0.11861223718E+02 -0.41092656733E+01  0.12616152254E+02  0.51100000000E-03 0. -1.
        -11    1    3    3    0    0 -0.89269102911E+01 -0.86188773850E+01 -0.18534100730E+02  0.22304431507E+02  0.51100000000E-03 0.  1.
        -12    1    3    3    0    0 -0.11874478215E+02 -0.20798535820E+02  0.45681683686E+01  0.24381355323E+02  0.00000000000E+00 0.  1.
</event>
<event>
 7    1  0.6841384E-013  0.5930195E+02  0.7816164E-02  0.1266605E+00
        -11   -1    0    0    0    0  0.00000000000E+00  0.00000000000E+00  0.45593999997E+02  0.45594000000E+02  0.51100000000E-03 0.  1.
         11   -1    0    0    0    0 -0.00000000000E+00 -0.00000000000E+00 -0.45593999997E+02  0.45594000000E+02  0.51100000000E-03 0. -1.
    9900012    2    1    2    0    0 -0.83449254732E+01  0.36371181032E+00 -0.30772554228E+02  0.59301950368E+02  0.50000011563E+02 0.  0.
        -12    1    1    2    0    0  0.83449254732E+01 -0.36371181032E+00  0.30772554228E+02  0.31886049632E+02  0.00000000000E+00 0.  1.
         11    1    3    3    0    0  0.48516169237E+01 -0.15870988326E+02 -0.13501526355E+02  0.21394337367E+02  0.51100000000E-03 0. -1.
        -11    1    3    3    0    0  0.74792643485E+01  0.29815009585E+01 -0.88029952129E+01  0.11929856166E+02  0.51100000000E-03 0.  1.
        -12    1    3    3    0    0 -0.20675806745E+02  0.13253199178E+02 -0.84680326601E+01  0.25977756835E+02  0.00000000000E+00 0.  1.
</event>
<event>
 7    1  0.6841384E-013  0.5930195E+02  0.7816164E-02  0.1266605E+00
        -11   -1    0    0    0    0  0.00000000000E+00  0.00000000000E+00  0.45593999997E+02  0.45594000000E+02  0.51100000000E-03 0.  1.
         11   -1    0    0    0    0 -0.00000000000E+00 -0.00000000000E+00 -0.45593999997E+02  0.45594000000E+02  0.51100000000E-03 0. -1.
    9900012    2    1    2    0    0 -0.27782769442E+01 -0.26237059934E+02 -0.17905802693E+02  0.59301954355E+02  0.50000018835E+02 0.  0.
        -12    1    1    2    0    0  0.27782769442E+01  0.26237059934E+02  0.17905802693E+02  0.31886045645E+02  0.00000000000E+00 0.  1.
         11    1    3    3    0    0 -0.43760938288E+01 -0.97127589057E+01 -0.21488014086E+02  0.23983799373E+02  0.51100000000E-03 0. -1.
        -11    1    3    3    0    0 -0.13093987180E+02 -0.21926252354E+00  0.25799779026E+01  0.13347541443E+02  0.51100000000E-03 0.  1.
         12    1    3    3    0    0  0.14691804065E+02 -0.16305038505E+02  0.10022334899E+01  0.21970613539E+02  0.00000000000E+00 0. -1.
</event>
<event>
 7    1  0.6841384E-013  0.5930190E+02  0.7816164E-02  0.1266605E+00
        -11   -1    0    0    0    0  0.00000000000E+00  0.00000000000E+00  0.45593999997E+02  0.45594000000E+02  0.51100000000E-03 0.  1.
         11   -1    0    0    0    0 -0.00000000000E+00 -0.00000000000E+00 -0.45593999997E+02  0.45594000000E+02  0.51100000000E-03 0. -1.
    9900012    2    1    2    0    0  0.15228219613E+02 -0.23776884244E+02 -0.14815012760E+02  0.59301898012E+02  0.49999916078E+02 0.  0.
        -12    1    1    2    0    0 -0.15228219613E+02  0.23776884244E+02  0.14815012760E+02  0.31886101988E+02  0.00000000000E+00 0.  1.
         11    1    3    3    0    0  0.10849679176E+02 -0.46173255794E+01  0.14291754111E+01  0.11877616610E+02  0.51100000000E-03 0. -1.
        -11    1    3    3    0    0 -0.38222023898E+00 -0.39092704438E+01  0.13283279945E+02  0.13851859589E+02  0.51100000000E-03 0.  1.
        -12    1    3    3    0    0  0.47607606762E+01 -0.15250288221E+02 -0.29527468116E+02  0.33572421812E+02  0.00000000000E+00 0.  1.
</event>
<event>
 7    1  0.6841384E-013  0.5930194E+02  0.7816164E-02  0.1266605E+00
        -11   -1    0    0    0    0  0.00000000000E+00  0.00000000000E+00  0.45593999997E+02  0.45594000000E+02  0.51100000000E-03 0.  1.
         11   -1    0    0    0    0 -0.00000000000E+00 -0.00000000000E+00 -0.45593999997E+02  0.45594000000E+02  0.51100000000E-03 0. -1.
    9900012    2    1    2    0    0  0.13191234410E+02  0.15512290922E+02 -0.24537337543E+02  0.59301940842E+02  0.49999994191E+02 0.  0.
        -12    1    1    2    0    0 -0.13191234410E+02 -0.15512290922E+02  0.24537337543E+02  0.31886059158E+02  0.00000000000E+00 0.  1.
         11    1    3    3    0    0  0.19500233670E+02  0.15467075006E+02 -0.13271604719E+02  0.28206825672E+02  0.51100000000E-03 0. -1.
        -11    1    3    3    0    0  0.56158559727E+01 -0.10979231597E+02 -0.74673021535E+01  0.14416725234E+02  0.51100000000E-03 0.  1.
         12    1    3    3    0    0 -0.11924855233E+02  0.11024447513E+02 -0.37984306703E+01  0.16678389936E+02  0.00000000000E+00 0. -1.
</event>
<event>
 7    1  0.6841384E-013  0.5930195E+02  0.7816164E-02  0.1266605E+00
        -11   -1    0    0    0    0  0.00000000000E+00  0.00000000000E+00  0.45593999997E+02  0.45594000000E+02  0.51100000000E-03 0.  1.
         11   -1    0    0    0    0 -0.00000000000E+00 -0.00000000000E+00 -0.45593999997E+02  0.45594000000E+02  0.51100000000E-03 0. -1.
    9900012    2    1    2    0    0 -0.31466231952E+02  0.51557455608E+01 -0.12074036334E+00  0.59301952208E+02  0.50000014919E+02 0.  0.
        -12    1    1    2    0    0  0.31466231952E+02 -0.51557455608E+01  0.12074036334E+00  0.31886047792E+02  0.00000000000E+00 0.  1.
         11    1    3    3    0    0 -0.17965930338E+00  0.62549939193E+01  0.90471593079E+01  0.11000378094E+02  0.51100000000E-03 0. -1.
        -11    1    3    3    0    0 -0.24960021421E+02  0.62481941846E+01  0.93683381163E+01  0.27382628786E+02  0.51100000000E-03 0.  1.
         12    1    3    3    0    0 -0.63265512276E+01 -0.73474425430E+01 -0.18536237788E+02  0.20918945329E+02  0.00000000000E+00 0. -1.
</event>
<event>
 7    1  0.6841384E-013  0.5930197E+02  0.7816164E-02  0.1266605E+00
        -11   -1    0    0    0    0  0.00000000000E+00  0.00000000000E+00  0.45593999997E+02  0.45594000000E+02  0.51100000000E-03 0.  1.
         11   -1    0    0    0    0 -0.00000000000E+00 -0.00000000000E+00 -0.45593999997E+02  0.45594000000E+02  0.51100000000E-03 0. -1.
    9900012    2    1    2    0    0 -0.30524184246E+02  0.18425690220E+01 -0.90331515294E+01  0.59301973107E+02  0.50000053034E+02 0.  0.
        -12    1    1    2    0    0  0.30524184246E+02 -0.18425690220E+01  0.90331515294E+01  0.31886026893E+02  0.00000000000E+00 0.  1.
         11    1    3    3    0    0 -0.21300651960E+02 -0.11292545578E+02 -0.24004517476E+01  0.24228114421E+02  0.51100000000E-03 0. -1.
        -11    1    3    3    0    0  0.40852614281E+01 -0.21935081098E+01 -0.12997161429E+02  0.13799530580E+02  0.51100000000E-03 0.  1.
         12    1    3    3    0    0 -0.13308793714E+02  0.15328622710E+02  0.63644616470E+01  0.21274328106E+02  0.00000000000E+00 0. -1.
</event>
<event>
 7    1  0.6841384E-013  0.5930196E+02  0.7816164E-02  0.1266605E+00
        -11   -1    0    0    0    0  0.00000000000E+00  0.00000000000E+00  0.45593999997E+02  0.45594000000E+02  0.51100000000E-03 0. -1.
         11   -1    0    0    0    0 -0.00000000000E+00 -0.00000000000E+00 -0.45593999997E+02  0.45594000000E+02  0.51100000000E-03 0.  1.
    9900012    2    1    2    0    0  0.16602512391E+02 -0.33774464450E+01  0.27012385970E+02  0.59301959826E+02  0.50000028813E+02 0.  0.
        -12    1    1    2    0    0 -0.16602512391E+02  0.33774464450E+01 -0.27012385970E+02  0.31886040174E+02  0.00000000000E+00 0.  1.
         11    1    3    3    0    0 -0.10074241040E+02  0.11636525942E+02  0.13233894572E+02  0.20298646120E+02  0.51100000000E-03 0. -1.
        -11    1    3    3    0    0 -0.45756323740E+00  0.25226602201E+01  0.48473647646E+01  0.54836232661E+01  0.51100000000E-03 0.  1.
        -12    1    3    3    0    0  0.27134316668E+02 -0.17536632607E+02  0.89311266335E+01  0.33519690440E+02  0.00000000000E+00 0.  1.
</event>
<event>
 7    1  0.6841384E-013  0.5930193E+02  0.7816164E-02  0.1266605E+00
        -11   -1    0    0    0    0  0.00000000000E+00  0.00000000000E+00  0.45593999997E+02  0.45594000000E+02  0.51100000000E-03 0.  1.
         11   -1    0    0    0    0 -0.00000000000E+00 -0.00000000000E+00 -0.45593999997E+02  0.45594000000E+02  0.51100000000E-03 0. -1.
    9900012    2    1    2    0    0 -0.16088664063E+02 -0.12355305244E+02 -0.24601277274E+02  0.59301929020E+02  0.49999972630E+02 0.  0.
        -12    1    1    2    0    0  0.16088664063E+02  0.12355305244E+02  0.24601277274E+02  0.31886070980E+02  0.00000000000E+00 0.  1.
         11    1    3    3    0    0 -0.19258825135E+02 -0.16671984084E+02 -0.30923350404E+01  0.25659694759E+02  0.51100000000E-03 0. -1.
        -11    1    3    3    0    0 -0.79155567551E+01 -0.26527881497E+01  0.13054165597E+00  0.83492733274E+01  0.51100000000E-03 0.  1.
         12    1    3    3    0    0  0.11085717826E+02  0.69694669891E+01 -0.21639483889E+02  0.25292960934E+02  0.00000000000E+00 0. -1.
</event>
<event>
 7    1  0.6841384E-013  0.5930195E+02  0.7816164E-02  0.1266605E+00
        -11   -1    0    0    0    0  0.00000000000E+00  0.00000000000E+00  0.45593999997E+02  0.45594000000E+02  0.51100000000E-03 0. -1.
         11   -1    0    0    0    0 -0.00000000000E+00 -0.00000000000E+00 -0.45593999997E+02  0.45594000000E+02  0.51100000000E-03 0.  1.
    9900012    2    1    2    0    0 -0.15820849979E+02 -0.19347735898E+02  0.19801162791E+02  0.59301949346E+02  0.50000009699E+02 0.  0.
        -12    1    1    2    0    0  0.15820849979E+02  0.19347735898E+02 -0.19801162791E+02  0.31886050654E+02  0.00000000000E+00 0.  1.
         11    1    3    3    0    0 -0.13776622727E+02 -0.13210322798E+02 -0.10740067510E+02  0.21901073320E+02  0.51100000000E-03 0. -1.
        -11    1    3    3    0    0  0.45067893607E+01  0.26815519381E+01  0.33044398496E+00  0.52546231670E+01  0.51100000000E-03 0.  1.
        -12    1    3    3    0    0 -0.65510166135E+01 -0.88189650387E+01  0.30210786316E+02  0.32146252859E+02  0.00000000000E+00 0.  1.
</event>
<event>
 7    1  0.6841384E-013  0.5930191E+02  0.7816164E-02  0.1266605E+00
        -11   -1    0    0    0    0  0.00000000000E+00  0.00000000000E+00  0.45593999997E+02  0.45594000000E+02  0.51100000000E-03 0.  1.
         11   -1    0    0    0    0 -0.00000000000E+00 -0.00000000000E+00 -0.45593999997E+02  0.45594000000E+02  0.51100000000E-03 0. -1.
    9900012    2    1    2    0    0  0.22648480604E+02 -0.99003803094E+01  0.20143278558E+02  0.59301907812E+02  0.49999933952E+02 0.  0.
        -12    1    1    2    0    0 -0.22648480604E+02  0.99003803094E+01 -0.20143278558E+02  0.31886092188E+02  0.00000000000E+00 0.  1.
         11    1    3    3    0    0  0.20069571496E+01 -0.31433824499E+01  0.37783310477E+01  0.53089091152E+01  0.51100000000E-03 0. -1.
        -11    1    3    3    0    0  0.29933272532E+01 -0.20890338228E+02  0.22212396391E+02  0.30639138255E+02  0.51100000000E-03 0.  1.
         12    1    3    3    0    0  0.17648196201E+02  0.14133340369E+02 -0.58474488806E+01  0.23353860442E+02  0.00000000000E+00 0. -1.
</event>
<event>
 7    1  0.6841384E-013  0.5930195E+02  0.7816164E-02  0.1266605E+00
        -11   -1    0    0    0    0  0.00000000000E+00  0.00000000000E+00  0.45593999997E+02  0.45594000000E+02  0.51100000000E-03 0.  1.
         11   -1    0    0    0    0 -0.00000000000E+00 -0.00000000000E+00 -0.45593999997E+02  0.45594000000E+02  0.51100000000E-03 0. -1.
    9900012    2    1    2    0    0  0.15745668974E+02  0.27586330681E+02 -0.27907539847E+01  0.59301952272E+02  0.50000015036E+02 0.  0.
        -12    1    1    2    0    0 -0.15745668974E+02 -0.27586330681E+02  0.27907539847E+01  0.31886047728E+02  0.00000000000E+00 0.  1.
         11    1    3    3    0    0  0.73017364633E+01  0.20669026815E+02  0.16727980865E+02  0.27574433248E+02  0.51100000000E-03 0. -1.
        -11    1    3    3    0    0  0.87204843251E+01  0.79849763155E+01  0.34905603476E+00  0.11829139191E+02  0.51100000000E-03 0.  1.
         12    1    3    3    0    0 -0.27655181483E+00 -0.10676724494E+01 -0.19867790884E+02  0.19898379833E+02  0.00000000000E+00 0. -1.
</event>
<event>
 7    1  0.6841384E-013  0.5930191E+02  0.7816164E-02  0.1266605E+00
        -11   -1    0    0    0    0  0.00000000000E+00  0.00000000000E+00  0.45593999997E+02  0.45594000000E+02  0.51100000000E-03 0.  1.
         11   -1    0    0    0    0 -0.00000000000E+00 -0.00000000000E+00 -0.45593999997E+02  0.45594000000E+02  0.51100000000E-03 0. -1.
    9900012    2    1    2    0    0  0.27718524666E+02 -0.47314473382E+01 -0.15033954533E+02  0.59301905971E+02  0.49999930593E+02 0.  0.
        -12    1    1    2    0    0 -0.27718524666E+02  0.47314473382E+01  0.15033954533E+02  0.31886094029E+02  0.00000000000E+00 0.  1.
         11    1    3    3    0    0 -0.14086671479E+01  0.25838004657E+01  0.53591704053E+01  0.61140065158E+01  0.51100000000E-03 0. -1.
        -11    1    3    3    0    0  0.65001767903E+00  0.12793278720E+02 -0.11489834330E+02  0.17207753967E+02  0.51100000000E-03 0.  1.
         12    1    3    3    0    0  0.28477174135E+02 -0.20108526524E+02 -0.89032906076E+01  0.35980145488E+02  0.00000000000E+00 0. -1.
</event>
<event>
 7    1  0.6841384E-013  0.5930194E+02  0.7816164E-02  0.1266605E+00
        -11   -1    0    0    0    0  0.00000000000E+00  0.00000000000E+00  0.45593999997E+02  0.45594000000E+02  0.51100000000E-03 0.  1.
         11   -1    0    0    0    0 -0.00000000000E+00 -0.00000000000E+00 -0.45593999997E+02  0.45594000000E+02  0.51100000000E-03 0. -1.
    9900012    2    1    2    0    0  0.79371719320E+01  0.18882683564E+02 -0.24436982228E+02  0.59301944470E+02  0.50000000807E+02 0.  0.
        -12    1    1    2    0    0 -0.79371719320E+01 -0.18882683564E+02  0.24436982228E+02  0.31886055530E+02  0.00000000000E+00 0.  1.
         11    1    3    3    0    0  0.93635277881E+01  0.14536524096E+02 -0.25699708935E+02  0.30975171106E+02  0.51100000000E-03 0. -1.
        -11    1    3    3    0    0  0.77677798303E+01  0.10053958635E+02 -0.71868917510E+01  0.14596982600E+02  0.51100000000E-03 0.  1.
         12    1    3    3    0    0 -0.91941356864E+01 -0.57077991669E+01  0.84496184584E+01  0.13729790765E+02  0.00000000000E+00 0. -1.
</event>
<event>
 7    1  0.6841384E-013  0.5930196E+02  0.7816164E-02  0.1266605E+00
        -11   -1    0    0    0    0  0.00000000000E+00  0.00000000000E+00  0.45593999997E+02  0.45594000000E+02  0.51100000000E-03 0. -1.
         11   -1    0    0    0    0 -0.00000000000E+00 -0.00000000000E+00 -0.45593999997E+02  0.45594000000E+02  0.51100000000E-03 0.  1.
    9900012    2    1    2    0    0  0.16054344474E+02  0.25781423207E+02  0.97106175379E+01  0.59301955215E+02  0.50000020402E+02 0.  0.
        -12    1    1    2    0    0 -0.16054344474E+02 -0.25781423207E+02 -0.97106175379E+01  0.31886044785E+02  0.00000000000E+00 0.  1.
         11    1    3    3    0    0  0.89123825946E+01  0.14696598253E+02  0.83327030426E+01  0.19101164990E+02  0.51100000000E-03 0. -1.
        -11    1    3    3    0    0 -0.59031821262E+01 -0.96780597809E+01  0.90522013550E+01  0.14507058626E+02  0.51100000000E-03 0.  1.
         12    1    3    3    0    0  0.13045144006E+02  0.20762884735E+02 -0.76742868596E+01  0.25693731598E+02  0.00000000000E+00 0. -1.
</event>
<event>
 7    1  0.6841384E-013  0.5930193E+02  0.7816164E-02  0.1266605E+00
        -11   -1    0    0    0    0  0.00000000000E+00  0.00000000000E+00  0.45593999997E+02  0.45594000000E+02  0.51100000000E-03 0.  1.
         11   -1    0    0    0    0 -0.00000000000E+00 -0.00000000000E+00 -0.45593999997E+02  0.45594000000E+02  0.51100000000E-03 0. -1.
    9900012    2    1    2    0    0 -0.92628288778E+01 -0.13576148521E+02 -0.27324155086E+02  0.59301933158E+02  0.49999980176E+02 0.  0.
        -12    1    1    2    0    0  0.92628288778E+01  0.13576148521E+02  0.27324155086E+02  0.31886066842E+02  0.00000000000E+00 0.  1.
         11    1    3    3    0    0  0.13139736453E+02  0.28387504979E+01 -0.90400113392E+01  0.16199783447E+02  0.51100000000E-03 0. -1.
        -11    1    3    3    0    0 -0.43635043535E+01  0.77234871636E+01 -0.34957545179E+01  0.95348164178E+01  0.51100000000E-03 0.  1.
        -12    1    3    3    0    0 -0.18039060977E+02 -0.24138386183E+02 -0.14788389229E+02  0.33567333293E+02  0.00000000000E+00 0.  1.
</event>
<event>
 7    1  0.6841384E-013  0.5930190E+02  0.7816164E-02  0.1266605E+00
        -11   -1    0    0    0    0  0.00000000000E+00  0.00000000000E+00  0.45593999997E+02  0.45594000000E+02  0.51100000000E-03 0.  1.
         11   -1    0    0    0    0 -0.00000000000E+00 -0.00000000000E+00 -0.45593999997E+02  0.45594000000E+02  0.51100000000E-03 0. -1.
    9900012    2    1    2    0    0  0.22535388738E+02 -0.22325712945E+01 -0.22447606983E+02  0.59301903039E+02  0.49999925246E+02 0.  0.
        -12    1    1    2    0    0 -0.22535388738E+02  0.22325712945E+01  0.22447606983E+02  0.31886096961E+02  0.00000000000E+00 0.  1.
         11    1    3    3    0    0  0.19613238429E+01 -0.14973248846E+02 -0.26404024872E+02  0.30417388151E+02  0.51100000000E-03 0. -1.
        -11    1    3    3    0    0  0.50211112863E+01  0.34583370209E+00  0.71480617961E+01  0.87421935006E+01  0.51100000000E-03 0.  1.
        -12    1    3    3    0    0  0.15552953609E+02  0.12394843850E+02 -0.31916439072E+01  0.20142321387E+02  0.00000000000E+00 0.  1.
</event>
<event>
 7    1  0.6841384E-013  0.5930193E+02  0.7816164E-02  0.1266605E+00
        -11   -1    0    0    0    0  0.00000000000E+00  0.00000000000E+00  0.45593999997E+02  0.45594000000E+02  0.51100000000E-03 0.  1.
         11   -1    0    0    0    0 -0.00000000000E+00 -0.00000000000E+00 -0.45593999997E+02  0.45594000000E+02  0.51100000000E-03 0. -1.
    9900012    2    1    2    0    0 -0.30136353522E+02  0.10638704256E+01 -0.10362908142E+02  0.59301929545E+02  0.49999973587E+02 0.  0.
        -12    1    1    2    0    0  0.30136353522E+02 -0.10638704256E+01  0.10362908142E+02  0.31886070455E+02  0.00000000000E+00 0.  1.
         11    1    3    3    0    0 -0.15638678941E+02  0.13296076079E+02  0.84881659140E+01  0.22212673836E+02  0.51100000000E-03 0. -1.
        -11    1    3    3    0    0 -0.75375763793E+01 -0.97260400867E+01  0.41042973901E+01  0.12971359635E+02  0.51100000000E-03 0.  1.
        -12    1    3    3    0    0 -0.69600982016E+01 -0.25061655664E+01 -0.22955371446E+02  0.24117896074E+02  0.00000000000E+00 0.  1.
</event>
<event>
 7    1  0.6841384E-013  0.5930194E+02  0.7816164E-02  0.1266605E+00
        -11   -1    0    0    0    0  0.00000000000E+00  0.00000000000E+00  0.45593999997E+02  0.45594000000E+02  0.51100000000E-03 0.  1.
         11   -1    0    0    0    0 -0.00000000000E+00 -0.00000000000E+00 -0.45593999997E+02  0.45594000000E+02  0.51100000000E-03 0. -1.
    9900012    2    1    2    0    0  0.31749032912E+02  0.77869996775E+00 -0.28483537117E+01  0.59301943747E+02  0.49999999488E+02 0.  0.
        -12    1    1    2    0    0 -0.31749032912E+02 -0.77869996775E+00  0.28483537117E+01  0.31886056253E+02  0.00000000000E+00 0.  1.
         11    1    3    3    0    0  0.11069195460E+01  0.10697932169E+02 -0.61736084482E+00  0.10772750728E+02  0.51100000000E-03 0. -1.
        -11    1    3    3    0    0  0.11404134768E+02  0.13148909723E+02  0.39842967361E+01  0.17855608011E+02  0.51100000000E-03 0.  1.
        -12    1    3    3    0    0  0.19237978598E+02 -0.23068141924E+02 -0.62152896029E+01  0.30673585008E+02  0.00000000000E+00 0.  1.
</event>
<event>
 7    1  0.6841384E-013  0.5930197E+02  0.7816164E-02  0.1266605E+00
        -11   -1    0    0    0    0  0.00000000000E+00  0.00000000000E+00  0.45593999997E+02  0.45594000000E+02  0.51100000000E-03 0.  1.
         11   -1    0    0    0    0 -0.00000000000E+00 -0.00000000000E+00 -0.45593999997E+02  0.45594000000E+02  0.51100000000E-03 0. -1.
    9900012    2    1    2    0    0  0.28770739502E+02  0.10193882499E+02 -0.92221579195E+01  0.59301970323E+02  0.50000047955E+02 0.  0.
        -12    1    1    2    0    0 -0.28770739502E+02 -0.10193882499E+02  0.92221579195E+01  0.31886029677E+02  0.00000000000E+00 0.  1.
         11    1    3    3    0    0  0.72529888757E+01 -0.13179481781E+02 -0.24178472645E+01  0.15236488221E+02  0.51100000000E-03 0. -1.
        -11    1    3    3    0    0 -0.27579064520E+01 -0.51485224226E+01 -0.25414067343E+01  0.63696216202E+01  0.51100000000E-03 0.  1.
        -12    1    3    3    0    0  0.24275657078E+02  0.28521886702E+02 -0.42629039207E+01  0.37695860482E+02  0.00000000000E+00 0.  1.
</event>
<event>
 7    1  0.6841384E-013  0.5930196E+02  0.7816164E-02  0.1266605E+00
        -11   -1    0    0    0    0  0.00000000000E+00  0.00000000000E+00  0.45593999997E+02  0.45594000000E+02  0.51100000000E-03 0.  1.
         11   -1    0    0    0    0 -0.00000000000E+00 -0.00000000000E+00 -0.45593999997E+02  0.45594000000E+02  0.51100000000E-03 0. -1.
    9900012    2    1    2    0    0  0.46795727505E+01 -0.21076140273E+02 -0.23465245561E+02  0.59301955417E+02  0.50000020771E+02 0.  0.
        -12    1    1    2    0    0 -0.46795727505E+01  0.21076140273E+02  0.23465245561E+02  0.31886044583E+02  0.00000000000E+00 0.  1.
         11    1    3    3    0    0  0.51795081802E+00 -0.55472844273E+01 -0.22384528657E+02  0.23067461087E+02  0.51100000000E-03 0. -1.
        -11    1    3    3    0    0 -0.62618877329E+01 -0.14790229242E+02 -0.12796484055E+02  0.20535630583E+02  0.51100000000E-03 0.  1.
        -12    1    3    3    0    0  0.10423509665E+02 -0.73862660341E+00  0.11715767151E+02  0.15698863747E+02  0.00000000000E+00 0.  1.
</event>
<event>
 7    1  0.6841384E-013  0.5930194E+02  0.7816164E-02  0.1266605E+00
        -11   -1    0    0    0    0  0.00000000000E+00  0.00000000000E+00  0.45593999997E+02  0.45594000000E+02  0.51100000000E-03 0.  1.
         11   -1    0    0    0    0 -0.00000000000E+00 -0.00000000000E+00 -0.45593999997E+02  0.45594000000E+02  0.51100000000E-03 0. -1.
    9900012    2    1    2    0    0 -0.30847886083E+02  0.75669561118E+01  0.28053794048E+01  0.59301936364E+02  0.49999986023E+02 0.  0.
        -12    1    1    2    0    0  0.30847886083E+02 -0.75669561118E+01 -0.28053794048E+01  0.31886063636E+02  0.00000000000E+00 0.  1.
         11    1    3    3    0    0 -0.28978647575E+01  0.44216764929E+01  0.67657265363E+01  0.85862622243E+01  0.51100000000E-03 0.  1.
        -11    1    3    3    0    0 -0.14470880907E+02  0.19066810462E+02 -0.13822677776E+02  0.27640840736E+02  0.51100000000E-03 0. -1.
         12    1    3    3    0    0 -0.13479140419E+02 -0.15921530843E+02  0.98623306448E+01  0.23074833403E+02  0.00000000000E+00 0. -1.
</event>
<event>
 7    1  0.6841384E-013  0.5930212E+02  0.7816164E-02  0.1266604E+00
        -11   -1    0    0    0    0  0.00000000000E+00  0.00000000000E+00  0.45593999997E+02  0.45594000000E+02  0.51100000000E-03 0. -1.
         11   -1    0    0    0    0 -0.00000000000E+00 -0.00000000000E+00 -0.45593999997E+02  0.45594000000E+02  0.51100000000E-03 0.  1.
    9900012    2    1    2    0    0  0.26098898658E+02  0.17514138709E+02 -0.53676444306E+01  0.59302122678E+02  0.50000325814E+02 0.  0.
        -12    1    1    2    0    0 -0.26098898658E+02 -0.17514138709E+02  0.53676444306E+01  0.31885877322E+02  0.00000000000E+00 0.  1.
         11    1    3    3    0    0  0.97671751095E+01  0.89487243237E+01 -0.21528349418E+01  0.13420584011E+02  0.51100000000E-03 0. -1.
        -11    1    3    3    0    0  0.65125651642E+01  0.25423353500E+02 -0.24324895973E+01  0.26356733752E+02  0.51100000000E-03 0.  1.
         12    1    3    3    0    0  0.98191583840E+01 -0.16857939115E+02 -0.78231989154E+00  0.19524804915E+02  0.00000000000E+00 0. -1.
</event>
<event>
 7    1  0.6841384E-013  0.5930191E+02  0.7816164E-02  0.1266605E+00
        -11   -1    0    0    0    0  0.00000000000E+00  0.00000000000E+00  0.45593999997E+02  0.45594000000E+02  0.51100000000E-03 0.  1.
         11   -1    0    0    0    0 -0.00000000000E+00 -0.00000000000E+00 -0.45593999997E+02  0.45594000000E+02  0.51100000000E-03 0. -1.
    9900012    2    1    2    0    0  0.18840773010E+02 -0.19924487695E+02  0.16271539459E+02  0.59301906889E+02  0.49999932267E+02 0.  0.
        -12    1    1    2    0    0 -0.18840773010E+02  0.19924487695E+02 -0.16271539459E+02  0.31886093111E+02  0.00000000000E+00 0.  1.
         11    1    3    3    0    0  0.10518415770E+02 -0.32739423067E+02  0.80196228955E+01  0.35310356055E+02  0.51100000000E-03 0.  1.
        -11    1    3    3    0    0  0.54064900116E+01  0.27068169105E+01 -0.44436713474E+01  0.75035463173E+01  0.51100000000E-03 0. -1.
        -12    1    3    3    0    0  0.29158672290E+01  0.10108118462E+02  0.12695587911E+02  0.16488004517E+02  0.00000000000E+00 0.  1.
</event>
<event>
 7    1  0.6841384E-013  0.5930179E+02  0.7816164E-02  0.1266605E+00
        -11   -1    0    0    0    0  0.00000000000E+00  0.00000000000E+00  0.45593999997E+02  0.45594000000E+02  0.51100000000E-03 0.  1.
         11   -1    0    0    0    0 -0.00000000000E+00 -0.00000000000E+00 -0.45593999997E+02  0.45594000000E+02  0.51100000000E-03 0. -1.
    9900012    2    1    2    0    0 -0.16662724146E+02  0.90270957176E+01 -0.25643620819E+02  0.59301794178E+02  0.49999726709E+02 0.  0.
        -12    1    1    2    0    0  0.16662724146E+02 -0.90270957176E+01  0.25643620819E+02  0.31886205822E+02  0.00000000000E+00 0.  1.
         11    1    3    3    0    0 -0.17913754540E+02  0.77262720529E+00 -0.75906359659E+01  0.19470934984E+02  0.51100000000E-03 0. -1.
        -11    1    3    3    0    0 -0.15215448136E+02 -0.27518153740E+01 -0.10206222278E+02  0.18526989050E+02  0.51100000000E-03 0.  1.
        -12    1    3    3    0    0  0.16466478530E+02  0.11006283886E+02 -0.78467625747E+01  0.21303870143E+02  0.00000000000E+00 0.  1.
</event>
<event>
 7    1  0.6841384E-013  0.5930195E+02  0.7816164E-02  0.1266605E+00
        -11   -1    0    0    0    0  0.00000000000E+00  0.00000000000E+00  0.45593999997E+02  0.45594000000E+02  0.51100000000E-03 0.  1.
         11   -1    0    0    0    0 -0.00000000000E+00 -0.00000000000E+00 -0.45593999997E+02  0.45594000000E+02  0.51100000000E-03 0. -1.
    9900012    2    1    2    0    0  0.10529192781E+02  0.30091315920E+02  0.60732275813E+00  0.59301952341E+02  0.50000015161E+02 0.  0.
        -12    1    1    2    0    0 -0.10529192781E+02 -0.30091315920E+02 -0.60732275813E+00  0.31886047659E+02  0.00000000000E+00 0.  1.
         11    1    3    3    0    0  0.13746660772E+02  0.22776868385E+02 -0.10846686361E+02  0.28729897687E+02  0.51100000000E-03 0. -1.
        -11    1    3    3    0    0  0.18597817692E+01  0.60313503770E+01 -0.81343167771E+01  0.10295779975E+02  0.51100000000E-03 0.  1.
        -12    1    3    3    0    0 -0.50772497606E+01  0.12830971576E+01  0.19588325896E+02  0.20276274679E+02  0.00000000000E+00 0.  1.
</event>
<event>
 7    1  0.6841384E-013  0.5930188E+02  0.7816164E-02  0.1266605E+00
        -11   -1    0    0    0    0  0.00000000000E+00  0.00000000000E+00  0.45593999997E+02  0.45594000000E+02  0.51100000000E-03 0.  1.
         11   -1    0    0    0    0 -0.00000000000E+00 -0.00000000000E+00 -0.45593999997E+02  0.45594000000E+02  0.51100000000E-03 0. -1.
    9900012    2    1    2    0    0 -0.18992681404E+02  0.10523442732E+02  0.23350803085E+02  0.59301877649E+02  0.49999878942E+02 0.  0.
        -12    1    1    2    0    0  0.18992681404E+02 -0.10523442732E+02 -0.23350803085E+02  0.31886122351E+02  0.00000000000E+00 0.  1.
         11    1    3    3    0    0  0.45531396351E+00  0.10261218787E+02 -0.30513086730E+01  0.10714961814E+02  0.51100000000E-03 0. -1.
        -11    1    3    3    0    0  0.86549719001E+01  0.62242579574E+01  0.13207916094E+02  0.16973478533E+02  0.51100000000E-03 0.  1.
         12    1    3    3    0    0 -0.28102967267E+02 -0.59620340124E+01  0.13194195664E+02  0.31613437302E+02  0.00000000000E+00 0. -1.
</event>
<event>
 7    1  0.6841384E-013  0.5930195E+02  0.7816164E-02  0.1266605E+00
        -11   -1    0    0    0    0  0.00000000000E+00  0.00000000000E+00  0.45593999997E+02  0.45594000000E+02  0.51100000000E-03 0.  1.
         11   -1    0    0    0    0 -0.00000000000E+00 -0.00000000000E+00 -0.45593999997E+02  0.45594000000E+02  0.51100000000E-03 0. -1.
    9900012    2    1    2    0    0 -0.26324161609E+02  0.14719166786E+02 -0.10349148251E+02  0.59301949370E+02  0.50000009742E+02 0.  0.
        -12    1    1    2    0    0  0.26324161609E+02 -0.14719166786E+02  0.10349148251E+02  0.31886050630E+02  0.00000000000E+00 0.  1.
         11    1    3    3    0    0  0.14157934542E+01 -0.55101157841E+01 -0.30765918491E+01  0.64677093879E+01  0.51100000000E-03 0. -1.
        -11    1    3    3    0    0  0.49527268742E+01 -0.75689165840E+01 -0.36988781243E+01  0.97723948644E+01  0.51100000000E-03 0.  1.
         12    1    3    3    0    0 -0.32692681937E+02  0.27798199154E+02 -0.35736782779E+01  0.43061845117E+02  0.00000000000E+00 0. -1.
</event>
<event>
 7    1  0.6841384E-013  0.5930194E+02  0.7816164E-02  0.1266605E+00
        -11   -1    0    0    0    0  0.00000000000E+00  0.00000000000E+00  0.45593999997E+02  0.45594000000E+02  0.51100000000E-03 0. -1.
         11   -1    0    0    0    0 -0.00000000000E+00 -0.00000000000E+00 -0.45593999997E+02  0.45594000000E+02  0.51100000000E-03 0.  1.
    9900012    2    1    2    0    0  0.17461763804E+01  0.27169085624E+02  0.16598563546E+02  0.59301942586E+02  0.49999997371E+02 0.  0.
        -12    1    1    2    0    0 -0.17461763804E+01 -0.27169085624E+02 -0.16598563546E+02  0.31886057414E+02  0.00000000000E+00 0.  1.
         11    1    3    3    0    0 -0.48286525614E+01  0.66374488397E+01  0.14658773085E+02  0.16800334559E+02  0.51100000000E-03 0. -1.
        -11    1    3    3    0    0  0.84784299223E+01  0.30014372682E+02  0.64194211592E+01  0.31842664928E+02  0.51100000000E-03 0.  1.
         12    1    3    3    0    0 -0.19036009805E+01 -0.94827358978E+01 -0.44796306984E+01  0.10658943099E+02  0.00000000000E+00 0. -1.
</event>
<event>
 7    1  0.6841384E-013  0.5930195E+02  0.7816164E-02  0.1266605E+00
        -11   -1    0    0    0    0  0.00000000000E+00  0.00000000000E+00  0.45593999997E+02  0.45594000000E+02  0.51100000000E-03 0.  1.
         11   -1    0    0    0    0 -0.00000000000E+00 -0.00000000000E+00 -0.45593999997E+02  0.45594000000E+02  0.51100000000E-03 0. -1.
    9900012    2    1    2    0    0  0.15364670870E+02 -0.15497063186E+01  0.27897049686E+02  0.59301951612E+02  0.50000013833E+02 0.  0.
        -12    1    1    2    0    0 -0.15364670870E+02  0.15497063186E+01 -0.27897049686E+02  0.31886048388E+02  0.00000000000E+00 0.  1.
         11    1    3    3    0    0  0.24917693265E+02 -0.18074800431E+01  0.19226098150E+02  0.31524613750E+02  0.51100000000E-03 0. -1.
        -11    1    3    3    0    0  0.27697727549E+01  0.62508542765E+01  0.11877105146E+02  0.13704395178E+02  0.51100000000E-03 0.  1.
        -12    1    3    3    0    0 -0.12322795150E+02 -0.59930805519E+01 -0.32061536103E+01  0.14072942684E+02  0.00000000000E+00 0.  1.
</event>
<event>
 7    1  0.6841384E-013  0.5930196E+02  0.7816164E-02  0.1266605E+00
        -11   -1    0    0    0    0  0.00000000000E+00  0.00000000000E+00  0.45593999997E+02  0.45594000000E+02  0.51100000000E-03 0.  1.
         11   -1    0    0    0    0 -0.00000000000E+00 -0.00000000000E+00 -0.45593999997E+02  0.45594000000E+02  0.51100000000E-03 0. -1.
    9900012    2    1    2    0    0  0.41505273824E+01  0.15781225286E+02 -0.27394257712E+02  0.59301963798E+02  0.50000036056E+02 0.  0.
        -12    1    1    2    0    0 -0.41505273824E+01 -0.15781225286E+02  0.27394257712E+02  0.31886036202E+02  0.00000000000E+00 0.  1.
         11    1    3    3    0    0  0.30755350645E+01  0.26640836814E+02 -0.88310000790E+01  0.28234370273E+02  0.51100000000E-03 0.  1.
        -11    1    3    3    0    0  0.11280423848E+02 -0.86674470033E+01 -0.85183208753E+01  0.16581145634E+02  0.51100000000E-03 0. -1.
        -12    1    3    3    0    0 -0.10205431530E+02 -0.21921645242E+01 -0.10044936758E+02  0.14486447890E+02  0.00000000000E+00 0.  1.
</event>
<event>
 7    1  0.6841384E-013  0.5930194E+02  0.7816164E-02  0.1266605E+00
        -11   -1    0    0    0    0  0.00000000000E+00  0.00000000000E+00  0.45593999997E+02  0.45594000000E+02  0.51100000000E-03 0.  1.
         11   -1    0    0    0    0 -0.00000000000E+00 -0.00000000000E+00 -0.45593999997E+02  0.45594000000E+02  0.51100000000E-03 0. -1.
    9900012    2    1    2    0    0 -0.19758250241E+02  0.25012852376E+02 -0.83039367940E+00  0.59301940503E+02  0.49999993572E+02 0.  0.
        -12    1    1    2    0    0  0.19758250241E+02 -0.25012852376E+02  0.83039367940E+00  0.31886059497E+02  0.00000000000E+00 0.  1.
         11    1    3    3    0    0 -0.13406677803E+02  0.23275323567E+02 -0.52679783556E+01  0.27372089673E+02  0.51100000000E-03 0.  1.
        -11    1    3    3    0    0 -0.47676314353E+01  0.13757470489E+02  0.10902858563E+02  0.18189849611E+02  0.51100000000E-03 0. -1.
         12    1    3    3    0    0 -0.15839410024E+01 -0.12019941680E+02 -0.64652738864E+01  0.13740001220E+02  0.00000000000E+00 0. -1.
</event>
<event>
 7    1  0.6841384E-013  0.5930191E+02  0.7816164E-02  0.1266605E+00
        -11   -1    0    0    0    0  0.00000000000E+00  0.00000000000E+00  0.45593999997E+02  0.45594000000E+02  0.51100000000E-03 0.  1.
         11   -1    0    0    0    0 -0.00000000000E+00 -0.00000000000E+00 -0.45593999997E+02  0.45594000000E+02  0.51100000000E-03 0. -1.
    9900012    2    1    2    0    0 -0.82478633942E+01 -0.64466764866E+00 -0.30794151957E+02  0.59301911471E+02  0.49999940624E+02 0.  0.
        -12    1    1    2    0    0  0.82478633942E+01  0.64466764866E+00  0.30794151957E+02  0.31886088529E+02  0.00000000000E+00 0.  1.
         11    1    3    3    0    0 -0.54627172147E+01 -0.39751019164E+01 -0.29524440450E+02  0.30287543623E+02  0.51100000000E-03 0. -1.
        -11    1    3    3    0    0  0.95080685252E+01 -0.66413173354E+01 -0.51914147668E+01  0.12706740360E+02  0.51100000000E-03 0.  1.
        -12    1    3    3    0    0 -0.12293214705E+02  0.99717516031E+01  0.39217032597E+01  0.16307627487E+02  0.00000000000E+00 0.  1.
</event>
<event>
 7    1  0.6841384E-013  0.5930194E+02  0.7816164E-02  0.1266605E+00
        -11   -1    0    0    0    0  0.00000000000E+00  0.00000000000E+00  0.45593999997E+02  0.45594000000E+02  0.51100000000E-03 0.  1.
         11   -1    0    0    0    0 -0.00000000000E+00 -0.00000000000E+00 -0.45593999997E+02  0.45594000000E+02  0.51100000000E-03 0. -1.
    9900012    2    1    2    0    0  0.92406682436E+01 -0.74940001231E+01 -0.29583284635E+02  0.59301941648E+02  0.49999995660E+02 0.  0.
        -12    1    1    2    0    0 -0.92406682436E+01  0.74940001231E+01  0.29583284635E+02  0.31886058352E+02  0.00000000000E+00 0.  1.
         11    1    3    3    0    0 -0.68517831593E+01 -0.14684920722E+00 -0.13377250368E+02  0.15030612923E+02  0.51100000000E-03 0. -1.
        -11    1    3    3    0    0 -0.11976968828E+02  0.70186707167E+00 -0.46429765960E+01  0.12864588281E+02  0.51100000000E-03 0.  1.
        -12    1    3    3    0    0  0.28069420231E+02 -0.80490179876E+01 -0.11563057670E+02  0.31406740445E+02  0.00000000000E+00 0.  1.
</event>
<event>
 7    1  0.6841384E-013  0.5930194E+02  0.7816164E-02  0.1266605E+00
        -11   -1    0    0    0    0  0.00000000000E+00  0.00000000000E+00  0.45593999997E+02  0.45594000000E+02  0.51100000000E-03 0.  1.
         11   -1    0    0    0    0 -0.00000000000E+00 -0.00000000000E+00 -0.45593999997E+02  0.45594000000E+02  0.51100000000E-03 0. -1.
    9900012    2    1    2    0    0 -0.71409404401E+00  0.13793487415E+02 -0.28739356792E+02  0.59301939500E+02  0.49999991742E+02 0.  0.
        -12    1    1    2    0    0  0.71409404401E+00 -0.13793487415E+02  0.28739356792E+02  0.31886060500E+02  0.00000000000E+00 0.  1.
         11    1    3    3    0    0 -0.43529558014E+01  0.14787986131E+02 -0.14137946996E+02  0.20916842581E+02  0.51100000000E-03 0. -1.
        -11    1    3    3    0    0  0.55034096390E+01  0.16013012694E+02 -0.12709151465E+02  0.21171363310E+02  0.51100000000E-03 0.  1.
        -12    1    3    3    0    0 -0.18645478816E+01 -0.17007511410E+02 -0.18922583309E+01  0.17213733609E+02  0.00000000000E+00 0.  1.
</event>
<event>
 7    1  0.6841384E-013  0.5930194E+02  0.7816164E-02  0.1266605E+00
        -11   -1    0    0    0    0  0.00000000000E+00  0.00000000000E+00  0.45593999997E+02  0.45594000000E+02  0.51100000000E-03 0.  1.
         11   -1    0    0    0    0 -0.00000000000E+00 -0.00000000000E+00 -0.45593999997E+02  0.45594000000E+02  0.51100000000E-03 0. -1.
    9900012    2    1    2    0    0 -0.19435252078E+02 -0.20090471938E+02 -0.15341603768E+02  0.59301938904E+02  0.49999990656E+02 0.  0.
        -12    1    1    2    0    0  0.19435252078E+02  0.20090471938E+02  0.15341603768E+02  0.31886061096E+02  0.00000000000E+00 0.  1.
         11    1    3    3    0    0 -0.56282661575E+01 -0.24123407212E+01 -0.72494601466E+01  0.94895437389E+01  0.51100000000E-03 0. -1.
        -11    1    3    3    0    0 -0.24207629793E+02  0.32695698076E+01 -0.98948955897E+01  0.26355424222E+02  0.51100000000E-03 0.  1.
         12    1    3    3    0    0  0.10400643873E+02 -0.20947701024E+02  0.18027519685E+01  0.23456970943E+02  0.00000000000E+00 0. -1.
</event>
<event>
 7    1  0.6841384E-013  0.5930195E+02  0.7816164E-02  0.1266605E+00
        -11   -1    0    0    0    0  0.00000000000E+00  0.00000000000E+00  0.45593999997E+02  0.45594000000E+02  0.51100000000E-03 0.  1.
         11   -1    0    0    0    0 -0.00000000000E+00 -0.00000000000E+00 -0.45593999997E+02  0.45594000000E+02  0.51100000000E-03 0. -1.
    9900012    2    1    2    0    0 -0.53951955944E+01  0.30861097737E+02 -0.59333292919E+01  0.59301954690E+02  0.50000019445E+02 0.  0.
        -12    1    1    2    0    0  0.53951955944E+01 -0.30861097737E+02  0.59333292919E+01  0.31886045310E+02  0.00000000000E+00 0.  1.
         11    1    3    3    0    0  0.13320338834E+02  0.90747588542E+01  0.41740181289E+00  0.16123178950E+02  0.51100000000E-03 0.  1.
        -11    1    3    3    0    0 -0.14779322650E+02 -0.28703328833E+01 -0.98127668678E+01  0.17971020637E+02  0.51100000000E-03 0. -1.
         12    1    3    3    0    0 -0.39362117778E+01  0.24656671766E+02  0.34620357630E+01  0.25207755104E+02  0.00000000000E+00 0. -1.
</event>
<event>
 7    1  0.6841384E-013  0.5930201E+02  0.7816164E-02  0.1266605E+00
        -11   -1    0    0    0    0  0.00000000000E+00  0.00000000000E+00  0.45593999997E+02  0.45594000000E+02  0.51100000000E-03 0. -1.
         11   -1    0    0    0    0 -0.00000000000E+00 -0.00000000000E+00 -0.45593999997E+02  0.45594000000E+02  0.51100000000E-03 0.  1.
    9900012    2    1    2    0    0  0.12138430958E+02 -0.19519990596E+02  0.22098525804E+02  0.59302009632E+02  0.50000119647E+02 0.  0.
        -12    1    1    2    0    0 -0.12138430958E+02  0.19519990596E+02 -0.22098525804E+02  0.31885990368E+02  0.00000000000E+00 0.  1.
         11    1    3    3    0    0  0.28326474040E+01  0.66606785404E+01  0.79659007146E+01  0.10763089909E+02  0.51100000000E-03 0. -1.
        -11    1    3    3    0    0 -0.12847051491E+02 -0.11275358481E+02 -0.22076054268E+01  0.17235253490E+02  0.51100000000E-03 0.  1.
         12    1    3    3    0    0  0.22152835045E+02 -0.14905310656E+02  0.16340230517E+02  0.31303666233E+02  0.00000000000E+00 0. -1.
</event>
<event>
 7    1  0.6841384E-013  0.5930194E+02  0.7816164E-02  0.1266605E+00
        -11   -1    0    0    0    0  0.00000000000E+00  0.00000000000E+00  0.45593999997E+02  0.45594000000E+02  0.51100000000E-03 0.  1.
         11   -1    0    0    0    0 -0.00000000000E+00 -0.00000000000E+00 -0.45593999997E+02  0.45594000000E+02  0.51100000000E-03 0. -1.
    9900012    2    1    2    0    0  0.31856212593E+01 -0.29234225940E+02 -0.12326100553E+02  0.59301938720E+02  0.49999990320E+02 0.  0.
        -12    1    1    2    0    0 -0.31856212593E+01  0.29234225940E+02  0.12326100553E+02  0.31886061280E+02  0.00000000000E+00 0.  1.
         11    1    3    3    0    0 -0.70053317354E+01  0.68461742592E+01 -0.83179974216E+01  0.12850441863E+02  0.51100000000E-03 0. -1.
        -11    1    3    3    0    0  0.32555839448E+01 -0.14298685149E+02 -0.15095108248E+02  0.21045510616E+02  0.51100000000E-03 0.  1.
        -12    1    3    3    0    0  0.69353690499E+01 -0.21781715050E+02  0.11087005117E+02  0.25405986240E+02  0.00000000000E+00 0.  1.
</event>
<event>
 7    1  0.6841384E-013  0.5930198E+02  0.7816164E-02  0.1266605E+00
        -11   -1    0    0    0    0  0.00000000000E+00  0.00000000000E+00  0.45593999997E+02  0.45594000000E+02  0.51100000000E-03 0.  1.
         11   -1    0    0    0    0 -0.00000000000E+00 -0.00000000000E+00 -0.45593999997E+02  0.45594000000E+02  0.51100000000E-03 0. -1.
    9900012    2    1    2    0    0 -0.25039465340E+02 -0.15024187129E+02 -0.12806925733E+02  0.59301978452E+02  0.50000062782E+02 0.  0.
        -12    1    1    2    0    0  0.25039465340E+02  0.15024187129E+02  0.12806925733E+02  0.31886021548E+02  0.00000000000E+00 0.  1.
         11    1    3    3    0    0  0.50650224453E+01  0.47150186250E+01 -0.61207495802E+01  0.92384754527E+01  0.51100000000E-03 0. -1.
        -11    1    3    3    0    0  0.17368738045E+01 -0.11680899650E+02 -0.11948259876E+02  0.16799436347E+02  0.51100000000E-03 0.  1.
         12    1    3    3    0    0 -0.31841361590E+02 -0.80583061050E+01  0.52620837236E+01  0.33264066653E+02  0.00000000000E+00 0. -1.
</event>
<event>
 7    1  0.6841384E-013  0.5930196E+02  0.7816164E-02  0.1266605E+00
        -11   -1    0    0    0    0  0.00000000000E+00  0.00000000000E+00  0.45593999997E+02  0.45594000000E+02  0.51100000000E-03 0.  1.
         11   -1    0    0    0    0 -0.00000000000E+00 -0.00000000000E+00 -0.45593999997E+02  0.45594000000E+02  0.51100000000E-03 0. -1.
    9900012    2    1    2    0    0 -0.30696647722E+02 -0.70016548416E+01 -0.50410520841E+01  0.59301959826E+02  0.50000028811E+02 0.  0.
        -12    1    1    2    0    0  0.30696647722E+02  0.70016548416E+01  0.50410520841E+01  0.31886040174E+02  0.00000000000E+00 0.  1.
         11    1    3    3    0    0 -0.24595960314E+02 -0.16118692402E+02 -0.34580027018E+01  0.29609648622E+02  0.51100000000E-03 0. -1.
        -11    1    3    3    0    0 -0.82979744285E+01 -0.82772995620E+01  0.17359390705E+01  0.11848356526E+02  0.51100000000E-03 0.  1.
         12    1    3    3    0    0  0.21972870209E+01  0.17394337123E+02 -0.33189884528E+01  0.17843954678E+02  0.00000000000E+00 0. -1.
</event>
<event>
 7    1  0.6841384E-013  0.5930192E+02  0.7816164E-02  0.1266605E+00
        -11   -1    0    0    0    0  0.00000000000E+00  0.00000000000E+00  0.45593999997E+02  0.45594000000E+02  0.51100000000E-03 0.  1.
         11   -1    0    0    0    0 -0.00000000000E+00 -0.00000000000E+00 -0.45593999997E+02  0.45594000000E+02  0.51100000000E-03 0. -1.
    9900012    2    1    2    0    0 -0.11053873183E+01  0.38053889786E+01 -0.31638892895E+02  0.59301915104E+02  0.49999947249E+02 0.  0.
        -12    1    1    2    0    0  0.11053873183E+01 -0.38053889786E+01  0.31638892895E+02  0.31886084896E+02  0.00000000000E+00 0.  1.
         11    1    3    3    0    0  0.73275910646E+01 -0.10476645960E+02 -0.19504801801E+02  0.23321470686E+02  0.51100000000E-03 0. -1.
        -11    1    3    3    0    0  0.92632563336E+01 -0.67654290972E+00 -0.83746375625E+01  0.12506005868E+02  0.51100000000E-03 0.  1.
         12    1    3    3    0    0 -0.17696234717E+02  0.14958577848E+02 -0.37594535312E+01  0.23474438550E+02  0.00000000000E+00 0. -1.
</event>
<event>
 7    1  0.6841384E-013  0.5930212E+02  0.7816164E-02  0.1266604E+00
        -11   -1    0    0    0    0  0.00000000000E+00  0.00000000000E+00  0.45593999997E+02  0.45594000000E+02  0.51100000000E-03 0. -1.
         11   -1    0    0    0    0 -0.00000000000E+00 -0.00000000000E+00 -0.45593999997E+02  0.45594000000E+02  0.51100000000E-03 0.  1.
    9900012    2    1    2    0    0  0.12626787304E+02 -0.27876074110E+02  0.89553272438E+01  0.59302123010E+02  0.50000326420E+02 0.  0.
        -12    1    1    2    0    0 -0.12626787304E+02  0.27876074110E+02 -0.89553272438E+01  0.31885876990E+02  0.00000000000E+00 0.  1.
         11    1    3    3    0    0  0.42826028347E+01 -0.65598296064E+00 -0.97325536945E+01  0.10653337616E+02  0.51100000000E-03 0. -1.
        -11    1    3    3    0    0 -0.13657395627E+02 -0.11376243612E+02  0.65513471581E+01  0.18943693512E+02  0.51100000000E-03 0.  1.
         12    1    3    3    0    0  0.22001580096E+02 -0.15843847537E+02  0.12136533780E+02  0.29705091882E+02  0.00000000000E+00 0. -1.
</event>
<event>
 7    1  0.6841384E-013  0.5930194E+02  0.7816164E-02  0.1266605E+00
        -11   -1    0    0    0    0  0.00000000000E+00  0.00000000000E+00  0.45593999997E+02  0.45594000000E+02  0.51100000000E-03 0. -1.
         11   -1    0    0    0    0 -0.00000000000E+00 -0.00000000000E+00 -0.45593999997E+02  0.45594000000E+02  0.51100000000E-03 0.  1.
    9900012    2    1    2    0    0  0.81101165583E+01  0.18663687006E+02  0.24548193163E+02  0.59301937358E+02  0.49999987835E+02 0.  0.
        -12    1    1    2    0    0 -0.81101165583E+01 -0.18663687006E+02 -0.24548193163E+02  0.31886062642E+02  0.00000000000E+00 0.  1.
         11    1    3    3    0    0 -0.99470773729E+01  0.55768898390E+01  0.18888922500E+02  0.22064393080E+02  0.51100000000E-03 0. -1.
        -11    1    3    3    0    0  0.12426984791E+02  0.22525362963E+02  0.27751279674E+01  0.25875147596E+02  0.51100000000E-03 0.  1.
         12    1    3    3    0    0  0.56302091397E+01 -0.94385657960E+01  0.28841426962E+01  0.11362396681E+02  0.00000000000E+00 0. -1.
</event>
<event>
 7    1  0.6841384E-013  0.5930195E+02  0.7816164E-02  0.1266605E+00
        -11   -1    0    0    0    0  0.00000000000E+00  0.00000000000E+00  0.45593999997E+02  0.45594000000E+02  0.51100000000E-03 0.  1.
         11   -1    0    0    0    0 -0.00000000000E+00 -0.00000000000E+00 -0.45593999997E+02  0.45594000000E+02  0.51100000000E-03 0. -1.
    9900012    2    1    2    0    0  0.62197319079E+01 -0.28774371101E+01 -0.31140893758E+02  0.59301953312E+02  0.50000016932E+02 0.  0.
        -12    1    1    2    0    0 -0.62197319079E+01  0.28774371101E+01  0.31140893758E+02  0.31886046688E+02  0.00000000000E+00 0.  1.
         11    1    3    3    0    0  0.91755772423E+01 -0.98948635673E+01 -0.18864860394E+02  0.23194449782E+02  0.51100000000E-03 0. -1.
        -11    1    3    3    0    0 -0.95488806418E+01 -0.10862460173E+02 -0.81789543406E+01  0.16615338001E+02  0.51100000000E-03 0.  1.
        -12    1    3    3    0    0  0.65930353074E+01  0.17879886630E+02 -0.40970790235E+01  0.19492165529E+02  0.00000000000E+00 0.  1.
</event>
<event>
 7    1  0.6841384E-013  0.5930193E+02  0.7816164E-02  0.1266605E+00
        -11   -1    0    0    0    0  0.00000000000E+00  0.00000000000E+00  0.45593999997E+02  0.45594000000E+02  0.51100000000E-03 0. -1.
         11   -1    0    0    0    0 -0.00000000000E+00 -0.00000000000E+00 -0.45593999997E+02  0.45594000000E+02  0.51100000000E-03 0.  1.
    9900012    2    1    2    0    0  0.80545969921E+01  0.11365452140E+02  0.28682251229E+02  0.59301928266E+02  0.49999971255E+02 0.  0.
        -12    1    1    2    0    0 -0.80545969921E+01 -0.11365452140E+02 -0.28682251229E+02  0.31886071734E+02  0.00000000000E+00 0.  1.
         11    1    3    3    0    0  0.19085548252E+01 -0.93138250707E+01  0.18791010781E+02  0.21059249878E+02  0.51100000000E-03 0. -1.
        -11    1    3    3    0    0  0.25868069809E+01 -0.40663134464E+01 -0.66887962065E+01  0.82441779672E+01  0.51100000000E-03 0.  1.
         12    1    3    3    0    0  0.35592351860E+01  0.24745590657E+02  0.16580036655E+02  0.29998500421E+02  0.00000000000E+00 0. -1.
</event>
<event>
 7    1  0.6841384E-013  0.5930190E+02  0.7816164E-02  0.1266605E+00
        -11   -1    0    0    0    0  0.00000000000E+00  0.00000000000E+00  0.45593999997E+02  0.45594000000E+02  0.51100000000E-03 0.  1.
         11   -1    0    0    0    0 -0.00000000000E+00 -0.00000000000E+00 -0.45593999997E+02  0.45594000000E+02  0.51100000000E-03 0. -1.
    9900012    2    1    2    0    0 -0.85564142256E+01 -0.30714949483E+02  0.32090614276E+00  0.59301900726E+02  0.49999921029E+02 0.  0.
        -12    1    1    2    0    0  0.85564142256E+01  0.30714949483E+02 -0.32090614276E+00  0.31886099274E+02  0.00000000000E+00 0.  1.
         11    1    3    3    0    0  0.76442857547E-01  0.68803096204E+01 -0.32793349301E+01  0.76222399482E+01  0.51100000000E-03 0. -1.
        -11    1    3    3    0    0  0.10487879390E+02 -0.59961409826E+01  0.79926541884E+01  0.14485573583E+02  0.51100000000E-03 0.  1.
         12    1    3    3    0    0 -0.19120736474E+02 -0.31599118121E+02 -0.43924131155E+01  0.37194087195E+02  0.00000000000E+00 0. -1.
</event>
<event>
 7    1  0.6841384E-013  0.5930194E+02  0.7816164E-02  0.1266605E+00
        -11   -1    0    0    0    0  0.00000000000E+00  0.00000000000E+00  0.45593999997E+02  0.45594000000E+02  0.51100000000E-03 0. -1.
         11   -1    0    0    0    0 -0.00000000000E+00 -0.00000000000E+00 -0.45593999997E+02  0.45594000000E+02  0.51100000000E-03 0.  1.
    9900012    2    1    2    0    0  0.16276710287E+02  0.15606483212E+02  0.22543890174E+02  0.59301943483E+02  0.49999999007E+02 0.  0.
        -12    1    1    2    0    0 -0.16276710287E+02 -0.15606483212E+02 -0.22543890174E+02  0.31886056517E+02  0.00000000000E+00 0.  1.
         11    1    3    3    0    0 -0.15529358129E+02  0.38190696779E+01  0.21096815325E+01  0.16130623470E+02  0.51100000000E-03 0. -1.
        -11    1    3    3    0    0 -0.57632192901E+00 -0.65691252059E+00 -0.17760331917E+01  0.19793875782E+01  0.51100000000E-03 0.  1.
        -12    1    3    3    0    0  0.32382390345E+02  0.12444326055E+02  0.22210241833E+02  0.41191932435E+02  0.00000000000E+00 0.  1.
</event>
<event>
 7    1  0.6841384E-013  0.5930196E+02  0.7816164E-02  0.1266605E+00
        -11   -1    0    0    0    0  0.00000000000E+00  0.00000000000E+00  0.45593999997E+02  0.45594000000E+02  0.51100000000E-03 0. -1.
         11   -1    0    0    0    0 -0.00000000000E+00 -0.00000000000E+00 -0.45593999997E+02  0.45594000000E+02  0.51100000000E-03 0.  1.
    9900012    2    1    2    0    0 -0.22395750349E+02  0.74769007528E+01  0.21430027577E+02  0.59301956651E+02  0.50000023021E+02 0.  0.
        -12    1    1    2    0    0  0.22395750349E+02 -0.74769007528E+01 -0.21430027577E+02  0.31886043349E+02  0.00000000000E+00 0.  1.
         11    1    3    3    0    0 -0.11496731648E+02  0.11316068526E+01  0.25050341180E+02  0.27585774706E+02  0.51100000000E-03 0. -1.
        -11    1    3    3    0    0 -0.12282876188E+02  0.11876994954E+02  0.79288062366E+01  0.18836083064E+02  0.51100000000E-03 0.  1.
        -12    1    3    3    0    0  0.13838574875E+01 -0.55317010535E+01 -0.11549119840E+02  0.12880098880E+02  0.00000000000E+00 0.  1.
</event>
<event>
 7    1  0.6841384E-013  0.5930195E+02  0.7816164E-02  0.1266605E+00
        -11   -1    0    0    0    0  0.00000000000E+00  0.00000000000E+00  0.45593999997E+02  0.45594000000E+02  0.51100000000E-03 0. -1.
         11   -1    0    0    0    0 -0.00000000000E+00 -0.00000000000E+00 -0.45593999997E+02  0.45594000000E+02  0.51100000000E-03 0.  1.
    9900012    2    1    2    0    0 -0.60050483919E+01  0.71262148224E+00  0.31307370757E+02  0.59301954474E+02  0.50000019052E+02 0.  0.
        -12    1    1    2    0    0  0.60050483919E+01 -0.71262148224E+00 -0.31307370757E+02  0.31886045526E+02  0.00000000000E+00 0.  1.
         11    1    3    3    0    0  0.54165816258E+01  0.34274617556E+01 -0.47768683934E+00  0.64276773078E+01  0.51100000000E-03 0. -1.
        -11    1    3    3    0    0  0.67377371267E+01 -0.79455178730E+00 -0.71581176066E+01  0.98624065046E+01  0.51100000000E-03 0.  1.
         12    1    3    3    0    0 -0.18159367144E+02 -0.19202884861E+01  0.38943175203E+02  0.43011870662E+02  0.00000000000E+00 0. -1.
</event>
<event>
 7    1  0.6841384E-013  0.5930195E+02  0.7816164E-02  0.1266605E+00
        -11   -1    0    0    0    0  0.00000000000E+00  0.00000000000E+00  0.45593999997E+02  0.45594000000E+02  0.51100000000E-03 0.  1.
         11   -1    0    0    0    0 -0.00000000000E+00 -0.00000000000E+00 -0.45593999997E+02  0.45594000000E+02  0.51100000000E-03 0. -1.
    9900012    2    1    2    0    0  0.27054865650E+02  0.16201943936E+02 -0.47171485118E+01  0.59301949246E+02  0.50000009516E+02 0.  0.
        -12    1    1    2    0    0 -0.27054865650E+02 -0.16201943936E+02  0.47171485118E+01  0.31886050754E+02  0.00000000000E+00 0.  1.
         11    1    3    3    0    0  0.69019290992E+01  0.18036218353E+02 -0.18865134909E+01  0.19403626753E+02  0.51100000000E-03 0. -1.
        -11    1    3    3    0    0  0.25698281530E+02  0.61036716515E+01 -0.95780982247E+01  0.28096199869E+02  0.51100000000E-03 0.  1.
        -12    1    3    3    0    0 -0.55453449795E+01 -0.79379460685E+01  0.67474632038E+01  0.11802122623E+02  0.00000000000E+00 0.  1.
</event>
<event>
 7    1  0.6841384E-013  0.5930197E+02  0.7816164E-02  0.1266605E+00
        -11   -1    0    0    0    0  0.00000000000E+00  0.00000000000E+00  0.45593999997E+02  0.45594000000E+02  0.51100000000E-03 0.  1.
         11   -1    0    0    0    0 -0.00000000000E+00 -0.00000000000E+00 -0.45593999997E+02  0.45594000000E+02  0.51100000000E-03 0. -1.
    9900012    2    1    2    0    0  0.64683150219E+01 -0.26277520164E+02 -0.16863322534E+02  0.59301971522E+02  0.50000050143E+02 0.  0.
        -12    1    1    2    0    0 -0.64683150219E+01  0.26277520164E+02  0.16863322534E+02  0.31886028478E+02  0.00000000000E+00 0.  1.
         11    1    3    3    0    0  0.60823470171E+01  0.21361402936E+01 -0.64648940952E+01  0.91297807484E+01  0.51100000000E-03 0. -1.
        -11    1    3    3    0    0  0.19788725209E+02 -0.13277535809E+02 -0.10676524668E+01  0.23854276024E+02  0.51100000000E-03 0.  1.
        -12    1    3    3    0    0 -0.19402757205E+02 -0.15136124648E+02 -0.93307759722E+01  0.26317914749E+02  0.00000000000E+00 0.  1.
</event>
<event>
 7    1  0.6841384E-013  0.5930193E+02  0.7816164E-02  0.1266605E+00
        -11   -1    0    0    0    0  0.00000000000E+00  0.00000000000E+00  0.45593999997E+02  0.45594000000E+02  0.51100000000E-03 0.  1.
         11   -1    0    0    0    0 -0.00000000000E+00 -0.00000000000E+00 -0.45593999997E+02  0.45594000000E+02  0.51100000000E-03 0. -1.
    9900012    2    1    2    0    0 -0.93394685066E+01  0.64927492643E+00 -0.30480714042E+02  0.59301934730E+02  0.49999983043E+02 0.  0.
        -12    1    1    2    0    0  0.93394685066E+01 -0.64927492643E+00  0.30480714042E+02  0.31886065270E+02  0.00000000000E+00 0.  1.
         11    1    3    3    0    0  0.88225257439E+01 -0.82655998761E+01 -0.56253087689E+01  0.13334211668E+02  0.51100000000E-03 0. -1.
        -11    1    3    3    0    0 -0.19263809514E+02 -0.64651278497E+01 -0.51790557886E+01  0.20969378966E+02  0.51100000000E-03 0.  1.
         12    1    3    3    0    0  0.11018152636E+01  0.15380002652E+02 -0.19676349485E+02  0.24998344095E+02  0.00000000000E+00 0. -1.
</event>
<event>
 7    1  0.6841384E-013  0.5930194E+02  0.7816164E-02  0.1266605E+00
        -11   -1    0    0    0    0  0.00000000000E+00  0.00000000000E+00  0.45593999997E+02  0.45594000000E+02  0.51100000000E-03 0.  1.
         11   -1    0    0    0    0 -0.00000000000E+00 -0.00000000000E+00 -0.45593999997E+02  0.45594000000E+02  0.51100000000E-03 0. -1.
    9900012    2    1    2    0    0 -0.34521950674E+01 -0.15571535472E+02 -0.27610329306E+02  0.59301942669E+02  0.49999997522E+02 0.  0.
        -12    1    1    2    0    0  0.34521950674E+01  0.15571535472E+02  0.27610329306E+02  0.31886057331E+02  0.00000000000E+00 0.  1.
         11    1    3    3    0    0 -0.14541402180E+02 -0.18236577238E+02 -0.30094323754E+02  0.38074840107E+02  0.51100000000E-03 0. -1.
        -11    1    3    3    0    0  0.12349808016E+01 -0.48466309311E+01  0.65002221939E+01  0.82017009086E+01  0.51100000000E-03 0.  1.
        -12    1    3    3    0    0  0.98542263111E+01  0.75116726977E+01 -0.40162277461E+01  0.13025401653E+02  0.00000000000E+00 0.  1.
</event>
<event>
 7    1  0.6841384E-013  0.5930194E+02  0.7816164E-02  0.1266605E+00
        -11   -1    0    0    0    0  0.00000000000E+00  0.00000000000E+00  0.45593999997E+02  0.45594000000E+02  0.51100000000E-03 0. -1.
         11   -1    0    0    0    0 -0.00000000000E+00 -0.00000000000E+00 -0.45593999997E+02  0.45594000000E+02  0.51100000000E-03 0.  1.
    9900012    2    1    2    0    0 -0.30804960839E+02  0.64805392028E+01 -0.50772033675E+01  0.59301937297E+02  0.49999987725E+02 0.  0.
        -12    1    1    2    0    0  0.30804960839E+02 -0.64805392028E+01  0.50772033675E+01  0.31886062703E+02  0.00000000000E+00 0.  1.
         11    1    3    3    0    0  0.28511655164E+01  0.13490719843E+02 -0.45522095646E+00  0.13796227494E+02  0.51100000000E-03 0.  1.
        -11    1    3    3    0    0 -0.13403483909E+02 -0.13640199580E+02 -0.12432125795E+02  0.22809344084E+02  0.51100000000E-03 0. -1.
        -12    1    3    3    0    0 -0.20252642446E+02  0.66300189399E+01  0.78101433835E+01  0.22696365720E+02  0.00000000000E+00 0.  1.
</event>
<event>
 7    1  0.6841384E-013  0.5930194E+02  0.7816164E-02  0.1266605E+00
        -11   -1    0    0    0    0  0.00000000000E+00  0.00000000000E+00  0.45593999997E+02  0.45594000000E+02  0.51100000000E-03 0. -1.
         11   -1    0    0    0    0 -0.00000000000E+00 -0.00000000000E+00 -0.45593999997E+02  0.45594000000E+02  0.51100000000E-03 0.  1.
    9900012    2    1    2    0    0 -0.24627322627E+02 -0.90446146330E+01  0.18122098527E+02  0.59301944604E+02  0.50000001052E+02 0.  0.
        -12    1    1    2    0    0  0.24627322627E+02  0.90446146330E+01 -0.18122098527E+02  0.31886055396E+02  0.00000000000E+00 0.  1.
         11    1    3    3    0    0  0.70150696489E+00 -0.81448448143E+00 -0.11373898887E+02  0.11424581968E+02  0.51100000000E-03 0. -1.
        -11    1    3    3    0    0  0.15375132842E+01 -0.52637254815E+01 -0.24709370962E+01  0.60146723467E+01  0.51100000000E-03 0.  1.
         12    1    3    3    0    0 -0.26866342876E+02 -0.29664046701E+01  0.31966934511E+02  0.41862690289E+02  0.00000000000E+00 0. -1.
</event>
<event>
 7    1  0.6841384E-013  0.5930195E+02  0.7816164E-02  0.1266605E+00
        -11   -1    0    0    0    0  0.00000000000E+00  0.00000000000E+00  0.45593999997E+02  0.45594000000E+02  0.51100000000E-03 0.  1.
         11   -1    0    0    0    0 -0.00000000000E+00 -0.00000000000E+00 -0.45593999997E+02  0.45594000000E+02  0.51100000000E-03 0. -1.
    9900012    2    1    2    0    0 -0.95345975542E+01 -0.10397848355E+02 -0.28595387121E+02  0.59301953436E+02  0.50000017158E+02 0.  0.
        -12    1    1    2    0    0  0.95345975542E+01  0.10397848355E+02  0.28595387121E+02  0.31886046564E+02  0.00000000000E+00 0.  1.
         11    1    3    3    0    0 -0.18547618556E+01 -0.10500018545E+01 -0.12563972975E+02  0.12743471372E+02  0.51100000000E-03 0. -1.
        -11    1    3    3    0    0 -0.20841768279E+02 -0.71603001599E+01  0.40915033431E+01  0.22414049238E+02  0.51100000000E-03 0.  1.
         12    1    3    3    0    0  0.13161932580E+02 -0.21875463402E+01 -0.20122917489E+02  0.24144432826E+02  0.00000000000E+00 0. -1.
</event>
<event>
 7    1  0.6841384E-013  0.5930192E+02  0.7816164E-02  0.1266605E+00
        -11   -1    0    0    0    0  0.00000000000E+00  0.00000000000E+00  0.45593999997E+02  0.45594000000E+02  0.51100000000E-03 0.  1.
         11   -1    0    0    0    0 -0.00000000000E+00 -0.00000000000E+00 -0.45593999997E+02  0.45594000000E+02  0.51100000000E-03 0. -1.
    9900012    2    1    2    0    0  0.25167440170E+01 -0.26308723663E+02 -0.17839267020E+02  0.59301915432E+02  0.49999947849E+02 0.  0.
        -12    1    1    2    0    0 -0.25167440170E+01  0.26308723663E+02  0.17839267020E+02  0.31886084568E+02  0.00000000000E+00 0.  1.
         11    1    3    3    0    0 -0.43291633078E+01  0.85767536013E+00 -0.20537907236E+02  0.21006734536E+02  0.51100000000E-03 0. -1.
        -11    1    3    3    0    0 -0.14420715788E+00  0.45598276534E+01  0.35753471845E+01  0.57961997622E+01  0.51100000000E-03 0.  1.
         12    1    3    3    0    0  0.69901144826E+01 -0.31726226677E+02 -0.87670696806E+00  0.32498981134E+02  0.00000000000E+00 0. -1.
</event>
<event>
 7    1  0.6841384E-013  0.5930194E+02  0.7816164E-02  0.1266605E+00
        -11   -1    0    0    0    0  0.00000000000E+00  0.00000000000E+00  0.45593999997E+02  0.45594000000E+02  0.51100000000E-03 0.  1.
         11   -1    0    0    0    0 -0.00000000000E+00 -0.00000000000E+00 -0.45593999997E+02  0.45594000000E+02  0.51100000000E-03 0. -1.
    9900012    2    1    2    0    0 -0.17854410863E+02 -0.17125962084E+01  0.26362998690E+02  0.59301942342E+02  0.49999996926E+02 0.  0.
        -12    1    1    2    0    0  0.17854410863E+02  0.17125962084E+01 -0.26362998690E+02  0.31886057658E+02  0.00000000000E+00 0.  1.
         11    1    3    3    0    0 -0.36943650812E+01 -0.10217334831E+02 -0.68709150690E+01  0.12855027754E+02  0.51100000000E-03 0. -1.
        -11    1    3    3    0    0  0.78393822663E+01  0.55621045909E+01  0.14529616259E+02  0.17421328041E+02  0.51100000000E-03 0.  1.
         12    1    3    3    0    0 -0.21999428048E+02  0.29426340318E+01  0.18704297500E+02  0.29025586548E+02  0.00000000000E+00 0. -1.
</event>
<event>
 7    1  0.6841384E-013  0.5930195E+02  0.7816164E-02  0.1266605E+00
        -11   -1    0    0    0    0  0.00000000000E+00  0.00000000000E+00  0.45593999997E+02  0.45594000000E+02  0.51100000000E-03 0. -1.
         11   -1    0    0    0    0 -0.00000000000E+00 -0.00000000000E+00 -0.45593999997E+02  0.45594000000E+02  0.51100000000E-03 0.  1.
    9900012    2    1    2    0    0  0.83609548014E+01  0.29744006656E+02  0.78809091433E+01  0.59301949350E+02  0.50000009706E+02 0.  0.
        -12    1    1    2    0    0 -0.83609548014E+01 -0.29744006656E+02 -0.78809091433E+01  0.31886050650E+02  0.00000000000E+00 0.  1.
         11    1    3    3    0    0  0.86575621973E+01  0.11609543508E+02  0.54516125733E+01  0.15474332411E+02  0.51100000000E-03 0. -1.
        -11    1    3    3    0    0 -0.65297926789E+01 -0.86016834688E+00 -0.15583620747E+02  0.16918253984E+02  0.51100000000E-03 0.  1.
         12    1    3    3    0    0  0.62331852830E+01  0.18994631495E+02  0.18012917317E+02  0.26909362955E+02  0.00000000000E+00 0. -1.
</event>
<event>
 7    1  0.6841384E-013  0.5930184E+02  0.7816164E-02  0.1266605E+00
        -11   -1    0    0    0    0  0.00000000000E+00  0.00000000000E+00  0.45593999997E+02  0.45594000000E+02  0.51100000000E-03 0.  1.
         11   -1    0    0    0    0 -0.00000000000E+00 -0.00000000000E+00 -0.45593999997E+02  0.45594000000E+02  0.51100000000E-03 0. -1.
    9900012    2    1    2    0    0 -0.30711213999E+02  0.75320381553E+01 -0.41008270462E+01  0.59301842400E+02  0.49999814655E+02 0.  0.
        -12    1    1    2    0    0  0.30711213999E+02 -0.75320381553E+01  0.41008270462E+01  0.31886157600E+02  0.00000000000E+00 0.  1.
         11    1    3    3    0    0 -0.51449363559E+01  0.22694172149E+02 -0.88517703463E-01  0.23270231097E+02  0.51100000000E-03 0. -1.
        -11    1    3    3    0    0 -0.13773076453E+01  0.36618794256E+01  0.25718442937E+01  0.46819569209E+01  0.51100000000E-03 0.  1.
         12    1    3    3    0    0 -0.24188969997E+02 -0.18824013420E+02 -0.65841536365E+01  0.31349654382E+02  0.00000000000E+00 0. -1.
</event>
<event>
 7    1  0.6841384E-013  0.5930196E+02  0.7816164E-02  0.1266605E+00
        -11   -1    0    0    0    0  0.00000000000E+00  0.00000000000E+00  0.45593999997E+02  0.45594000000E+02  0.51100000000E-03 0.  1.
         11   -1    0    0    0    0 -0.00000000000E+00 -0.00000000000E+00 -0.45593999997E+02  0.45594000000E+02  0.51100000000E-03 0. -1.
    9900012    2    1    2    0    0  0.59098302007E+01  0.54154031354E+01 -0.30862062260E+02  0.59301959621E+02  0.50000028438E+02 0.  0.
        -12    1    1    2    0    0 -0.59098302007E+01 -0.54154031354E+01  0.30862062260E+02  0.31886040379E+02  0.00000000000E+00 0.  1.
         11    1    3    3    0    0 -0.85532188781E+00 -0.54108386733E+01 -0.20654131412E+02  0.21368245022E+02  0.51100000000E-03 0. -1.
        -11    1    3    3    0    0 -0.42302358694E+00 -0.76305801810E+01 -0.15629567956E+02  0.17397933717E+02  0.51100000000E-03 0.  1.
        -12    1    3    3    0    0  0.71881756755E+01  0.18456821990E+02  0.54216371081E+01  0.20535780882E+02  0.00000000000E+00 0.  1.
</event>
<event>
 7    1  0.6841384E-013  0.5930194E+02  0.7816164E-02  0.1266605E+00
        -11   -1    0    0    0    0  0.00000000000E+00  0.00000000000E+00  0.45593999997E+02  0.45594000000E+02  0.51100000000E-03 0.  1.
         11   -1    0    0    0    0 -0.00000000000E+00 -0.00000000000E+00 -0.45593999997E+02  0.45594000000E+02  0.51100000000E-03 0. -1.
    9900012    2    1    2    0    0  0.23823382648E+02 -0.11607440771E+02 -0.17732296289E+02  0.59301943898E+02  0.49999999764E+02 0.  0.
        -12    1    1    2    0    0 -0.23823382648E+02  0.11607440771E+02  0.17732296289E+02  0.31886056102E+02  0.00000000000E+00 0.  1.
         11    1    3    3    0    0  0.86723542580E+00 -0.35003573198E+00  0.39882672608E+01  0.40964494751E+01  0.51100000000E-03 0.  1.
        -11    1    3    3    0    0  0.20536400913E+02 -0.23500891181E+02 -0.27365517137E+02  0.41507917042E+02  0.51100000000E-03 0. -1.
         12    1    3    3    0    0  0.24197463087E+01  0.12243486142E+02  0.56449535866E+01  0.13697577381E+02  0.00000000000E+00 0. -1.
</event>
<event>
 7    1  0.6841384E-013  0.5930189E+02  0.7816164E-02  0.1266605E+00
        -11   -1    0    0    0    0  0.00000000000E+00  0.00000000000E+00  0.45593999997E+02  0.45594000000E+02  0.51100000000E-03 0.  1.
         11   -1    0    0    0    0 -0.00000000000E+00 -0.00000000000E+00 -0.45593999997E+02  0.45594000000E+02  0.51100000000E-03 0. -1.
    9900012    2    1    2    0    0 -0.14796807313E+02  0.16816388971E+02 -0.22693330854E+02  0.59301894720E+02  0.49999910074E+02 0.  0.
        -12    1    1    2    0    0  0.14796807313E+02 -0.16816388971E+02  0.22693330854E+02  0.31886105280E+02  0.00000000000E+00 0.  1.
         11    1    3    3    0    0 -0.17442329907E+02  0.12222971985E+02 -0.15643051515E+02  0.26426141937E+02  0.51100000000E-03 0. -1.
        -11    1    3    3    0    0 -0.10773984522E+02 -0.81067335774E+01 -0.14054066437E+01  0.13556291524E+02  0.51100000000E-03 0.  1.
         12    1    3    3    0    0  0.13419507116E+02  0.12700150564E+02 -0.56448726949E+01  0.19319461259E+02  0.00000000000E+00 0. -1.
</event>
<event>
 7    1  0.6841384E-013  0.5930196E+02  0.7816164E-02  0.1266605E+00
        -11   -1    0    0    0    0  0.00000000000E+00  0.00000000000E+00  0.45593999997E+02  0.45594000000E+02  0.51100000000E-03 0.  1.
         11   -1    0    0    0    0 -0.00000000000E+00 -0.00000000000E+00 -0.45593999997E+02  0.45594000000E+02  0.51100000000E-03 0. -1.
    9900012    2    1    2    0    0 -0.11562296155E+02 -0.35863799670E+00 -0.29713707049E+02  0.59301957596E+02  0.50000024746E+02 0.  0.
        -12    1    1    2    0    0  0.11562296155E+02  0.35863799670E+00  0.29713707049E+02  0.31886042404E+02  0.00000000000E+00 0.  1.
         11    1    3    3    0    0 -0.57552480738E+01 -0.15590132360E+01  0.47351418075E+01  0.76141296849E+01  0.51100000000E-03 0. -1.
        -11    1    3    3    0    0 -0.14137711011E+02 -0.13552252262E+02 -0.26558382385E+02  0.32998274033E+02  0.51100000000E-03 0.  1.
         12    1    3    3    0    0  0.83306629298E+01  0.14752627501E+02 -0.78904664719E+01  0.18689553879E+02  0.00000000000E+00 0. -1.
</event>
<event>
 7    1  0.6841384E-013  0.5930195E+02  0.7816164E-02  0.1266605E+00
        -11   -1    0    0    0    0  0.00000000000E+00  0.00000000000E+00  0.45593999997E+02  0.45594000000E+02  0.51100000000E-03 0.  1.
         11   -1    0    0    0    0 -0.00000000000E+00 -0.00000000000E+00 -0.45593999997E+02  0.45594000000E+02  0.51100000000E-03 0. -1.
    9900012    2    1    2    0    0 -0.12373257290E+01  0.31861778643E+02 -0.12681362039E+00  0.59301952974E+02  0.50000016315E+02 0.  0.
        -12    1    1    2    0    0  0.12373257290E+01 -0.31861778643E+02  0.12681362039E+00  0.31886047026E+02  0.00000000000E+00 0.  1.
         11    1    3    3    0    0 -0.21301951446E+02  0.10939077049E+02  0.36576449756E+01  0.24224262819E+02  0.51100000000E-03 0. -1.
        -11    1    3    3    0    0  0.18064924149E+01 -0.31283397781E+01 -0.32767553993E+01  0.48771970250E+01  0.51100000000E-03 0.  1.
        -12    1    3    3    0    0  0.18258133302E+02  0.24051041372E+02 -0.50770319667E+00  0.30200493130E+02  0.00000000000E+00 0.  1.
</event>
<event>
 7    1  0.6841384E-013  0.5930192E+02  0.7816164E-02  0.1266605E+00
        -11   -1    0    0    0    0  0.00000000000E+00  0.00000000000E+00  0.45593999997E+02  0.45594000000E+02  0.51100000000E-03 0.  1.
         11   -1    0    0    0    0 -0.00000000000E+00 -0.00000000000E+00 -0.45593999997E+02  0.45594000000E+02  0.51100000000E-03 0. -1.
    9900012    2    1    2    0    0  0.71847539700E+01  0.13873702064E+02 -0.27796080784E+02  0.59301915174E+02  0.49999947378E+02 0.  0.
        -12    1    1    2    0    0 -0.71847539700E+01 -0.13873702064E+02  0.27796080784E+02  0.31886084826E+02  0.00000000000E+00 0.  1.
         11    1    3    3    0    0  0.10570457222E+02 -0.89869065324E+01 -0.92410147916E+01  0.16670195246E+02  0.51100000000E-03 0. -1.
        -11    1    3    3    0    0  0.10552457445E+02  0.21483978099E+02 -0.14759999194E+02  0.28120690773E+02  0.51100000000E-03 0.  1.
         12    1    3    3    0    0 -0.13938160697E+02  0.13766304975E+01 -0.37950667984E+01  0.14511029155E+02  0.00000000000E+00 0. -1.
</event>
<event>
 7    1  0.6841384E-013  0.5930196E+02  0.7816164E-02  0.1266605E+00
        -11   -1    0    0    0    0  0.00000000000E+00  0.00000000000E+00  0.45593999997E+02  0.45594000000E+02  0.51100000000E-03 0.  1.
         11   -1    0    0    0    0 -0.00000000000E+00 -0.00000000000E+00 -0.45593999997E+02  0.45594000000E+02  0.51100000000E-03 0. -1.
    9900012    2    1    2    0    0  0.80544634054E+00  0.16957830919E+02 -0.26990796361E+02  0.59301955066E+02  0.50000020131E+02 0.  0.
        -12    1    1    2    0    0 -0.80544634054E+00 -0.16957830919E+02  0.26990796361E+02  0.31886044934E+02  0.00000000000E+00 0.  1.
         11    1    3    3    0    0  0.42790865572E+01  0.13140819063E+02 -0.75517866283E+01  0.15748688484E+02  0.51100000000E-03 0. -1.
        -11    1    3    3    0    0  0.78047770933E+00  0.18318439970E+02 -0.21549480579E+02  0.28294071851E+02  0.51100000000E-03 0.  1.
        -12    1    3    3    0    0 -0.42541179260E+01 -0.14501428114E+02  0.21104708463E+01  0.15259194732E+02  0.00000000000E+00 0.  1.
</event>
<event>
 7    1  0.6841384E-013  0.5930195E+02  0.7816164E-02  0.1266605E+00
        -11   -1    0    0    0    0  0.00000000000E+00  0.00000000000E+00  0.45593999997E+02  0.45594000000E+02  0.51100000000E-03 0. -1.
         11   -1    0    0    0    0 -0.00000000000E+00 -0.00000000000E+00 -0.45593999997E+02  0.45594000000E+02  0.51100000000E-03 0.  1.
    9900012    2    1    2    0    0  0.10074201239E+02 -0.12013032864E+02  0.27765399679E+02  0.59301954329E+02  0.50000018788E+02 0.  0.
        -12    1    1    2    0    0 -0.10074201239E+02  0.12013032864E+02 -0.27765399679E+02  0.31886045671E+02  0.00000000000E+00 0.  1.
         11    1    3    3    0    0 -0.19198411821E+01 -0.97585529002E+01  0.97362586570E+01  0.13917969599E+02  0.51100000000E-03 0. -1.
        -11    1    3    3    0    0  0.16795866030E+01 -0.16550952445E+02  0.21733925604E+02  0.27370030333E+02  0.51100000000E-03 0.  1.
         12    1    3    3    0    0  0.10314455818E+02  0.14296472481E+02 -0.37047845825E+01  0.18013954397E+02  0.00000000000E+00 0. -1.
</event>
<event>
 7    1  0.6841384E-013  0.5930192E+02  0.7816164E-02  0.1266605E+00
        -11   -1    0    0    0    0  0.00000000000E+00  0.00000000000E+00  0.45593999997E+02  0.45594000000E+02  0.51100000000E-03 0.  1.
         11   -1    0    0    0    0 -0.00000000000E+00 -0.00000000000E+00 -0.45593999997E+02  0.45594000000E+02  0.51100000000E-03 0. -1.
    9900012    2    1    2    0    0 -0.14498860717E+02  0.28002990018E+02 -0.47262541329E+01  0.59301923255E+02  0.49999962116E+02 0.  0.
        -12    1    1    2    0    0  0.14498860717E+02 -0.28002990018E+02  0.47262541329E+01  0.31886076745E+02  0.00000000000E+00 0.  1.
         11    1    3    3    0    0  0.18032949203E+01  0.22917039375E+02 -0.54762772743E+01  0.23631169657E+02  0.51100000000E-03 0. -1.
        -11    1    3    3    0    0  0.79820863966E+01  0.59440101470E+01  0.47781756332E+01  0.11039742864E+02  0.51100000000E-03 0.  1.
         12    1    3    3    0    0 -0.24284242034E+02 -0.85805950420E+00 -0.40281524917E+01  0.24631010734E+02  0.00000000000E+00 0. -1.
</event>
<event>
 7    1  0.6841384E-013  0.5930194E+02  0.7816164E-02  0.1266605E+00
        -11   -1    0    0    0    0  0.00000000000E+00  0.00000000000E+00  0.45593999997E+02  0.45594000000E+02  0.51100000000E-03 0.  1.
         11   -1    0    0    0    0 -0.00000000000E+00 -0.00000000000E+00 -0.45593999997E+02  0.45594000000E+02  0.51100000000E-03 0. -1.
    9900012    2    1    2    0    0 -0.13933567372E+02  0.27405190630E+02  0.84576456548E+01  0.59301944377E+02  0.50000000637E+02 0.  0.
        -12    1    1    2    0    0  0.13933567372E+02 -0.27405190630E+02 -0.84576456548E+01  0.31886055623E+02  0.00000000000E+00 0.  1.
         11    1    3    3    0    0 -0.12597200597E+02  0.55724599037E+01  0.11862523199E+02  0.18178592607E+02  0.51100000000E-03 0. -1.
        -11    1    3    3    0    0 -0.58031221035E+01 -0.78372463229E+01  0.34532498762E+01  0.10345220686E+02  0.51100000000E-03 0.  1.
         12    1    3    3    0    0  0.44667553289E+01  0.29669977050E+02 -0.68581274207E+01  0.30778131084E+02  0.00000000000E+00 0. -1.
</event>
<event>
 7    1  0.6841384E-013  0.5930203E+02  0.7816164E-02  0.1266604E+00
        -11   -1    0    0    0    0  0.00000000000E+00  0.00000000000E+00  0.45593999997E+02  0.45594000000E+02  0.51100000000E-03 0. -1.
         11   -1    0    0    0    0 -0.00000000000E+00 -0.00000000000E+00 -0.45593999997E+02  0.45594000000E+02  0.51100000000E-03 0.  1.
    9900012    2    1    2    0    0 -0.30470512437E+02 -0.53357495313E+01 -0.77325877197E+01  0.59302027158E+02  0.50000151610E+02 0.  0.
        -12    1    1    2    0    0  0.30470512437E+02  0.53357495313E+01  0.77325877197E+01  0.31885972842E+02  0.00000000000E+00 0.  1.
         11    1    3    3    0    0 -0.36053761989E+02  0.79769695984E+01 -0.43291790427E+01  0.37178590465E+02  0.51100000000E-03 0. -1.
        -11    1    3    3    0    0 -0.99036204339E+00  0.34809513850E+01  0.55040183445E+00  0.36607078498E+01  0.51100000000E-03 0.  1.
        -12    1    3    3    0    0  0.65736115958E+01 -0.16793670515E+02 -0.39538105114E+01  0.18462728843E+02  0.00000000000E+00 0.  1.
</event>
<event>
 7    1  0.6841384E-013  0.5930192E+02  0.7816164E-02  0.1266605E+00
        -11   -1    0    0    0    0  0.00000000000E+00  0.00000000000E+00  0.45593999997E+02  0.45594000000E+02  0.51100000000E-03 0.  1.
         11   -1    0    0    0    0 -0.00000000000E+00 -0.00000000000E+00 -0.45593999997E+02  0.45594000000E+02  0.51100000000E-03 0. -1.
    9900012    2    1    2    0    0  0.23385680990E+02  0.13386007208E+02 -0.17048361579E+02  0.59301923150E+02  0.49999961925E+02 0.  0.
        -12    1    1    2    0    0 -0.23385680990E+02 -0.13386007208E+02  0.17048361579E+02  0.31886076850E+02  0.00000000000E+00 0.  1.
         11    1    3    3    0    0  0.17146544846E+02  0.11198652661E+02 -0.30004162464E+02  0.36327174223E+02  0.51100000000E-03 0. -1.
        -11    1    3    3    0    0  0.11211569597E+02 -0.48331616623E+00  0.31418926401E+01  0.11653513503E+02  0.51100000000E-03 0.  1.
        -12    1    3    3    0    0 -0.49724334531E+01  0.26706707132E+01  0.98139082448E+01  0.11321235425E+02  0.00000000000E+00 0.  1.
</event>
<event>
 7    1  0.6841384E-013  0.5930195E+02  0.7816164E-02  0.1266605E+00
        -11   -1    0    0    0    0  0.00000000000E+00  0.00000000000E+00  0.45593999997E+02  0.45594000000E+02  0.51100000000E-03 0. -1.
         11   -1    0    0    0    0 -0.00000000000E+00 -0.00000000000E+00 -0.45593999997E+02  0.45594000000E+02  0.51100000000E-03 0.  1.
    9900012    2    1    2    0    0 -0.28440561854E+02  0.11567963975E+02  0.86044528635E+01  0.59301953551E+02  0.50000017368E+02 0.  0.
        -12    1    1    2    0    0  0.28440561854E+02 -0.11567963975E+02 -0.86044528635E+01  0.31886046449E+02  0.00000000000E+00 0.  1.
         11    1    3    3    0    0 -0.12023600952E+02 -0.66331963858E+01  0.16273687273E+02  0.21293171954E+02  0.51100000000E-03 0. -1.
        -11    1    3    3    0    0 -0.37339479796E+01 -0.57983065675E+01  0.45274473158E+01  0.82498791520E+01  0.51100000000E-03 0.  1.
         12    1    3    3    0    0 -0.12683012922E+02  0.23999466928E+02 -0.12196681725E+02  0.29758902445E+02  0.00000000000E+00 0. -1.
</event>
<event>
 7    1  0.6841384E-013  0.5930197E+02  0.7816164E-02  0.1266605E+00
        -11   -1    0    0    0    0  0.00000000000E+00  0.00000000000E+00  0.45593999997E+02  0.45594000000E+02  0.51100000000E-03 0. -1.
         11   -1    0    0    0    0 -0.00000000000E+00 -0.00000000000E+00 -0.45593999997E+02  0.45594000000E+02  0.51100000000E-03 0.  1.
    9900012    2    1    2    0    0  0.25914934055E+02 -0.18423144141E+02  0.23922639616E+01  0.59301968984E+02  0.50000045514E+02 0.  0.
        -12    1    1    2    0    0 -0.25914934055E+02  0.18423144141E+02 -0.23922639616E+01  0.31886031016E+02  0.00000000000E+00 0.  1.
         11    1    3    3    0    0 -0.68257309222E+01  0.94818615362E+00 -0.38491176950E+01  0.78933748736E+01  0.51100000000E-03 0. -1.
        -11    1    3    3    0    0  0.11575410301E+02  0.10022047659E+01 -0.12100260189E+02  0.16775304317E+02  0.51100000000E-03 0.  1.
         12    1    3    3    0    0  0.21165254676E+02 -0.20373535060E+02  0.18341641845E+02  0.34633289793E+02  0.00000000000E+00 0. -1.
</event>
<event>
 7    1  0.6841384E-013  0.5930198E+02  0.7816164E-02  0.1266605E+00
        -11   -1    0    0    0    0  0.00000000000E+00  0.00000000000E+00  0.45593999997E+02  0.45594000000E+02  0.51100000000E-03 0.  1.
         11   -1    0    0    0    0 -0.00000000000E+00 -0.00000000000E+00 -0.45593999997E+02  0.45594000000E+02  0.51100000000E-03 0. -1.
    9900012    2    1    2    0    0  0.99694851927E+01  0.25555830435E+00 -0.30286341303E+02  0.59301977755E+02  0.50000061511E+02 0.  0.
        -12    1    1    2    0    0 -0.99694851927E+01 -0.25555830435E+00  0.30286341303E+02  0.31886022245E+02  0.00000000000E+00 0.  1.
         11    1    3    3    0    0  0.16147003946E+01  0.18465483413E+02 -0.13831777757E+02  0.23127892494E+02  0.51100000000E-03 0. -1.
        -11    1    3    3    0    0  0.78027161954E+01 -0.15832467052E+01 -0.17784352552E+02  0.19485180166E+02  0.51100000000E-03 0.  1.
        -12    1    3    3    0    0  0.55206860263E+00 -0.16626678403E+02  0.13297890061E+01  0.16688905095E+02  0.00000000000E+00 0.  1.
</event>
<event>
 7    1  0.6841384E-013  0.5930195E+02  0.7816164E-02  0.1266605E+00
        -11   -1    0    0    0    0  0.00000000000E+00  0.00000000000E+00  0.45593999997E+02  0.45594000000E+02  0.51100000000E-03 0.  1.
         11   -1    0    0    0    0 -0.00000000000E+00 -0.00000000000E+00 -0.45593999997E+02  0.45594000000E+02  0.51100000000E-03 0. -1.
    9900012    2    1    2    0    0 -0.22947772546E+02 -0.22104244537E+02 -0.12337637254E+01  0.59301951886E+02  0.50000014332E+02 0.  0.
        -12    1    1    2    0    0  0.22947772546E+02  0.22104244537E+02  0.12337637254E+01  0.31886048114E+02  0.00000000000E+00 0.  1.
         11    1    3    3    0    0 -0.16025676891E+02 -0.47960378621E+01 -0.53799346654E+01  0.17571795476E+02  0.51100000000E-03 0. -1.
        -11    1    3    3    0    0 -0.66634360981E+01  0.50132478803E+01 -0.11690839664E+02  0.14360005824E+02  0.51100000000E-03 0.  1.
        -12    1    3    3    0    0 -0.25865955720E+00 -0.22321454555E+02  0.15837010604E+02  0.27370150586E+02  0.00000000000E+00 0.  1.
</event>
<event>
 7    1  0.6841384E-013  0.5930195E+02  0.7816164E-02  0.1266605E+00
        -11   -1    0    0    0    0  0.00000000000E+00  0.00000000000E+00  0.45593999997E+02  0.45594000000E+02  0.51100000000E-03 0.  1.
         11   -1    0    0    0    0 -0.00000000000E+00 -0.00000000000E+00 -0.45593999997E+02  0.45594000000E+02  0.51100000000E-03 0. -1.
    9900012    2    1    2    0    0 -0.68828773151E+01 -0.20070789941E+02 -0.23801464477E+02  0.59301947873E+02  0.50000007013E+02 0.  0.
        -12    1    1    2    0    0  0.68828773151E+01  0.20070789941E+02  0.23801464477E+02  0.31886052127E+02  0.00000000000E+00 0.  1.
         11    1    3    3    0    0 -0.10300707226E+02 -0.15651442905E+02 -0.90731974738E+01  0.20818144659E+02  0.51100000000E-03 0. -1.
        -11    1    3    3    0    0 -0.11446236099E+02 -0.11611108575E+02  0.78980923768E-01  0.16304612888E+02  0.51100000000E-03 0.  1.
         12    1    3    3    0    0  0.14864066010E+02  0.71917615388E+01 -0.14807247927E+02  0.22179190327E+02  0.00000000000E+00 0. -1.
</event>
<event>
 7    1  0.6841384E-013  0.5930192E+02  0.7816164E-02  0.1266605E+00
        -11   -1    0    0    0    0  0.00000000000E+00  0.00000000000E+00  0.45593999997E+02  0.45594000000E+02  0.51100000000E-03 0.  1.
         11   -1    0    0    0    0 -0.00000000000E+00 -0.00000000000E+00 -0.45593999997E+02  0.45594000000E+02  0.51100000000E-03 0. -1.
    9900012    2    1    2    0    0 -0.81900336320E+01  0.75431715134E+01 -0.29878850740E+02  0.59301924529E+02  0.49999964440E+02 0.  0.
        -12    1    1    2    0    0  0.81900336320E+01 -0.75431715134E+01  0.29878850740E+02  0.31886075471E+02  0.00000000000E+00 0.  1.
         11    1    3    3    0    0 -0.22826750056E+01  0.40621623285E+01 -0.24013565915E+02  0.24461461857E+02  0.51100000000E-03 0. -1.
        -11    1    3    3    0    0 -0.10697707039E+02  0.80570665386E+01  0.10608187488E+02  0.17084814870E+02  0.51100000000E-03 0.  1.
         12    1    3    3    0    0  0.47903484130E+01 -0.45760573537E+01 -0.16473472313E+02  0.17755647802E+02  0.00000000000E+00 0. -1.
</event>
<event>
 7    1  0.6841384E-013  0.5930193E+02  0.7816164E-02  0.1266605E+00
        -11   -1    0    0    0    0  0.00000000000E+00  0.00000000000E+00  0.45593999997E+02  0.45594000000E+02  0.51100000000E-03 0. -1.
         11   -1    0    0    0    0 -0.00000000000E+00 -0.00000000000E+00 -0.45593999997E+02  0.45594000000E+02  0.51100000000E-03 0.  1.
    9900012    2    1    2    0    0  0.31808849702E+02  0.66796922731E+00  0.21148631203E+01  0.59301925480E+02  0.49999966174E+02 0.  0.
        -12    1    1    2    0    0 -0.31808849702E+02 -0.66796922731E+00 -0.21148631203E+01  0.31886074520E+02  0.00000000000E+00 0.  1.
         11    1    3    3    0    0 -0.86071465141E+00  0.27456573307E+01 -0.14825713219E+02  0.15102358644E+02  0.51100000000E-03 0. -1.
        -11    1    3    3    0    0  0.33295646191E+01 -0.89514545945E+01  0.87957492352E+01  0.12983826277E+02  0.51100000000E-03 0.  1.
         12    1    3    3    0    0  0.29339999734E+02  0.68737664911E+01  0.81448271041E+01  0.31215740560E+02  0.00000000000E+00 0. -1.
</event>
<event>
 7    1  0.6841384E-013  0.5930195E+02  0.7816164E-02  0.1266605E+00
        -11   -1    0    0    0    0  0.00000000000E+00  0.00000000000E+00  0.45593999997E+02  0.45594000000E+02  0.51100000000E-03 0.  1.
         11   -1    0    0    0    0 -0.00000000000E+00 -0.00000000000E+00 -0.45593999997E+02  0.45594000000E+02  0.51100000000E-03 0. -1.
    9900012    2    1    2    0    0  0.10492712030E+02 -0.84252546584E+01  0.28907412109E+02  0.59301946675E+02  0.50000004829E+02 0.  0.
        -12    1    1    2    0    0 -0.10492712030E+02  0.84252546584E+01 -0.28907412109E+02  0.31886053325E+02  0.00000000000E+00 0.  1.
         11    1    3    3    0    0  0.14329217740E+02 -0.18977645206E+01  0.89832231194E+01  0.17018410299E+02  0.51100000000E-03 0. -1.
        -11    1    3    3    0    0  0.46944376438E+01 -0.17976210921E+02  0.20910415212E+02  0.27971903197E+02  0.51100000000E-03 0.  1.
         12    1    3    3    0    0 -0.85309433545E+01  0.11448720783E+02 -0.98622622288E+00  0.14311633179E+02  0.00000000000E+00 0. -1.
</event>
<event>
 7    1  0.6841384E-013  0.5930196E+02  0.7816164E-02  0.1266605E+00
        -11   -1    0    0    0    0  0.00000000000E+00  0.00000000000E+00  0.45593999997E+02  0.45594000000E+02  0.51100000000E-03 0. -1.
         11   -1    0    0    0    0 -0.00000000000E+00 -0.00000000000E+00 -0.45593999997E+02  0.45594000000E+02  0.51100000000E-03 0.  1.
    9900012    2    1    2    0    0 -0.27095745310E+02  0.16168339261E+02 -0.45961930234E+01  0.59301959188E+02  0.50000027649E+02 0.  0.
        -12    1    1    2    0    0  0.27095745310E+02 -0.16168339261E+02  0.45961930234E+01  0.31886040812E+02  0.00000000000E+00 0.  1.
         11    1    3    3    0    0  0.84385850185E+01  0.12880848765E+02 -0.88846811174E+01  0.17778175971E+02  0.51100000000E-03 0. -1.
        -11    1    3    3    0    0 -0.58039143288E+00  0.37396554804E+01 -0.40947639535E+01  0.55757483286E+01  0.51100000000E-03 0.  1.
        -12    1    3    3    0    0 -0.34953938895E+02 -0.45216498460E+00  0.83832520476E+01  0.35948034889E+02  0.00000000000E+00 0.  1.
</event>
<event>
 7    1  0.6841384E-013  0.5930197E+02  0.7816164E-02  0.1266605E+00
        -11   -1    0    0    0    0  0.00000000000E+00  0.00000000000E+00  0.45593999997E+02  0.45594000000E+02  0.51100000000E-03 0.  1.
         11   -1    0    0    0    0 -0.00000000000E+00 -0.00000000000E+00 -0.45593999997E+02  0.45594000000E+02  0.51100000000E-03 0. -1.
    9900012    2    1    2    0    0  0.25052120182E+02  0.10029758655E+02 -0.16985702725E+02  0.59301970436E+02  0.50000048163E+02 0.  0.
        -12    1    1    2    0    0 -0.25052120182E+02 -0.10029758655E+02  0.16985702725E+02  0.31886029564E+02  0.00000000000E+00 0.  1.
         11    1    3    3    0    0  0.36834456458E+02  0.64106446693E+01 -0.63254562173E+01  0.37919453375E+02  0.51100000000E-03 0. -1.
        -11    1    3    3    0    0  0.25364612566E+01  0.16349711547E+01  0.57766667312E+00  0.30725340404E+01  0.51100000000E-03 0.  1.
         12    1    3    3    0    0 -0.14318797533E+02  0.19841428313E+01 -0.11237913180E+02  0.18309983021E+02  0.00000000000E+00 0. -1.
</event>
<event>
 7    1  0.6841384E-013  0.5930201E+02  0.7816164E-02  0.1266605E+00
        -11   -1    0    0    0    0  0.00000000000E+00  0.00000000000E+00  0.45593999997E+02  0.45594000000E+02  0.51100000000E-03 0.  1.
         11   -1    0    0    0    0 -0.00000000000E+00 -0.00000000000E+00 -0.45593999997E+02  0.45594000000E+02  0.51100000000E-03 0. -1.
    9900012    2    1    2    0    0  0.23033637935E+02 -0.83771942689E+01 -0.20395847461E+02  0.59302008499E+02  0.50000117580E+02 0.  0.
        -12    1    1    2    0    0 -0.23033637935E+02  0.83771942689E+01  0.20395847461E+02  0.31885991501E+02  0.00000000000E+00 0.  1.
         11    1    3    3    0    0  0.34928886040E+01  0.49602375977E+01 -0.14290023100E+02  0.15524464187E+02  0.51100000000E-03 0. -1.
        -11    1    3    3    0    0  0.73063552819E+01  0.11101960175E+02  0.51046811761E+01  0.14237068427E+02  0.51100000000E-03 0.  1.
        -12    1    3    3    0    0  0.12234394049E+02 -0.24439392042E+02 -0.11210505537E+02  0.29540475885E+02  0.00000000000E+00 0.  1.
</event>
<event>
 7    1  0.6841384E-013  0.5930193E+02  0.7816164E-02  0.1266605E+00
        -11   -1    0    0    0    0  0.00000000000E+00  0.00000000000E+00  0.45593999997E+02  0.45594000000E+02  0.51100000000E-03 0. -1.
         11   -1    0    0    0    0 -0.00000000000E+00 -0.00000000000E+00 -0.45593999997E+02  0.45594000000E+02  0.51100000000E-03 0.  1.
    9900012    2    1    2    0    0 -0.42340280116E+01 -0.28433733666E+02  0.13795563419E+02  0.59301925086E+02  0.49999965455E+02 0.  0.
        -12    1    1    2    0    0  0.42340280116E+01  0.28433733666E+02 -0.13795563419E+02  0.31886074914E+02  0.00000000000E+00 0.  1.
         11    1    3    3    0    0  0.21381612758E+02 -0.16079270309E+02  0.17867976458E+01  0.26812477392E+02  0.51100000000E-03 0. -1.
        -11    1    3    3    0    0 -0.10759394871E+02 -0.46057770797E+01  0.10399852019E+02  0.15656777535E+02  0.51100000000E-03 0.  1.
        -12    1    3    3    0    0 -0.14856245898E+02 -0.77486862767E+01  0.16089137539E+01  0.16832670159E+02  0.00000000000E+00 0.  1.
</event>
<event>
 7    1  0.6841384E-013  0.5930194E+02  0.7816164E-02  0.1266605E+00
        -11   -1    0    0    0    0  0.00000000000E+00  0.00000000000E+00  0.45593999997E+02  0.45594000000E+02  0.51100000000E-03 0. -1.
         11   -1    0    0    0    0 -0.00000000000E+00 -0.00000000000E+00 -0.45593999997E+02  0.45594000000E+02  0.51100000000E-03 0.  1.
    9900012    2    1    2    0    0 -0.16263640086E+02  0.40404971129E+01  0.27127280143E+02  0.59301938254E+02  0.49999989469E+02 0.  0.
        -12    1    1    2    0    0  0.16263640086E+02 -0.40404971129E+01 -0.27127280143E+02  0.31886061746E+02  0.00000000000E+00 0.  1.
         11    1    3    3    0    0 -0.11918652852E+01  0.53451088645E+01  0.36087641181E+02  0.36500802428E+02  0.51100000000E-03 0. -1.
        -11    1    3    3    0    0 -0.10726506863E+01 -0.60178499520E+01 -0.17156357834E+01  0.63488978526E+01  0.51100000000E-03 0.  1.
        -12    1    3    3    0    0 -0.13999124114E+02  0.47132382005E+01 -0.72447252548E+01  0.16452237973E+02  0.00000000000E+00 0.  1.
</event>
<event>
 7    1  0.6841384E-013  0.5930193E+02  0.7816164E-02  0.1266605E+00
        -11   -1    0    0    0    0  0.00000000000E+00  0.00000000000E+00  0.45593999997E+02  0.45594000000E+02  0.51100000000E-03 0.  1.
         11   -1    0    0    0    0 -0.00000000000E+00 -0.00000000000E+00 -0.45593999997E+02  0.45594000000E+02  0.51100000000E-03 0. -1.
    9900012    2    1    2    0    0  0.73929009898E+00 -0.26977105568E+02 -0.16982651732E+02  0.59301933536E+02  0.49999980866E+02 0.  0.
        -12    1    1    2    0    0 -0.73929009898E+00  0.26977105568E+02  0.16982651732E+02  0.31886066464E+02  0.00000000000E+00 0.  1.
         11    1    3    3    0    0 -0.88071147792E-01 -0.85853532300E+01 -0.40699735256E+00  0.85954461034E+01  0.51100000000E-03 0. -1.
        -11    1    3    3    0    0  0.80554537199E+01 -0.23342407232E+01 -0.28322821665E+02  0.29538470537E+02  0.51100000000E-03 0.  1.
         12    1    3    3    0    0 -0.72280924731E+01 -0.16057511615E+02  0.11747167285E+02  0.21168016895E+02  0.00000000000E+00 0. -1.
</event>
<event>
 7    1  0.6841384E-013  0.5930194E+02  0.7816164E-02  0.1266605E+00
        -11   -1    0    0    0    0  0.00000000000E+00  0.00000000000E+00  0.45593999997E+02  0.45594000000E+02  0.51100000000E-03 0. -1.
         11   -1    0    0    0    0 -0.00000000000E+00 -0.00000000000E+00 -0.45593999997E+02  0.45594000000E+02  0.51100000000E-03 0.  1.
    9900012    2    1    2    0    0  0.10594800737E+02  0.28893631793E+02  0.83443933473E+01  0.59301942527E+02  0.49999997263E+02 0.  0.
        -12    1    1    2    0    0 -0.10594800737E+02 -0.28893631793E+02 -0.83443933473E+01  0.31886057473E+02  0.00000000000E+00 0.  1.
         11    1    3    3    0    0 -0.59727915134E+01  0.11882825637E+02 -0.80530897494E+01  0.15547605551E+02  0.51100000000E-03 0. -1.
        -11    1    3    3    0    0 -0.17361242660E+01 -0.64001107856E+01  0.12004615837E+02  0.13714457597E+02  0.51100000000E-03 0.  1.
         12    1    3    3    0    0  0.18303716517E+02  0.23410916941E+02  0.43928672601E+01  0.30039879379E+02  0.00000000000E+00 0. -1.
</event>
<event>
 7    1  0.6841384E-013  0.5930194E+02  0.7816164E-02  0.1266605E+00
        -11   -1    0    0    0    0  0.00000000000E+00  0.00000000000E+00  0.45593999997E+02  0.45594000000E+02  0.51100000000E-03 0.  1.
         11   -1    0    0    0    0 -0.00000000000E+00 -0.00000000000E+00 -0.45593999997E+02  0.45594000000E+02  0.51100000000E-03 0. -1.
    9900012    2    1    2    0    0 -0.17099881717E+02 -0.28019164749E+01 -0.26766852706E+02  0.59301935733E+02  0.49999984872E+02 0.  0.
        -12    1    1    2    0    0  0.17099881717E+02  0.28019164749E+01  0.26766852706E+02  0.31886064267E+02  0.00000000000E+00 0.  1.
         11    1    3    3    0    0 -0.46584506875E+01  0.85095135825E+01  0.56581388929E+00  0.97176710089E+01  0.51100000000E-03 0. -1.
        -11    1    3    3    0    0  0.32892968863E+01 -0.21792851996E+02 -0.11144781207E+02  0.24697247226E+02  0.51100000000E-03 0.  1.
         12    1    3    3    0    0 -0.15730727916E+02  0.10481421939E+02 -0.16187885387E+02  0.24887017498E+02  0.00000000000E+00 0. -1.
</event>
<event>
 7    1  0.6841384E-013  0.5930222E+02  0.7816164E-02  0.1266604E+00
        -11   -1    0    0    0    0  0.00000000000E+00  0.00000000000E+00  0.45593999997E+02  0.45594000000E+02  0.51100000000E-03 0.  1.
         11   -1    0    0    0    0 -0.00000000000E+00 -0.00000000000E+00 -0.45593999997E+02  0.45594000000E+02  0.51100000000E-03 0. -1.
    9900012    2    1    2    0    0 -0.26419198886E+02 -0.17827083739E+02 -0.96132234946E+00  0.59302217508E+02  0.50000498761E+02 0.  0.
        -12    1    1    2    0    0  0.26419198886E+02  0.17827083739E+02  0.96132234946E+00  0.31885782492E+02  0.00000000000E+00 0.  1.
         11    1    3    3    0    0 -0.20026240465E+02 -0.12810071636E+02  0.35606188209E+00  0.23775513093E+02  0.51100000000E-03 0. -1.
        -11    1    3    3    0    0 -0.14708728229E+02  0.10195640906E+02  0.15102602380E+01  0.17960475101E+02  0.51100000000E-03 0.  1.
        -12    1    3    3    0    0  0.83157698079E+01 -0.15212653009E+02 -0.28276444696E+01  0.17566229314E+02  0.00000000000E+00 0.  1.
</event>
<event>
 7    1  0.6841384E-013  0.5930194E+02  0.7816164E-02  0.1266605E+00
        -11   -1    0    0    0    0  0.00000000000E+00  0.00000000000E+00  0.45593999997E+02  0.45594000000E+02  0.51100000000E-03 0.  1.
         11   -1    0    0    0    0 -0.00000000000E+00 -0.00000000000E+00 -0.45593999997E+02  0.45594000000E+02  0.51100000000E-03 0. -1.
    9900012    2    1    2    0    0 -0.26234391796E+02 -0.17721196781E+02  0.37995317600E+01  0.59301943959E+02  0.49999999874E+02 0.  0.
        -12    1    1    2    0    0  0.26234391796E+02  0.17721196781E+02 -0.37995317600E+01  0.31886056041E+02  0.00000000000E+00 0.  1.
         11    1    3    3    0    0 -0.11398203544E+02  0.76155709204E+01 -0.34304918106E+00  0.13712536143E+02  0.51100000000E-03 0. -1.
        -11    1    3    3    0    0 -0.17245241558E+01  0.57405645392E+00  0.14608844305E+02  0.14721476032E+02  0.51100000000E-03 0.  1.
        -12    1    3    3    0    0 -0.13111664096E+02 -0.25910824156E+02 -0.10466263364E+02  0.30867931784E+02  0.00000000000E+00 0.  1.
</event>
<event>
 7    1  0.6841384E-013  0.5930194E+02  0.7816164E-02  0.1266605E+00
        -11   -1    0    0    0    0  0.00000000000E+00  0.00000000000E+00  0.45593999997E+02  0.45594000000E+02  0.51100000000E-03 0.  1.
         11   -1    0    0    0    0 -0.00000000000E+00 -0.00000000000E+00 -0.45593999997E+02  0.45594000000E+02  0.51100000000E-03 0. -1.
    9900012    2    1    2    0    0 -0.12609129407E+02  0.10622258842E+02 -0.27292822009E+02  0.59301942537E+02  0.49999997281E+02 0.  0.
        -12    1    1    2    0    0  0.12609129407E+02 -0.10622258842E+02  0.27292822009E+02  0.31886057463E+02  0.00000000000E+00 0.  1.
         11    1    3    3    0    0 -0.21037464399E+02  0.53045273580E+01 -0.21744774333E+02  0.30717228551E+02  0.51100000000E-03 0. -1.
        -11    1    3    3    0    0 -0.46723187823E+01  0.12266601427E+02 -0.14939983477E+01  0.13211059939E+02  0.51100000000E-03 0.  1.
        -12    1    3    3    0    0  0.13100653774E+02 -0.69488699434E+01 -0.40540493285E+01  0.15373654047E+02  0.00000000000E+00 0.  1.
</event>
<event>
 7    1  0.6841384E-013  0.5930194E+02  0.7816164E-02  0.1266605E+00
        -11   -1    0    0    0    0  0.00000000000E+00  0.00000000000E+00  0.45593999997E+02  0.45594000000E+02  0.51100000000E-03 0.  1.
         11   -1    0    0    0    0 -0.00000000000E+00 -0.00000000000E+00 -0.45593999997E+02  0.45594000000E+02  0.51100000000E-03 0. -1.
    9900012    2    1    2    0    0 -0.48251605493E+01 -0.25527060538E+02 -0.18488043616E+02  0.59301941122E+02  0.49999994700E+02 0.  0.
        -12    1    1    2    0    0  0.48251605493E+01  0.25527060538E+02  0.18488043616E+02  0.31886058878E+02  0.00000000000E+00 0.  1.
         11    1    3    3    0    0 -0.25860973818E+00  0.25358338589E+01 -0.65771986716E+01  0.70538553276E+01  0.51100000000E-03 0. -1.
        -11    1    3    3    0    0 -0.33093034167E+01  0.11135165305E+02 -0.18830141076E+01  0.11768140799E+02  0.51100000000E-03 0.  1.
         12    1    3    3    0    0 -0.12572473945E+01 -0.39198059703E+02 -0.10027830837E+02  0.40479944995E+02  0.00000000000E+00 0. -1.
</event>
<event>
 7    1  0.6841384E-013  0.5930194E+02  0.7816164E-02  0.1266605E+00
        -11   -1    0    0    0    0  0.00000000000E+00  0.00000000000E+00  0.45593999997E+02  0.45594000000E+02  0.51100000000E-03 0. -1.
         11   -1    0    0    0    0 -0.00000000000E+00 -0.00000000000E+00 -0.45593999997E+02  0.45594000000E+02  0.51100000000E-03 0.  1.
    9900012    2    1    2    0    0 -0.15107100971E+02  0.26551313363E+02 -0.91391542263E+01  0.59301939080E+02  0.49999990976E+02 0.  0.
        -12    1    1    2    0    0  0.15107100971E+02 -0.26551313363E+02  0.91391542263E+01  0.31886060920E+02  0.00000000000E+00 0.  1.
         11    1    3    3    0    0 -0.12036297653E+02  0.63258974303E+01 -0.71299999142E+01  0.15353381990E+02  0.51100000000E-03 0. -1.
        -11    1    3    3    0    0 -0.11934221408E+02 -0.73559977844E+01  0.35217767842E+01  0.14454731267E+02  0.51100000000E-03 0.  1.
        -12    1    3    3    0    0  0.88634180899E+01  0.27581413717E+02 -0.55309310962E+01  0.29493825823E+02  0.00000000000E+00 0.  1.
</event>
<event>
 7    1  0.6841384E-013  0.5930195E+02  0.7816164E-02  0.1266605E+00
        -11   -1    0    0    0    0  0.00000000000E+00  0.00000000000E+00  0.45593999997E+02  0.45594000000E+02  0.51100000000E-03 0. -1.
         11   -1    0    0    0    0 -0.00000000000E+00 -0.00000000000E+00 -0.45593999997E+02  0.45594000000E+02  0.51100000000E-03 0.  1.
    9900012    2    1    2    0    0  0.19533294736E+02  0.24483030966E+02  0.59792920205E+01  0.59301947538E+02  0.50000006403E+02 0.  0.
        -12    1    1    2    0    0 -0.19533294736E+02 -0.24483030966E+02 -0.59792920205E+01  0.31886052462E+02  0.00000000000E+00 0.  1.
         11    1    3    3    0    0  0.23464221563E+02  0.91565500856E+01 -0.49466055494E+01  0.25668677601E+02  0.51100000000E-03 0. -1.
        -11    1    3    3    0    0  0.54278711681E+01  0.16909980755E+02  0.15054998039E+02  0.23282229292E+02  0.51100000000E-03 0.  1.
        -12    1    3    3    0    0 -0.93587979955E+01 -0.15834998750E+01 -0.41291004692E+01  0.10351040646E+02  0.00000000000E+00 0.  1.
</event>
<event>
 7    1  0.6841384E-013  0.5930195E+02  0.7816164E-02  0.1266605E+00
        -11   -1    0    0    0    0  0.00000000000E+00  0.00000000000E+00  0.45593999997E+02  0.45594000000E+02  0.51100000000E-03 0. -1.
         11   -1    0    0    0    0 -0.00000000000E+00 -0.00000000000E+00 -0.45593999997E+02  0.45594000000E+02  0.51100000000E-03 0.  1.
    9900012    2    1    2    0    0  0.23595798523E+02 -0.19738641777E+02 -0.83871550432E+01  0.59301952003E+02  0.50000014545E+02 0.  0.
        -12    1    1    2    0    0 -0.23595798523E+02  0.19738641777E+02  0.83871550432E+01  0.31886047997E+02  0.00000000000E+00 0.  1.
         11    1    3    3    0    0 -0.70167741766E+01 -0.43492349350E+01  0.95804925518E+00  0.83107654883E+01  0.51100000000E-03 0. -1.
        -11    1    3    3    0    0  0.35208418311E+00  0.30102516362E+01  0.10130408384E+02  0.10574060359E+02  0.51100000000E-03 0.  1.
        -12    1    3    3    0    0  0.30260488516E+02 -0.18399658478E+02 -0.19475612682E+02  0.40417126156E+02  0.00000000000E+00 0.  1.
</event>
<event>
 7    1  0.6841384E-013  0.5930190E+02  0.7816164E-02  0.1266605E+00
        -11   -1    0    0    0    0  0.00000000000E+00  0.00000000000E+00  0.45593999997E+02  0.45594000000E+02  0.51100000000E-03 0.  1.
         11   -1    0    0    0    0 -0.00000000000E+00 -0.00000000000E+00 -0.45593999997E+02  0.45594000000E+02  0.51100000000E-03 0. -1.
    9900012    2    1    2    0    0  0.19746372653E+02 -0.21694282265E+02 -0.12496480194E+02  0.59301903764E+02  0.49999926568E+02 0.  0.
        -12    1    1    2    0    0 -0.19746372653E+02  0.21694282265E+02  0.12496480194E+02  0.31886096236E+02  0.00000000000E+00 0.  1.
         11    1    3    3    0    0  0.76622537650E+01  0.13702647378E+01 -0.25745687681E+02  0.26896620469E+02  0.51100000000E-03 0. -1.
        -11    1    3    3    0    0  0.57118470827E+01 -0.65899053676E+01 -0.21380769333E+01  0.89790546876E+01  0.51100000000E-03 0.  1.
        -12    1    3    3    0    0  0.63722718057E+01 -0.16474641635E+02  0.15387284420E+02  0.23426228608E+02  0.00000000000E+00 0.  1.
</event>
<event>
 7    1  0.6841384E-013  0.5930193E+02  0.7816164E-02  0.1266605E+00
        -11   -1    0    0    0    0  0.00000000000E+00  0.00000000000E+00  0.45593999997E+02  0.45594000000E+02  0.51100000000E-03 0. -1.
         11   -1    0    0    0    0 -0.00000000000E+00 -0.00000000000E+00 -0.45593999997E+02  0.45594000000E+02  0.51100000000E-03 0.  1.
    9900012    2    1    2    0    0  0.20090390924E+02  0.21361107381E+02  0.12522006397E+02  0.59301931565E+02  0.49999977271E+02 0.  0.
        -12    1    1    2    0    0 -0.20090390924E+02 -0.21361107381E+02 -0.12522006397E+02  0.31886068435E+02  0.00000000000E+00 0.  1.
         11    1    3    3    0    0  0.12580033483E+02 -0.50113278769E+01  0.14101887882E+02  0.19550802838E+02  0.51100000000E-03 0. -1.
        -11    1    3    3    0    0 -0.99473876998E+01  0.10643349831E+02  0.49093390729E+01  0.15373126815E+02  0.51100000000E-03 0.  1.
         12    1    3    3    0    0  0.17457745141E+02  0.15729085427E+02 -0.64892205580E+01  0.24378001912E+02  0.00000000000E+00 0. -1.
</event>
<event>
 7    1  0.6841384E-013  0.5930194E+02  0.7816164E-02  0.1266605E+00
        -11   -1    0    0    0    0  0.00000000000E+00  0.00000000000E+00  0.45593999997E+02  0.45594000000E+02  0.51100000000E-03 0.  1.
         11   -1    0    0    0    0 -0.00000000000E+00 -0.00000000000E+00 -0.45593999997E+02  0.45594000000E+02  0.51100000000E-03 0. -1.
    9900012    2    1    2    0    0 -0.21726081231E+02 -0.78227835086E+01 -0.21988682517E+02  0.59301941819E+02  0.49999995972E+02 0.  0.
        -12    1    1    2    0    0  0.21726081231E+02  0.78227835086E+01  0.21988682517E+02  0.31886058181E+02  0.00000000000E+00 0.  1.
         11    1    3    3    0    0 -0.68938643538E+01  0.18749844811E+02  0.25518835475E+01  0.20139368314E+02  0.51100000000E-03 0.  1.
        -11    1    3    3    0    0 -0.78550768619E+01 -0.13553508099E+02 -0.14078892194E+02  0.21062170353E+02  0.51100000000E-03 0. -1.
        -12    1    3    3    0    0 -0.69771400152E+01 -0.13019120220E+02 -0.10461673870E+02  0.18100403152E+02  0.00000000000E+00 0.  1.
</event>
<event>
 7    1  0.6841384E-013  0.5930194E+02  0.7816164E-02  0.1266605E+00
        -11   -1    0    0    0    0  0.00000000000E+00  0.00000000000E+00  0.45593999997E+02  0.45594000000E+02  0.51100000000E-03 0.  1.
         11   -1    0    0    0    0 -0.00000000000E+00 -0.00000000000E+00 -0.45593999997E+02  0.45594000000E+02  0.51100000000E-03 0. -1.
    9900012    2    1    2    0    0  0.65396292432E+00 -0.20734919232E+02 -0.24214789984E+02  0.59301943533E+02  0.49999999098E+02 0.  0.
        -12    1    1    2    0    0 -0.65396292432E+00  0.20734919232E+02  0.24214789984E+02  0.31886056467E+02  0.00000000000E+00 0.  1.
         11    1    3    3    0    0 -0.19050154084E+01  0.74551365833E+00 -0.24647411486E+02  0.24732160592E+02  0.51100000000E-03 0. -1.
        -11    1    3    3    0    0  0.29238492314E+01 -0.11963453870E+02 -0.13126929885E+02  0.17999705867E+02  0.51100000000E-03 0.  1.
        -12    1    3    3    0    0 -0.36487089859E+00 -0.95169790198E+01  0.13559551387E+02  0.16570077075E+02  0.00000000000E+00 0.  1.
</event>
<event>
 7    1  0.6841384E-013  0.5930193E+02  0.7816164E-02  0.1266605E+00
        -11   -1    0    0    0    0  0.00000000000E+00  0.00000000000E+00  0.45593999997E+02  0.45594000000E+02  0.51100000000E-03 0.  1.
         11   -1    0    0    0    0 -0.00000000000E+00 -0.00000000000E+00 -0.45593999997E+02  0.45594000000E+02  0.51100000000E-03 0. -1.
    9900012    2    1    2    0    0  0.17308271958E+02 -0.16123028930E+02  0.21382079819E+02  0.59301926591E+02  0.49999968199E+02 0.  0.
        -12    1    1    2    0    0 -0.17308271958E+02  0.16123028930E+02 -0.21382079819E+02  0.31886073409E+02  0.00000000000E+00 0.  1.
         11    1    3    3    0    0  0.17136795497E+02  0.33602358022E+01  0.65117441457E+00  0.17475267464E+02  0.51100000000E-03 0. -1.
        -11    1    3    3    0    0  0.52932987071E+01  0.13492563919E+01  0.19596696436E+02  0.20343795503E+02  0.51100000000E-03 0.  1.
        -12    1    3    3    0    0 -0.51218222456E+01 -0.20832521124E+02  0.11342089685E+01  0.21482863624E+02  0.00000000000E+00 0.  1.
</event>
<event>
 7    1  0.6841384E-013  0.5930195E+02  0.7816164E-02  0.1266605E+00
        -11   -1    0    0    0    0  0.00000000000E+00  0.00000000000E+00  0.45593999997E+02  0.45594000000E+02  0.51100000000E-03 0.  1.
         11   -1    0    0    0    0 -0.00000000000E+00 -0.00000000000E+00 -0.45593999997E+02  0.45594000000E+02  0.51100000000E-03 0. -1.
    9900012    2    1    2    0    0 -0.98465934453E+01 -0.16691892060E+02 -0.25320849133E+02  0.59301951894E+02  0.50000014346E+02 0.  0.
        -12    1    1    2    0    0  0.98465934453E+01  0.16691892060E+02  0.25320849133E+02  0.31886048106E+02  0.00000000000E+00 0.  1.
         11    1    3    3    0    0 -0.98807251800E+01 -0.16681765818E+02 -0.17453397418E+02  0.26086991443E+02  0.51100000000E-03 0. -1.
        -11    1    3    3    0    0  0.61627996216E+01 -0.14908443038E+02 -0.32435064730E+01  0.16454850576E+02  0.51100000000E-03 0.  1.
        -12    1    3    3    0    0 -0.61286678870E+01  0.14898316795E+02 -0.46239452419E+01  0.16760109875E+02  0.00000000000E+00 0.  1.
</event>
<event>
 7    1  0.6841384E-013  0.5930196E+02  0.7816164E-02  0.1266605E+00
        -11   -1    0    0    0    0  0.00000000000E+00  0.00000000000E+00  0.45593999997E+02  0.45594000000E+02  0.51100000000E-03 0.  1.
         11   -1    0    0    0    0 -0.00000000000E+00 -0.00000000000E+00 -0.45593999997E+02  0.45594000000E+02  0.51100000000E-03 0. -1.
    9900012    2    1    2    0    0 -0.21904635442E+02  0.22448206268E+02 -0.57432049067E+01  0.59301961972E+02  0.50000032727E+02 0.  0.
        -12    1    1    2    0    0  0.21904635442E+02 -0.22448206268E+02  0.57432049067E+01  0.31886038028E+02  0.00000000000E+00 0.  1.
         11    1    3    3    0    0  0.17123223045E+01  0.15517767399E+02 -0.17238044327E+02  0.23256898443E+02  0.51100000000E-03 0. -1.
        -11    1    3    3    0    0 -0.11509329284E+02 -0.32841588400E+01 -0.51834358556E+01  0.13042943203E+02  0.51100000000E-03 0.  1.
        -12    1    3    3    0    0 -0.12107628462E+02  0.10214597709E+02  0.16678275276E+02  0.23002120327E+02  0.00000000000E+00 0.  1.
</event>
<event>
 7    1  0.6841384E-013  0.5930194E+02  0.7816164E-02  0.1266605E+00
        -11   -1    0    0    0    0  0.00000000000E+00  0.00000000000E+00  0.45593999997E+02  0.45594000000E+02  0.51100000000E-03 0. -1.
         11   -1    0    0    0    0 -0.00000000000E+00 -0.00000000000E+00 -0.45593999997E+02  0.45594000000E+02  0.51100000000E-03 0.  1.
    9900012    2    1    2    0    0 -0.26767811911E+02  0.30383201157E+01  0.17057942048E+02  0.59301944576E+02  0.50000001000E+02 0.  0.
        -12    1    1    2    0    0  0.26767811911E+02 -0.30383201157E+01 -0.17057942048E+02  0.31886055424E+02  0.00000000000E+00 0.  1.
         11    1    3    3    0    0  0.69226987092E+01 -0.31751629471E+01 -0.60873086501E+01  0.97499099494E+01  0.51100000000E-03 0. -1.
        -11    1    3    3    0    0 -0.14933321472E+02  0.93279200132E+01 -0.23328261804E+01  0.17761088373E+02  0.51100000000E-03 0.  1.
         12    1    3    3    0    0 -0.18757189148E+02 -0.31144369504E+01  0.25478076878E+02  0.31790946253E+02  0.00000000000E+00 0. -1.
</event>
<event>
 7    1  0.6841384E-013  0.5930193E+02  0.7816164E-02  0.1266605E+00
        -11   -1    0    0    0    0  0.00000000000E+00  0.00000000000E+00  0.45593999997E+02  0.45594000000E+02  0.51100000000E-03 0.  1.
         11   -1    0    0    0    0 -0.00000000000E+00 -0.00000000000E+00 -0.45593999997E+02  0.45594000000E+02  0.51100000000E-03 0. -1.
    9900012    2    1    2    0    0 -0.40280985166E+01  0.41398818557E+01 -0.31358528169E+02  0.59301929556E+02  0.49999973608E+02 0.  0.
        -12    1    1    2    0    0  0.40280985166E+01 -0.41398818557E+01  0.31358528169E+02  0.31886070444E+02  0.00000000000E+00 0.  1.
         11    1    3    3    0    0  0.70049123662E+00  0.75066898028E+01 -0.43693865708E+01  0.87139324667E+01  0.51100000000E-03 0. -1.
        -11    1    3    3    0    0 -0.17802462093E+02  0.12610625152E+02 -0.16976186404E+02  0.27643198592E+02  0.51100000000E-03 0.  1.
        -12    1    3    3    0    0  0.13073872340E+02 -0.15977433099E+02 -0.10012955194E+02  0.22944798498E+02  0.00000000000E+00 0.  1.
</event>
<event>
 7    1  0.6841384E-013  0.5930186E+02  0.7816164E-02  0.1266605E+00
        -11   -1    0    0    0    0  0.00000000000E+00  0.00000000000E+00  0.45593999997E+02  0.45594000000E+02  0.51100000000E-03 0.  1.
         11   -1    0    0    0    0 -0.00000000000E+00 -0.00000000000E+00 -0.45593999997E+02  0.45594000000E+02  0.51100000000E-03 0. -1.
    9900012    2    1    2    0    0  0.14947596111E+02  0.26166595237E+02 -0.10421350680E+02  0.59301860601E+02  0.49999847849E+02 0.  0.
        -12    1    1    2    0    0 -0.14947596111E+02 -0.26166595237E+02  0.10421350680E+02  0.31886139399E+02  0.00000000000E+00 0.  1.
         11    1    3    3    0    0 -0.13420683685E+00  0.70325237414E+01 -0.35642067448E+01  0.78853009853E+01  0.51100000000E-03 0. -1.
        -11    1    3    3    0    0 -0.40542561870E+01  0.18070981702E+02 -0.20699181200E+02  0.27775051314E+02  0.51100000000E-03 0.  1.
         12    1    3    3    0    0  0.19136059135E+02  0.10630897942E+01  0.13842037265E+02  0.23641508301E+02  0.00000000000E+00 0. -1.
</event>
<event>
 7    1  0.6841384E-013  0.5930195E+02  0.7816164E-02  0.1266605E+00
        -11   -1    0    0    0    0  0.00000000000E+00  0.00000000000E+00  0.45593999997E+02  0.45594000000E+02  0.51100000000E-03 0. -1.
         11   -1    0    0    0    0 -0.00000000000E+00 -0.00000000000E+00 -0.45593999997E+02  0.45594000000E+02  0.51100000000E-03 0.  1.
    9900012    2    1    2    0    0  0.28794179050E+02  0.71097172816E+00  0.13678820141E+02  0.59301947431E+02  0.50000006207E+02 0.  0.
        -12    1    1    2    0    0 -0.28794179050E+02 -0.71097172816E+00 -0.13678820141E+02  0.31886052569E+02  0.00000000000E+00 0.  1.
         11    1    3    3    0    0  0.26942059853E+02 -0.36494602719E+00  0.13325974356E+02  0.30059763265E+02  0.51100000000E-03 0. -1.
        -11    1    3    3    0    0  0.12341640872E+02  0.35996834084E+01  0.87665869343E+01  0.15560426305E+02  0.51100000000E-03 0.  1.
        -12    1    3    3    0    0 -0.10489521675E+02 -0.25237656530E+01 -0.84137411491E+01  0.13681757861E+02  0.00000000000E+00 0.  1.
</event>
<event>
 7    1  0.6841384E-013  0.5930194E+02  0.7816164E-02  0.1266605E+00
        -11   -1    0    0    0    0  0.00000000000E+00  0.00000000000E+00  0.45593999997E+02  0.45594000000E+02  0.51100000000E-03 0.  1.
         11   -1    0    0    0    0 -0.00000000000E+00 -0.00000000000E+00 -0.45593999997E+02  0.45594000000E+02  0.51100000000E-03 0. -1.
    9900012    2    1    2    0    0 -0.20947361322E+02  0.14782313917E+02 -0.18958162397E+02  0.59301942348E+02  0.49999996937E+02 0.  0.
        -12    1    1    2    0    0  0.20947361322E+02 -0.14782313917E+02  0.18958162397E+02  0.31886057652E+02  0.00000000000E+00 0.  1.
         11    1    3    3    0    0 -0.12571693515E+01 -0.35845963138E+01 -0.49876346909E+01  0.62694741073E+01  0.51100000000E-03 0. -1.
        -11    1    3    3    0    0  0.65474327679E+01  0.11741079217E+02 -0.21126511850E+02  0.25040992796E+02  0.51100000000E-03 0.  1.
         12    1    3    3    0    0 -0.26237624738E+02  0.66258310143E+01  0.71559841437E+01  0.27991475445E+02  0.00000000000E+00 0. -1.
</event>
<event>
 7    1  0.6841384E-013  0.5930197E+02  0.7816164E-02  0.1266605E+00
        -11   -1    0    0    0    0  0.00000000000E+00  0.00000000000E+00  0.45593999997E+02  0.45594000000E+02  0.51100000000E-03 0.  1.
         11   -1    0    0    0    0 -0.00000000000E+00 -0.00000000000E+00 -0.45593999997E+02  0.45594000000E+02  0.51100000000E-03 0. -1.
    9900012    2    1    2    0    0 -0.62528796883E+01  0.16271209432E+02 -0.26699595848E+02  0.59301965765E+02  0.50000039643E+02 0.  0.
        -12    1    1    2    0    0  0.62528796883E+01 -0.16271209432E+02  0.26699595848E+02  0.31886034235E+02  0.00000000000E+00 0.  1.
         11    1    3    3    0    0 -0.10298074636E+02 -0.62079187204E+01  0.10089040541E+01  0.12066751166E+02  0.51100000000E-03 0. -1.
        -11    1    3    3    0    0 -0.65164194712E+01  0.85739496671E+01  0.36265010141E+01  0.11363443381E+02  0.51100000000E-03 0.  1.
         12    1    3    3    0    0  0.10561614419E+02  0.13905178485E+02 -0.31335000917E+02  0.35871771218E+02  0.00000000000E+00 0. -1.
</event>
<event>
 7    1  0.6841384E-013  0.5930192E+02  0.7816164E-02  0.1266605E+00
        -11   -1    0    0    0    0  0.00000000000E+00  0.00000000000E+00  0.45593999997E+02  0.45594000000E+02  0.51100000000E-03 0.  1.
         11   -1    0    0    0    0 -0.00000000000E+00 -0.00000000000E+00 -0.45593999997E+02  0.45594000000E+02  0.51100000000E-03 0. -1.
    9900012    2    1    2    0    0 -0.18151127339E+02 -0.25862519001E+02 -0.42882475044E+01  0.59301915583E+02  0.49999948124E+02 0.  0.
        -12    1    1    2    0    0  0.18151127339E+02  0.25862519001E+02  0.42882475044E+01  0.31886084417E+02  0.00000000000E+00 0.  1.
         11    1    3    3    0    0  0.16394111619E+02 -0.60686854206E+01 -0.19082088287E+01  0.17585138604E+02  0.51100000000E-03 0.  1.
        -11    1    3    3    0    0 -0.82030971963E+01  0.73565612266E+00 -0.15322626809E-01  0.82360323328E+01  0.51100000000E-03 0. -1.
        -12    1    3    3    0    0 -0.26342141762E+02 -0.20529489703E+02 -0.23647160489E+01  0.33480744647E+02  0.00000000000E+00 0.  1.
</event>
<event>
 7    1  0.6841384E-013  0.5930195E+02  0.7816164E-02  0.1266605E+00
        -11   -1    0    0    0    0  0.00000000000E+00  0.00000000000E+00  0.45593999997E+02  0.45594000000E+02  0.51100000000E-03 0.  1.
         11   -1    0    0    0    0 -0.00000000000E+00 -0.00000000000E+00 -0.45593999997E+02  0.45594000000E+02  0.51100000000E-03 0. -1.
    9900012    2    1    2    0    0  0.31168441659E+02  0.65050138880E+01 -0.17126537836E+01  0.59301950635E+02  0.50000012049E+02 0.  0.
        -12    1    1    2    0    0 -0.31168441659E+02 -0.65050138880E+01  0.17126537836E+01  0.31886049365E+02  0.00000000000E+00 0.  1.
         11    1    3    3    0    0  0.18028232404E+02 -0.27057228287E+01 -0.27534844489E+01  0.18436913422E+02  0.51100000000E-03 0.  1.
        -11    1    3    3    0    0  0.20775616384E+02  0.99502069011E+01  0.13154406235E+02  0.26526802619E+02  0.51100000000E-03 0. -1.
        -12    1    3    3    0    0 -0.76354071290E+01 -0.73947018439E+00 -0.12113575570E+02  0.14338234594E+02  0.00000000000E+00 0.  1.
</event>
<event>
 7    1  0.6841384E-013  0.5930188E+02  0.7816164E-02  0.1266605E+00
        -11   -1    0    0    0    0  0.00000000000E+00  0.00000000000E+00  0.45593999997E+02  0.45594000000E+02  0.51100000000E-03 0. -1.
         11   -1    0    0    0    0 -0.00000000000E+00 -0.00000000000E+00 -0.45593999997E+02  0.45594000000E+02  0.51100000000E-03 0.  1.
    9900012    2    1    2    0    0 -0.12507799352E+02  0.28778349834E+02 -0.56644807862E+01  0.59301877527E+02  0.49999878718E+02 0.  0.
        -12    1    1    2    0    0  0.12507799352E+02 -0.28778349834E+02  0.56644807862E+01  0.31886122473E+02  0.00000000000E+00 0.  1.
         11    1    3    3    0    0 -0.44477351665E+01  0.13453688513E+01 -0.86918716738E+01  0.98560133377E+01  0.51100000000E-03 0. -1.
        -11    1    3    3    0    0 -0.30066686461E+01 -0.21479172378E+01 -0.14316036126E+02  0.14785212052E+02  0.51100000000E-03 0.  1.
         12    1    3    3    0    0 -0.50533955390E+01  0.29580898221E+02  0.17343427013E+02  0.34660652137E+02  0.00000000000E+00 0. -1.
</event>
<event>
 7    1  0.6841384E-013  0.5930186E+02  0.7816164E-02  0.1266605E+00
        -11   -1    0    0    0    0  0.00000000000E+00  0.00000000000E+00  0.45593999997E+02  0.45594000000E+02  0.51100000000E-03 0.  1.
         11   -1    0    0    0    0 -0.00000000000E+00 -0.00000000000E+00 -0.45593999997E+02  0.45594000000E+02  0.51100000000E-03 0. -1.
    9900012    2    1    2    0    0  0.25698607848E+02  0.80747389261E+00 -0.18858828214E+02  0.59301860989E+02  0.49999848557E+02 0.  0.
        -12    1    1    2    0    0 -0.25698607848E+02 -0.80747389261E+00  0.18858828214E+02  0.31886139011E+02  0.00000000000E+00 0.  1.
         11    1    3    3    0    0 -0.72550495121E+01 -0.32175967756E+01 -0.24419324183E+01  0.83037164348E+01  0.51100000000E-03 0.  1.
        -11    1    3    3    0    0  0.39089823527E+01  0.13954320063E+01 -0.21061985956E+02  0.21467059095E+02  0.51100000000E-03 0. -1.
        -12    1    3    3    0    0  0.29044675007E+02  0.26296386619E+01  0.46450901602E+01  0.29531085459E+02  0.00000000000E+00 0.  1.
</event>
<event>
 7    1  0.6841384E-013  0.5930194E+02  0.7816164E-02  0.1266605E+00
        -11   -1    0    0    0    0  0.00000000000E+00  0.00000000000E+00  0.45593999997E+02  0.45594000000E+02  0.51100000000E-03 0. -1.
         11   -1    0    0    0    0 -0.00000000000E+00 -0.00000000000E+00 -0.45593999997E+02  0.45594000000E+02  0.51100000000E-03 0.  1.
    9900012    2    1    2    0    0 -0.18633385169E+02 -0.25873023478E+02 -0.32332035358E+00  0.59301938425E+02  0.49999989781E+02 0.  0.
        -12    1    1    2    0    0  0.18633385169E+02  0.25873023478E+02  0.32332035358E+00  0.31886061575E+02  0.00000000000E+00 0.  1.
         11    1    3    3    0    0  0.58398027082E+01 -0.19351529812E+01 -0.30894079231E+01  0.68842250332E+01  0.51100000000E-03 0. -1.
        -11    1    3    3    0    0 -0.17407900337E+02  0.67202130999E+01  0.83864481584E+01  0.20457975736E+02  0.51100000000E-03 0.  1.
         12    1    3    3    0    0 -0.70652875404E+01 -0.30658083597E+02 -0.56203605888E+01  0.31959737655E+02  0.00000000000E+00 0. -1.
</event>
<event>
 7    1  0.6841384E-013  0.5930193E+02  0.7816164E-02  0.1266605E+00
        -11   -1    0    0    0    0  0.00000000000E+00  0.00000000000E+00  0.45593999997E+02  0.45594000000E+02  0.51100000000E-03 0.  1.
         11   -1    0    0    0    0 -0.00000000000E+00 -0.00000000000E+00 -0.45593999997E+02  0.45594000000E+02  0.51100000000E-03 0. -1.
    9900012    2    1    2    0    0  0.99940031565E+01  0.24459535539E+02 -0.17848598514E+02  0.59301930208E+02  0.49999974796E+02 0.  0.
        -12    1    1    2    0    0 -0.99940031565E+01 -0.24459535539E+02  0.17848598514E+02  0.31886069792E+02  0.00000000000E+00 0.  1.
         11    1    3    3    0    0 -0.14700291560E+02  0.75809860159E+01 -0.12951624107E+02  0.21007486480E+02  0.51100000000E-03 0. -1.
        -11    1    3    3    0    0  0.27988585436E+00 -0.33095035665E+01  0.41808231121E+01  0.53395160927E+01  0.51100000000E-03 0.  1.
         12    1    3    3    0    0  0.24414408862E+02  0.20188053090E+02 -0.90777975189E+01  0.32954927635E+02  0.00000000000E+00 0. -1.
</event>
<event>
 7    1  0.6841384E-013  0.5930195E+02  0.7816164E-02  0.1266605E+00
        -11   -1    0    0    0    0  0.00000000000E+00  0.00000000000E+00  0.45593999997E+02  0.45594000000E+02  0.51100000000E-03 0. -1.
         11   -1    0    0    0    0 -0.00000000000E+00 -0.00000000000E+00 -0.45593999997E+02  0.45594000000E+02  0.51100000000E-03 0.  1.
    9900012    2    1    2    0    0 -0.18478101686E+02 -0.15506858519E+02  0.20852276194E+02  0.59301947791E+02  0.50000006863E+02 0.  0.
        -12    1    1    2    0    0  0.18478101686E+02  0.15506858519E+02 -0.20852276194E+02  0.31886052209E+02  0.00000000000E+00 0.  1.
         11    1    3    3    0    0 -0.29536207561E+01  0.78310055592E+01  0.15400531609E+02  0.17527832089E+02  0.51100000000E-03 0. -1.
        -11    1    3    3    0    0  0.53747036916E+01  0.22468623398E+01  0.64914822287E+01  0.87221082276E+01  0.51100000000E-03 0.  1.
        -12    1    3    3    0    0 -0.20899184621E+02 -0.25584726418E+02 -0.10397376435E+01  0.33052007474E+02  0.00000000000E+00 0.  1.
</event>
<event>
 7    1  0.6841384E-013  0.5930196E+02  0.7816164E-02  0.1266605E+00
        -11   -1    0    0    0    0  0.00000000000E+00  0.00000000000E+00  0.45593999997E+02  0.45594000000E+02  0.51100000000E-03 0.  1.
         11   -1    0    0    0    0 -0.00000000000E+00 -0.00000000000E+00 -0.45593999997E+02  0.45594000000E+02  0.51100000000E-03 0. -1.
    9900012    2    1    2    0    0  0.49452283435E+01  0.29888865808E+02 -0.99458407618E+01  0.59301963383E+02  0.50000035300E+02 0.  0.
        -12    1    1    2    0    0 -0.49452283435E+01 -0.29888865808E+02  0.99458407618E+01  0.31886036617E+02  0.00000000000E+00 0.  1.
         11    1    3    3    0    0 -0.11008780146E+02  0.24438343221E+02 -0.24783494638E+01  0.26917802214E+02  0.51100000000E-03 0.  1.
        -11    1    3    3    0    0  0.85792646720E+01  0.15270633875E+02 -0.95158419592E+01  0.19933571926E+02  0.51100000000E-03 0. -1.
        -12    1    3    3    0    0  0.73747438178E+01 -0.98201112878E+01  0.20483506612E+01  0.12450589244E+02  0.00000000000E+00 0.  1.
</event>
<event>
 7    1  0.6841384E-013  0.5930195E+02  0.7816164E-02  0.1266605E+00
        -11   -1    0    0    0    0  0.00000000000E+00  0.00000000000E+00  0.45593999997E+02  0.45594000000E+02  0.51100000000E-03 0.  1.
         11   -1    0    0    0    0 -0.00000000000E+00 -0.00000000000E+00 -0.45593999997E+02  0.45594000000E+02  0.51100000000E-03 0. -1.
    9900012    2    1    2    0    0  0.63413877509E+01  0.26353646286E+01 -0.31137791958E+02  0.59301946099E+02  0.50000003778E+02 0.  0.
        -12    1    1    2    0    0 -0.63413877509E+01 -0.26353646286E+01  0.31137791958E+02  0.31886053901E+02  0.00000000000E+00 0.  1.
         11    1    3    3    0    0  0.78863325642E+01 -0.14679493008E+02 -0.21811112684E+00  0.16665213140E+02  0.51100000000E-03 0. -1.
        -11    1    3    3    0    0  0.36766752123E+01 -0.41446916060E+01 -0.13025724331E+01  0.56914940332E+01  0.51100000000E-03 0.  1.
         12    1    3    3    0    0 -0.52216200257E+01  0.21459549242E+02 -0.29617108398E+02  0.36945238926E+02  0.00000000000E+00 0. -1.
</event>
<event>
 7    1  0.6841384E-013  0.5930196E+02  0.7816164E-02  0.1266605E+00
        -11   -1    0    0    0    0  0.00000000000E+00  0.00000000000E+00  0.45593999997E+02  0.45594000000E+02  0.51100000000E-03 0. -1.
         11   -1    0    0    0    0 -0.00000000000E+00 -0.00000000000E+00 -0.45593999997E+02  0.45594000000E+02  0.51100000000E-03 0.  1.
    9900012    2    1    2    0    0 -0.72637935053E+01  0.22338573738E+02  0.21562589641E+02  0.59301955329E+02  0.50000020611E+02 0.  0.
        -12    1    1    2    0    0  0.72637935053E+01 -0.22338573738E+02 -0.21562589641E+02  0.31886044671E+02  0.00000000000E+00 0.  1.
         11    1    3    3    0    0 -0.16513719112E+02  0.86082611387E+01  0.12122775092E+02  0.22220863056E+02  0.51100000000E-03 0. -1.
        -11    1    3    3    0    0 -0.10978397501E+02 -0.58669356087E+00  0.17450326220E+01  0.11131691701E+02  0.51100000000E-03 0.  1.
        -12    1    3    3    0    0  0.20228323108E+02  0.14317006160E+02  0.76947819276E+01  0.25949400572E+02  0.00000000000E+00 0.  1.
</event>
<event>
 7    1  0.6841384E-013  0.5930193E+02  0.7816164E-02  0.1266605E+00
        -11   -1    0    0    0    0  0.00000000000E+00  0.00000000000E+00  0.45593999997E+02  0.45594000000E+02  0.51100000000E-03 0. -1.
         11   -1    0    0    0    0 -0.00000000000E+00 -0.00000000000E+00 -0.45593999997E+02  0.45594000000E+02  0.51100000000E-03 0.  1.
    9900012    2    1    2    0    0 -0.14615377807E+00 -0.12579400512E+02  0.29299470139E+02  0.59301927357E+02  0.49999969597E+02 0.  0.
        -12    1    1    2    0    0  0.14615377807E+00  0.12579400512E+02 -0.29299470139E+02  0.31886072643E+02  0.00000000000E+00 0.  1.
         11    1    3    3    0    0 -0.15175086988E+01 -0.99179040980E+01  0.26320687748E+01  0.10372822212E+02  0.51100000000E-03 0. -1.
        -11    1    3    3    0    0  0.33760691863E+01 -0.18165674167E+02  0.27660902263E+02  0.33264321358E+02  0.51100000000E-03 0.  1.
        -12    1    3    3    0    0 -0.20047142656E+01  0.15504177753E+02 -0.99350089943E+00  0.15664783787E+02  0.00000000000E+00 0.  1.
</event>
<event>
 7    1  0.6841384E-013  0.5930192E+02  0.7816164E-02  0.1266605E+00
        -11   -1    0    0    0    0  0.00000000000E+00  0.00000000000E+00  0.45593999997E+02  0.45594000000E+02  0.51100000000E-03 0. -1.
         11   -1    0    0    0    0 -0.00000000000E+00 -0.00000000000E+00 -0.45593999997E+02  0.45594000000E+02  0.51100000000E-03 0.  1.
    9900012    2    1    2    0    0 -0.25976719244E+02 -0.18031984296E+02  0.40962945817E+01  0.59301921068E+02  0.49999958127E+02 0.  0.
        -12    1    1    2    0    0  0.25976719244E+02  0.18031984296E+02 -0.40962945817E+01  0.31886078932E+02  0.00000000000E+00 0.  1.
         11    1    3    3    0    0  0.89769890050E+01 -0.18197675699E+01  0.49621366347E+01  0.10417326233E+02  0.51100000000E-03 0. -1.
        -11    1    3    3    0    0 -0.15069439619E+02  0.83354674915E+01  0.89924376304E+00  0.17244612734E+02  0.51100000000E-03 0.  1.
        -12    1    3    3    0    0 -0.19884268631E+02 -0.24547684218E+02 -0.17650858160E+01  0.31639982101E+02  0.00000000000E+00 0.  1.
</event>
<event>
 7    1  0.6841384E-013  0.5930197E+02  0.7816164E-02  0.1266605E+00
        -11   -1    0    0    0    0  0.00000000000E+00  0.00000000000E+00  0.45593999997E+02  0.45594000000E+02  0.51100000000E-03 0.  1.
         11   -1    0    0    0    0 -0.00000000000E+00 -0.00000000000E+00 -0.45593999997E+02  0.45594000000E+02  0.51100000000E-03 0. -1.
    9900012    2    1    2    0    0  0.24748935010E+02 -0.16913312954E+02 -0.10869630710E+02  0.59301971539E+02  0.50000050174E+02 0.  0.
        -12    1    1    2    0    0 -0.24748935010E+02  0.16913312954E+02  0.10869630710E+02  0.31886028461E+02  0.00000000000E+00 0.  1.
         11    1    3    3    0    0  0.16880459917E+02 -0.15027337874E+02 -0.16886832618E+02  0.28212336428E+02  0.51100000000E-03 0. -1.
        -11    1    3    3    0    0  0.13552994173E+02 -0.70979538484E+01 -0.63094895309E+01  0.16549146754E+02  0.51100000000E-03 0.  1.
        -12    1    3    3    0    0 -0.56845190795E+01  0.52119787682E+01  0.12326691439E+02  0.14540488358E+02  0.00000000000E+00 0.  1.
</event>
<event>
 7    1  0.6841384E-013  0.5930195E+02  0.7816164E-02  0.1266605E+00
        -11   -1    0    0    0    0  0.00000000000E+00  0.00000000000E+00  0.45593999997E+02  0.45594000000E+02  0.51100000000E-03 0.  1.
         11   -1    0    0    0    0 -0.00000000000E+00 -0.00000000000E+00 -0.45593999997E+02  0.45594000000E+02  0.51100000000E-03 0. -1.
    9900012    2    1    2    0    0 -0.40424862316E+01  0.10140780243E+02 -0.29959027697E+02  0.59301945691E+02  0.50000003033E+02 0.  0.
        -12    1    1    2    0    0  0.40424862316E+01 -0.10140780243E+02  0.29959027697E+02  0.31886054309E+02  0.00000000000E+00 0.  1.
         11    1    3    3    0    0  0.41093155522E+01  0.14796896492E+02 -0.76652044832E+01  0.17163623747E+02  0.51100000000E-03 0. -1.
        -11    1    3    3    0    0 -0.83192767867E+00  0.50760576283E+01  0.79872933188E+01  0.95002799712E+01  0.51100000000E-03 0.  1.
        -12    1    3    3    0    0 -0.73198741051E+01 -0.97321738778E+01 -0.30281116533E+02  0.32638041972E+02  0.00000000000E+00 0.  1.
</event>
<event>
 7    1  0.6841384E-013  0.5930195E+02  0.7816164E-02  0.1266605E+00
        -11   -1    0    0    0    0  0.00000000000E+00  0.00000000000E+00  0.45593999997E+02  0.45594000000E+02  0.51100000000E-03 0.  1.
         11   -1    0    0    0    0 -0.00000000000E+00 -0.00000000000E+00 -0.45593999997E+02  0.45594000000E+02  0.51100000000E-03 0. -1.
    9900012    2    1    2    0    0 -0.25197614093E+02 -0.12860755688E+02 -0.14710579816E+02  0.59301953657E+02  0.50000017562E+02 0.  0.
        -12    1    1    2    0    0  0.25197614093E+02  0.12860755688E+02  0.14710579816E+02  0.31886046343E+02  0.00000000000E+00 0.  1.
         11    1    3    3    0    0 -0.22688074443E+02  0.69501886501E+01 -0.93050836676E+01  0.25488005542E+02  0.51100000000E-03 0. -1.
        -11    1    3    3    0    0 -0.11026699735E+02 -0.71521535690E+01  0.63082492280E+01  0.14578594456E+02  0.51100000000E-03 0.  1.
        -12    1    3    3    0    0  0.85171600851E+01 -0.12658790769E+02 -0.11713745376E+02  0.19235353659E+02  0.00000000000E+00 0.  1.
</event>
<event>
 7    1  0.6841384E-013  0.5930194E+02  0.7816164E-02  0.1266605E+00
        -11   -1    0    0    0    0  0.00000000000E+00  0.00000000000E+00  0.45593999997E+02  0.45594000000E+02  0.51100000000E-03 0.  1.
         11   -1    0    0    0    0 -0.00000000000E+00 -0.00000000000E+00 -0.45593999997E+02  0.45594000000E+02  0.51100000000E-03 0. -1.
    9900012    2    1    2    0    0  0.12627640089E+02 -0.28360240456E+02 -0.72773730932E+01  0.59301942043E+02  0.49999996380E+02 0.  0.
        -12    1    1    2    0    0 -0.12627640089E+02  0.28360240456E+02  0.72773730932E+01  0.31886057957E+02  0.00000000000E+00 0.  1.
         11    1    3    3    0    0 -0.67107129644E+01 -0.37132828481E+01 -0.71606729044E+00  0.77029144241E+01  0.51100000000E-03 0. -1.
        -11    1    3    3    0    0 -0.12733090316E+02 -0.75840366228E+01 -0.27258600321E+01  0.15069157696E+02  0.51100000000E-03 0.  1.
        -12    1    3    3    0    0  0.32071443369E+02 -0.17062920985E+02 -0.38354457707E+01  0.36529869923E+02  0.00000000000E+00 0.  1.
</event>
<event>
 7    1  0.6841384E-013  0.5930175E+02  0.7816164E-02  0.1266605E+00
        -11   -1    0    0    0    0  0.00000000000E+00  0.00000000000E+00  0.45593999997E+02  0.45594000000E+02  0.51100000000E-03 0. -1.
         11   -1    0    0    0    0 -0.00000000000E+00 -0.00000000000E+00 -0.45593999997E+02  0.45594000000E+02  0.51100000000E-03 0.  1.
    9900012    2    1    2    0    0 -0.26060377201E+02 -0.18648648299E+01  0.18278727318E+02  0.59301751348E+02  0.49999648598E+02 0.  0.
        -12    1    1    2    0    0  0.26060377201E+02  0.18648648299E+01 -0.18278727318E+02  0.31886248652E+02  0.00000000000E+00 0.  1.
         11    1    3    3    0    0 -0.71319652546E+01 -0.14452736937E+02  0.23720425293E+02  0.28677606415E+02  0.51100000000E-03 0. -1.
        -11    1    3    3    0    0 -0.22249822852E+01 -0.45910607248E+01  0.20814190462E+01  0.55100535619E+01  0.51100000000E-03 0.  1.
        -12    1    3    3    0    0 -0.16703429661E+02  0.17178932832E+02 -0.75231170208E+01  0.25114091371E+02  0.00000000000E+00 0.  1.
</event>
<event>
 7    1  0.6841384E-013  0.5930195E+02  0.7816164E-02  0.1266605E+00
        -11   -1    0    0    0    0  0.00000000000E+00  0.00000000000E+00  0.45593999997E+02  0.45594000000E+02  0.51100000000E-03 0.  1.
         11   -1    0    0    0    0 -0.00000000000E+00 -0.00000000000E+00 -0.45593999997E+02  0.45594000000E+02  0.51100000000E-03 0. -1.
    9900012    2    1    2    0    0 -0.26793826114E+01  0.13780582280E+02 -0.28629298627E+02  0.59301948519E+02  0.50000008191E+02 0.  0.
        -12    1    1    2    0    0  0.26793826114E+01 -0.13780582280E+02  0.28629298627E+02  0.31886051481E+02  0.00000000000E+00 0.  1.
         11    1    3    3    0    0  0.19399333393E+01 -0.21382629837E+01 -0.61847253292E+01  0.68254184932E+01  0.51100000000E-03 0. -1.
        -11    1    3    3    0    0  0.54124117648E+01 -0.10799235882E+02 -0.20596489383E+02  0.23877459495E+02  0.51100000000E-03 0.  1.
        -12    1    3    3    0    0 -0.10031727716E+02  0.26718081146E+02 -0.18480839145E+01  0.28599070531E+02  0.00000000000E+00 0.  1.
</event>
<event>
 7    1  0.6841384E-013  0.5930191E+02  0.7816164E-02  0.1266605E+00
        -11   -1    0    0    0    0  0.00000000000E+00  0.00000000000E+00  0.45593999997E+02  0.45594000000E+02  0.51100000000E-03 0.  1.
         11   -1    0    0    0    0 -0.00000000000E+00 -0.00000000000E+00 -0.45593999997E+02  0.45594000000E+02  0.51100000000E-03 0. -1.
    9900012    2    1    2    0    0 -0.52224413559E+01 -0.30372850603E+02  0.81816063428E+01  0.59301911657E+02  0.49999940964E+02 0.  0.
        -12    1    1    2    0    0  0.52224413559E+01  0.30372850603E+02 -0.81816063428E+01  0.31886088343E+02  0.00000000000E+00 0.  1.
         11    1    3    3    0    0  0.33903388372E+01 -0.16664281309E+02 -0.14610115323E+02  0.22419815766E+02  0.51100000000E-03 0. -1.
        -11    1    3    3    0    0 -0.12581832786E+02 -0.62457768403E+01  0.16871210460E+01  0.14147742656E+02  0.51100000000E-03 0.  1.
        -12    1    3    3    0    0  0.39690525927E+01 -0.74627924532E+01  0.21104600620E+02  0.22734353235E+02  0.00000000000E+00 0.  1.
</event>
<event>
 7    1  0.6841384E-013  0.5930196E+02  0.7816164E-02  0.1266605E+00
        -11   -1    0    0    0    0  0.00000000000E+00  0.00000000000E+00  0.45593999997E+02  0.45594000000E+02  0.51100000000E-03 0. -1.
         11   -1    0    0    0    0 -0.00000000000E+00 -0.00000000000E+00 -0.45593999997E+02  0.45594000000E+02  0.51100000000E-03 0.  1.
    9900012    2    1    2    0    0 -0.13806561169E+02 -0.18464789325E+02 -0.22026119181E+02  0.59301960699E+02  0.50000030404E+02 0.  0.
        -12    1    1    2    0    0  0.13806561169E+02  0.18464789325E+02  0.22026119181E+02  0.31886039301E+02  0.00000000000E+00 0.  1.
         11    1    3    3    0    0 -0.13930409447E+02 -0.12759924376E+02  0.24001351737E+01  0.19042915390E+02  0.51100000000E-03 0. -1.
        -11    1    3    3    0    0 -0.88861602531E+01 -0.72143242939E+01  0.25939696760E+01  0.11736225884E+02  0.51100000000E-03 0.  1.
        -12    1    3    3    0    0  0.90100085308E+01  0.15094593445E+01 -0.27020224031E+02  0.28522819425E+02  0.00000000000E+00 0.  1.
</event>
<event>
 7    1  0.6841384E-013  0.5930194E+02  0.7816164E-02  0.1266605E+00
        -11   -1    0    0    0    0  0.00000000000E+00  0.00000000000E+00  0.45593999997E+02  0.45594000000E+02  0.51100000000E-03 0.  1.
         11   -1    0    0    0    0 -0.00000000000E+00 -0.00000000000E+00 -0.45593999997E+02  0.45594000000E+02  0.51100000000E-03 0. -1.
    9900012    2    1    2    0    0 -0.12561467633E+02 -0.21053566478E+02 -0.20388174704E+02  0.59301940377E+02  0.49999993342E+02 0.  0.
        -12    1    1    2    0    0  0.12561467633E+02  0.21053566478E+02  0.20388174704E+02  0.31886059623E+02  0.00000000000E+00 0.  1.
         11    1    3    3    0    0 -0.14220095970E+02  0.30491027695E+01 -0.22132523912E+02  0.26483141281E+02  0.51100000000E-03 0. -1.
        -11    1    3    3    0    0 -0.95812467996E+01 -0.58952900514E+01  0.19672133511E+01  0.11420361801E+02  0.51100000000E-03 0.  1.
         12    1    3    3    0    0  0.11239875137E+02 -0.18207379196E+02 -0.22286414274E+00  0.21398437296E+02  0.00000000000E+00 0. -1.
</event>
<event>
 7    1  0.6841384E-013  0.5930195E+02  0.7816164E-02  0.1266605E+00
        -11   -1    0    0    0    0  0.00000000000E+00  0.00000000000E+00  0.45593999997E+02  0.45594000000E+02  0.51100000000E-03 0.  1.
         11   -1    0    0    0    0 -0.00000000000E+00 -0.00000000000E+00 -0.45593999997E+02  0.45594000000E+02  0.51100000000E-03 0. -1.
    9900012    2    1    2    0    0  0.74212104216E+01 -0.99789337037E+01 -0.29360972860E+02  0.59301949613E+02  0.50000010186E+02 0.  0.
        -12    1    1    2    0    0 -0.74212104216E+01  0.99789337037E+01  0.29360972860E+02  0.31886050387E+02  0.00000000000E+00 0.  1.
         11    1    3    3    0    0 -0.50316841694E+01  0.47437425373E+01 -0.21112626828E+02  0.22216299212E+02  0.51100000000E-03 0. -1.
        -11    1    3    3    0    0 -0.14472697835E+01  0.53907587996E+01  0.64724547496E+01  0.85467854196E+01  0.51100000000E-03 0.  1.
        -12    1    3    3    0    0  0.13900164374E+02 -0.20113435041E+02 -0.14720800782E+02  0.28538864981E+02  0.00000000000E+00 0.  1.
</event>
<event>
 7    1  0.6841384E-013  0.5930195E+02  0.7816164E-02  0.1266605E+00
        -11   -1    0    0    0    0  0.00000000000E+00  0.00000000000E+00  0.45593999997E+02  0.45594000000E+02  0.51100000000E-03 0.  1.
         11   -1    0    0    0    0 -0.00000000000E+00 -0.00000000000E+00 -0.45593999997E+02  0.45594000000E+02  0.51100000000E-03 0. -1.
    9900012    2    1    2    0    0 -0.15745430748E+02  0.15642926720E+02 -0.22893239296E+02  0.59301950523E+02  0.50000011845E+02 0.  0.
        -12    1    1    2    0    0  0.15745430748E+02 -0.15642926720E+02  0.22893239296E+02  0.31886049477E+02  0.00000000000E+00 0.  1.
         11    1    3    3    0    0  0.13749845266E+01  0.11607939684E+02  0.44989481988E+01  0.12524990272E+02  0.51100000000E-03 0. -1.
        -11    1    3    3    0    0 -0.60206617203E+01 -0.64092362076E+00  0.76306403098E+01  0.97409353985E+01  0.51100000000E-03 0.  1.
         12    1    3    3    0    0 -0.11099753554E+02  0.46759106569E+01 -0.35022827804E+02  0.37036024852E+02  0.00000000000E+00 0. -1.
</event>
<event>
 7    1  0.6841384E-013  0.5930195E+02  0.7816164E-02  0.1266605E+00
        -11   -1    0    0    0    0  0.00000000000E+00  0.00000000000E+00  0.45593999997E+02  0.45594000000E+02  0.51100000000E-03 0.  1.
         11   -1    0    0    0    0 -0.00000000000E+00 -0.00000000000E+00 -0.45593999997E+02  0.45594000000E+02  0.51100000000E-03 0. -1.
    9900012    2    1    2    0    0  0.29128838866E+02 -0.12863650317E+02 -0.16605556847E+01  0.59301949784E+02  0.50000010498E+02 0.  0.
        -12    1    1    2    0    0 -0.29128838866E+02  0.12863650317E+02  0.16605556847E+01  0.31886050216E+02  0.00000000000E+00 0.  1.
         11    1    3    3    0    0  0.87213293036E+01 -0.14772989581E+02  0.67090788428E+01  0.18420492533E+02  0.51100000000E-03 0.  1.
        -11    1    3    3    0    0  0.28333271017E+02  0.78104783764E+01 -0.96127759830E+01  0.30922213397E+02  0.51100000000E-03 0. -1.
         12    1    3    3    0    0 -0.79257614548E+01 -0.59011391124E+01  0.12431414555E+01  0.99592438539E+01  0.00000000000E+00 0. -1.
</event>
<event>
 7    1  0.6841384E-013  0.5930194E+02  0.7816164E-02  0.1266605E+00
        -11   -1    0    0    0    0  0.00000000000E+00  0.00000000000E+00  0.45593999997E+02  0.45594000000E+02  0.51100000000E-03 0.  1.
         11   -1    0    0    0    0 -0.00000000000E+00 -0.00000000000E+00 -0.45593999997E+02  0.45594000000E+02  0.51100000000E-03 0. -1.
    9900012    2    1    2    0    0 -0.19231025881E+02 -0.35732886535E+00 -0.25431488144E+02  0.59301943023E+02  0.49999998167E+02 0.  0.
        -12    1    1    2    0    0  0.19231025881E+02  0.35732886535E+00  0.25431488144E+02  0.31886056977E+02  0.00000000000E+00 0.  1.
         11    1    3    3    0    0 -0.15565468999E+02 -0.22596979804E+02 -0.12414688004E+02  0.30116968638E+02  0.51100000000E-03 0. -1.
        -11    1    3    3    0    0 -0.41452801320E+01  0.63536907637E+00 -0.52985344431E+00  0.42270304198E+01  0.51100000000E-03 0.  1.
         12    1    3    3    0    0  0.47972324934E+00  0.21604281863E+02 -0.12486946696E+02  0.24957943965E+02  0.00000000000E+00 0. -1.
</event>
<event>
 7    1  0.6841384E-013  0.5930196E+02  0.7816164E-02  0.1266605E+00
        -11   -1    0    0    0    0  0.00000000000E+00  0.00000000000E+00  0.45593999997E+02  0.45594000000E+02  0.51100000000E-03 0.  1.
         11   -1    0    0    0    0 -0.00000000000E+00 -0.00000000000E+00 -0.45593999997E+02  0.45594000000E+02  0.51100000000E-03 0. -1.
    9900012    2    1    2    0    0 -0.12076138587E+02  0.46276317596E+01 -0.29145697214E+02  0.59301956580E+02  0.50000022893E+02 0.  0.
        -12    1    1    2    0    0  0.12076138587E+02 -0.46276317596E+01  0.29145697214E+02  0.31886043420E+02  0.00000000000E+00 0.  1.
         11    1    3    3    0    0  0.44549288605E+01  0.12460903992E+02  0.15055507472E+01  0.13318678717E+02  0.51100000000E-03 0. -1.
        -11    1    3    3    0    0 -0.30693945108E+01 -0.33747142260E+01  0.55026919338E+01  0.71476917638E+01  0.51100000000E-03 0.  1.
        -12    1    3    3    0    0 -0.13461672936E+02 -0.44585580063E+01 -0.36153939895E+02  0.38835586100E+02  0.00000000000E+00 0.  1.
</event>
<event>
 7    1  0.6841384E-013  0.5930193E+02  0.7816164E-02  0.1266605E+00
        -11   -1    0    0    0    0  0.00000000000E+00  0.00000000000E+00  0.45593999997E+02  0.45594000000E+02  0.51100000000E-03 0.  1.
         11   -1    0    0    0    0 -0.00000000000E+00 -0.00000000000E+00 -0.45593999997E+02  0.45594000000E+02  0.51100000000E-03 0. -1.
    9900012    2    1    2    0    0  0.20545662819E+02 -0.86918852478E+01 -0.22782630541E+02  0.59301931190E+02  0.49999976586E+02 0.  0.
        -12    1    1    2    0    0 -0.20545662819E+02  0.86918852478E+01  0.22782630541E+02  0.31886068810E+02  0.00000000000E+00 0.  1.
         11    1    3    3    0    0  0.86349322536E+01  0.13359331476E+02 -0.10682271478E+02  0.19161020763E+02  0.51100000000E-03 0. -1.
        -11    1    3    3    0    0  0.18044408884E+02 -0.16815967422E+02  0.10804193314E+01  0.24688960256E+02  0.51100000000E-03 0.  1.
         12    1    3    3    0    0 -0.61336783193E+01 -0.52352493013E+01 -0.13180778394E+02  0.15451950170E+02  0.00000000000E+00 0. -1.
</event>
<event>
 7    1  0.6841384E-013  0.5930194E+02  0.7816164E-02  0.1266605E+00
        -11   -1    0    0    0    0  0.00000000000E+00  0.00000000000E+00  0.45593999997E+02  0.45594000000E+02  0.51100000000E-03 0. -1.
         11   -1    0    0    0    0 -0.00000000000E+00 -0.00000000000E+00 -0.45593999997E+02  0.45594000000E+02  0.51100000000E-03 0.  1.
    9900012    2    1    2    0    0  0.30859858167E+02  0.66889704816E+01 -0.44326008253E+01  0.59301935297E+02  0.49999984077E+02 0.  0.
        -12    1    1    2    0    0 -0.30859858167E+02 -0.66889704816E+01  0.44326008253E+01  0.31886064703E+02  0.00000000000E+00 0.  1.
         11    1    3    3    0    0  0.12859574825E+01  0.30724048128E+01  0.64071794543E+01  0.72211707362E+01  0.51100000000E-03 0. -1.
        -11    1    3    3    0    0 -0.35205446941E+01 -0.35175866238E+01  0.10806525860E+02  0.11897422075E+02  0.51100000000E-03 0.  1.
        -12    1    3    3    0    0  0.33094445378E+02  0.71341522926E+01 -0.21646306140E+02  0.40183342486E+02  0.00000000000E+00 0.  1.
</event>
<event>
 7    1  0.6841384E-013  0.5930202E+02  0.7816164E-02  0.1266604E+00
        -11   -1    0    0    0    0  0.00000000000E+00  0.00000000000E+00  0.45593999997E+02  0.45594000000E+02  0.51100000000E-03 0.  1.
         11   -1    0    0    0    0 -0.00000000000E+00 -0.00000000000E+00 -0.45593999997E+02  0.45594000000E+02  0.51100000000E-03 0. -1.
    9900012    2    1    2    0    0  0.67283269728E+01  0.67676003008E+01 -0.30424412995E+02  0.59302020263E+02  0.50000139035E+02 0.  0.
        -12    1    1    2    0    0 -0.67283269728E+01 -0.67676003008E+01  0.30424412995E+02  0.31885979737E+02  0.00000000000E+00 0.  1.
         11    1    3    3    0    0  0.10725820845E+02  0.18613224560E+02 -0.13932135912E+02  0.25604682631E+02  0.51100000000E-03 0. -1.
        -11    1    3    3    0    0 -0.19042313850E+01  0.85869663496E+01 -0.58615307183E+01  0.10569750748E+02  0.51100000000E-03 0.  1.
         12    1    3    3    0    0 -0.20932624873E+01 -0.20432590608E+02 -0.10630746365E+02  0.23127586884E+02  0.00000000000E+00 0. -1.
</event>
<event>
 7    1  0.6841384E-013  0.5930194E+02  0.7816164E-02  0.1266605E+00
        -11   -1    0    0    0    0  0.00000000000E+00  0.00000000000E+00  0.45593999997E+02  0.45594000000E+02  0.51100000000E-03 0. -1.
         11   -1    0    0    0    0 -0.00000000000E+00 -0.00000000000E+00 -0.45593999997E+02  0.45594000000E+02  0.51100000000E-03 0.  1.
    9900012    2    1    2    0    0 -0.18021650247E+02  0.11596317859E+02  0.23610724821E+02  0.59301940474E+02  0.49999993519E+02 0.  0.
        -12    1    1    2    0    0  0.18021650247E+02 -0.11596317859E+02 -0.23610724821E+02  0.31886059526E+02  0.00000000000E+00 0.  1.
         11    1    3    3    0    0 -0.17938905736E+02  0.24069611723E+02  0.19660485885E+02  0.35884331581E+02  0.51100000000E-03 0. -1.
        -11    1    3    3    0    0 -0.55051500673E+01  0.24963791127E+01  0.44214114675E+01  0.74891565323E+01  0.51100000000E-03 0.  1.
        -12    1    3    3    0    0  0.54224055565E+01 -0.14969672977E+02 -0.47117253184E+00  0.15928452361E+02  0.00000000000E+00 0.  1.
</event>
<event>
 7    1  0.6841384E-013  0.5930196E+02  0.7816164E-02  0.1266605E+00
        -11   -1    0    0    0    0  0.00000000000E+00  0.00000000000E+00  0.45593999997E+02  0.45594000000E+02  0.51100000000E-03 0.  1.
         11   -1    0    0    0    0 -0.00000000000E+00 -0.00000000000E+00 -0.45593999997E+02  0.45594000000E+02  0.51100000000E-03 0. -1.
    9900012    2    1    2    0    0 -0.41843046316E+01  0.30476813156E+02 -0.83889832535E+01  0.59301959395E+02  0.50000028027E+02 0.  0.
        -12    1    1    2    0    0  0.41843046316E+01 -0.30476813156E+02  0.83889832535E+01  0.31886040605E+02  0.00000000000E+00 0.  1.
         11    1    3    3    0    0 -0.98442477129E+01  0.11746490015E+02  0.26751529630E+01  0.15557817467E+02  0.51100000000E-03 0.  1.
        -11    1    3    3    0    0 -0.61241440403E+01  0.25852641691E+02 -0.81756411308E+00  0.26580681593E+02  0.51100000000E-03 0. -1.
         12    1    3    3    0    0  0.11784087122E+02 -0.71223185491E+01 -0.10246572103E+02  0.17163460335E+02  0.00000000000E+00 0. -1.
</event>
<event>
 7    1  0.6841384E-013  0.5930195E+02  0.7816164E-02  0.1266605E+00
        -11   -1    0    0    0    0  0.00000000000E+00  0.00000000000E+00  0.45593999997E+02  0.45594000000E+02  0.51100000000E-03 0.  1.
         11   -1    0    0    0    0 -0.00000000000E+00 -0.00000000000E+00 -0.45593999997E+02  0.45594000000E+02  0.51100000000E-03 0. -1.
    9900012    2    1    2    0    0  0.45220925063E+01  0.84427015205E+01 -0.30413675855E+02  0.59301949624E+02  0.50000010206E+02 0.  0.
        -12    1    1    2    0    0 -0.45220925063E+01 -0.84427015205E+01  0.30413675855E+02  0.31886050376E+02  0.00000000000E+00 0.  1.
         11    1    3    3    0    0  0.28870788505E+01  0.44600314008E+01  0.23944183881E+01  0.58275504342E+01  0.51100000000E-03 0. -1.
        -11    1    3    3    0    0 -0.13615469054E+02 -0.12200701596E+02 -0.74352426594E+01  0.19736285128E+02  0.51100000000E-03 0.  1.
         12    1    3    3    0    0  0.15250482710E+02  0.16183371716E+02 -0.25372851583E+02  0.33738114062E+02  0.00000000000E+00 0. -1.
</event>
<event>
 7    1  0.6841384E-013  0.5930198E+02  0.7816164E-02  0.1266605E+00
        -11   -1    0    0    0    0  0.00000000000E+00  0.00000000000E+00  0.45593999997E+02  0.45594000000E+02  0.51100000000E-03 0.  1.
         11   -1    0    0    0    0 -0.00000000000E+00 -0.00000000000E+00 -0.45593999997E+02  0.45594000000E+02  0.51100000000E-03 0. -1.
    9900012    2    1    2    0    0 -0.16931297109E+02  0.17796627208E+02 -0.20330500390E+02  0.59301984132E+02  0.50000073141E+02 0.  0.
        -12    1    1    2    0    0  0.16931297109E+02 -0.17796627208E+02  0.20330500390E+02  0.31886015868E+02  0.00000000000E+00 0.  1.
         11    1    3    3    0    0 -0.21229556021E+01 -0.45308399379E+01 -0.18503162938E+02  0.19167746085E+02  0.51100000000E-03 0.  1.
        -11    1    3    3    0    0  0.73128121681E+01  0.14301523852E+02  0.23515667327E+01  0.16233935834E+02  0.51100000000E-03 0. -1.
         12    1    3    3    0    0 -0.22121153675E+02  0.80259432943E+01 -0.41789041852E+01  0.23900302213E+02  0.00000000000E+00 0. -1.
</event>
<event>
 7    1  0.6841384E-013  0.5930194E+02  0.7816164E-02  0.1266605E+00
        -11   -1    0    0    0    0  0.00000000000E+00  0.00000000000E+00  0.45593999997E+02  0.45594000000E+02  0.51100000000E-03 0. -1.
         11   -1    0    0    0    0 -0.00000000000E+00 -0.00000000000E+00 -0.45593999997E+02  0.45594000000E+02  0.51100000000E-03 0.  1.
    9900012    2    1    2    0    0 -0.23922903814E+02  0.84332199267E+01  0.19320871922E+02  0.59301943219E+02  0.49999998525E+02 0.  0.
        -12    1    1    2    0    0  0.23922903814E+02 -0.84332199267E+01 -0.19320871922E+02  0.31886056781E+02  0.00000000000E+00 0.  1.
         11    1    3    3    0    0 -0.91883272039E+01 -0.12665485817E+01 -0.10523086508E+02  0.14027289547E+02  0.51100000000E-03 0. -1.
        -11    1    3    3    0    0 -0.19927669954E+01  0.55806510533E+01 -0.51217314059E+01  0.78324274227E+01  0.51100000000E-03 0.  1.
         12    1    3    3    0    0 -0.12741809615E+02  0.41191174551E+01  0.34965689835E+02  0.37442226250E+02  0.00000000000E+00 0. -1.
</event>
<event>
 7    1  0.6841384E-013  0.5930194E+02  0.7816164E-02  0.1266605E+00
        -11   -1    0    0    0    0  0.00000000000E+00  0.00000000000E+00  0.45593999997E+02  0.45594000000E+02  0.51100000000E-03 0.  1.
         11   -1    0    0    0    0 -0.00000000000E+00 -0.00000000000E+00 -0.45593999997E+02  0.45594000000E+02  0.51100000000E-03 0. -1.
    9900012    2    1    2    0    0  0.33274231662E+00  0.19380176156E+02 -0.25318347729E+02  0.59301942279E+02  0.49999996810E+02 0.  0.
        -12    1    1    2    0    0 -0.33274231662E+00 -0.19380176156E+02  0.25318347729E+02  0.31886057721E+02  0.00000000000E+00 0.  1.
         11    1    3    3    0    0 -0.84584745841E+00 -0.14107201077E+01  0.81031667820E+01  0.82684279826E+01  0.51100000000E-03 0. -1.
        -11    1    3    3    0    0 -0.11044054025E+01  0.71752230072E+01  0.59025110635E+01  0.93564509090E+01  0.51100000000E-03 0.  1.
         12    1    3    3    0    0  0.22829951775E+01  0.13615673256E+02 -0.39324025574E+02  0.41677063387E+02  0.00000000000E+00 0. -1.
</event>
<event>
 7    1  0.6841384E-013  0.5930197E+02  0.7816164E-02  0.1266605E+00
        -11   -1    0    0    0    0  0.00000000000E+00  0.00000000000E+00  0.45593999997E+02  0.45594000000E+02  0.51100000000E-03 0. -1.
         11   -1    0    0    0    0 -0.00000000000E+00 -0.00000000000E+00 -0.45593999997E+02  0.45594000000E+02  0.51100000000E-03 0.  1.
    9900012    2    1    2    0    0  0.30067817080E+02  0.71725794836E+01  0.78230132589E+01  0.59301967684E+02  0.50000043144E+02 0.  0.
        -12    1    1    2    0    0 -0.30067817080E+02 -0.71725794836E+01 -0.78230132589E+01  0.31886032316E+02  0.00000000000E+00 0.  1.
         11    1    3    3    0    0 -0.22055723081E+01  0.52375728462E+01 -0.86885497018E+01  0.10382081425E+02  0.51100000000E-03 0. -1.
        -11    1    3    3    0    0 -0.17819956713E+01  0.10163964692E+01 -0.71517622539E+01  0.74401796989E+01  0.51100000000E-03 0.  1.
        -12    1    3    3    0    0  0.34055385059E+02  0.91861016823E+00  0.23663325215E+02  0.41479706561E+02  0.00000000000E+00 0.  1.
</event>
<event>
 7    1  0.6841384E-013  0.5930189E+02  0.7816164E-02  0.1266605E+00
        -11   -1    0    0    0    0  0.00000000000E+00  0.00000000000E+00  0.45593999997E+02  0.45594000000E+02  0.51100000000E-03 0.  1.
         11   -1    0    0    0    0 -0.00000000000E+00 -0.00000000000E+00 -0.45593999997E+02  0.45594000000E+02  0.51100000000E-03 0. -1.
    9900012    2    1    2    0    0  0.15865279589E+02 -0.24251723422E+02  0.13299273890E+02  0.59301892188E+02  0.49999905457E+02 0.  0.
        -12    1    1    2    0    0 -0.15865279589E+02  0.24251723422E+02 -0.13299273890E+02  0.31886107812E+02  0.00000000000E+00 0.  1.
         11    1    3    3    0    0  0.54076794488E+01 -0.97315315616E+01  0.17174337623E+02  0.20467134060E+02  0.51100000000E-03 0. -1.
        -11    1    3    3    0    0  0.63624845245E+01 -0.35732561757E+01  0.14973242127E+02  0.16656750856E+02  0.51100000000E-03 0.  1.
         12    1    3    3    0    0  0.40951156154E+01 -0.10946935685E+02 -0.18848305860E+02  0.22178007273E+02  0.00000000000E+00 0. -1.
</event>
<event>
 7    1  0.6841384E-013  0.5930194E+02  0.7816164E-02  0.1266605E+00
        -11   -1    0    0    0    0  0.00000000000E+00  0.00000000000E+00  0.45593999997E+02  0.45594000000E+02  0.51100000000E-03 0. -1.
         11   -1    0    0    0    0 -0.00000000000E+00 -0.00000000000E+00 -0.45593999997E+02  0.45594000000E+02  0.51100000000E-03 0.  1.
    9900012    2    1    2    0    0 -0.25584260277E+02  0.55263939940E+01  0.18210585659E+02  0.59301939808E+02  0.49999992304E+02 0.  0.
        -12    1    1    2    0    0  0.25584260277E+02 -0.55263939940E+01 -0.18210585659E+02  0.31886060192E+02  0.00000000000E+00 0.  1.
         11    1    3    3    0    0 -0.12154784026E+01 -0.68080443329E+01  0.86172689114E+01  0.11049170971E+02  0.51100000000E-03 0. -1.
        -11    1    3    3    0    0  0.62366127188E+01  0.50427365965E+01 -0.87211963820E+01  0.11848366857E+02  0.51100000000E-03 0.  1.
         12    1    3    3    0    0 -0.30605394594E+02  0.72917017304E+01  0.18314513130E+02  0.36404401980E+02  0.00000000000E+00 0. -1.
</event>
<event>
 7    1  0.6841384E-013  0.5930196E+02  0.7816164E-02  0.1266605E+00
        -11   -1    0    0    0    0  0.00000000000E+00  0.00000000000E+00  0.45593999997E+02  0.45594000000E+02  0.51100000000E-03 0.  1.
         11   -1    0    0    0    0 -0.00000000000E+00 -0.00000000000E+00 -0.45593999997E+02  0.45594000000E+02  0.51100000000E-03 0. -1.
    9900012    2    1    2    0    0  0.18212340881E+02  0.16027836387E+02 -0.20691509033E+02  0.59301961587E+02  0.50000032024E+02 0.  0.
        -12    1    1    2    0    0 -0.18212340881E+02 -0.16027836387E+02  0.20691509033E+02  0.31886038413E+02  0.00000000000E+00 0.  1.
         11    1    3    3    0    0 -0.51098155145E+01  0.10910530607E+02 -0.16692619495E+02  0.20586243916E+02  0.51100000000E-03 0. -1.
        -11    1    3    3    0    0 -0.65785579106E+01 -0.32085961598E+01  0.57671526391E+00  0.73420102327E+01  0.51100000000E-03 0.  1.
        -12    1    3    3    0    0  0.29900714306E+02  0.83259019402E+01 -0.45756048016E+01  0.31373707438E+02  0.00000000000E+00 0.  1.
</event>
<event>
 7    1  0.6841384E-013  0.5930189E+02  0.7816164E-02  0.1266605E+00
        -11   -1    0    0    0    0  0.00000000000E+00  0.00000000000E+00  0.45593999997E+02  0.45594000000E+02  0.51100000000E-03 0.  1.
         11   -1    0    0    0    0 -0.00000000000E+00 -0.00000000000E+00 -0.45593999997E+02  0.45594000000E+02  0.51100000000E-03 0. -1.
    9900012    2    1    2    0    0 -0.96945618818E+00 -0.44468802260E+01 -0.31559615897E+02  0.59301891040E+02  0.49999903363E+02 0.  0.
        -12    1    1    2    0    0  0.96945618818E+00  0.44468802260E+01  0.31559615897E+02  0.31886108960E+02  0.00000000000E+00 0.  1.
         11    1    3    3    0    0  0.19850358066E+02 -0.78669662152E+01 -0.16545448795E+02  0.27012547989E+02  0.51100000000E-03 0.  1.
        -11    1    3    3    0    0 -0.76526026628E+01 -0.71191884988E+01 -0.12627097561E+01  0.10528039161E+02  0.51100000000E-03 0. -1.
        -12    1    3    3    0    0 -0.13167211592E+02  0.10539274488E+02 -0.13751457346E+02  0.21761303889E+02  0.00000000000E+00 0.  1.
</event>
<event>
 7    1  0.6841384E-013  0.5930201E+02  0.7816164E-02  0.1266605E+00
        -11   -1    0    0    0    0  0.00000000000E+00  0.00000000000E+00  0.45593999997E+02  0.45594000000E+02  0.51100000000E-03 0. -1.
         11   -1    0    0    0    0 -0.00000000000E+00 -0.00000000000E+00 -0.45593999997E+02  0.45594000000E+02  0.51100000000E-03 0.  1.
    9900012    2    1    2    0    0  0.15545895982E+02 -0.11000658540E+02  0.25573949797E+02  0.59302011252E+02  0.50000122601E+02 0.  0.
        -12    1    1    2    0    0 -0.15545895982E+02  0.11000658540E+02 -0.25573949797E+02  0.31885988748E+02  0.00000000000E+00 0.  1.
         11    1    3    3    0    0  0.98217392033E+01 -0.91514856570E+00  0.59528440082E+01  0.11521302440E+02  0.51100000000E-03 0. -1.
        -11    1    3    3    0    0  0.20296711466E+02  0.59739347795E+01  0.14027448405E+02  0.25385304846E+02  0.51100000000E-03 0.  1.
         12    1    3    3    0    0 -0.14572554687E+02 -0.16059444753E+02  0.55936573834E+01  0.22395403966E+02  0.00000000000E+00 0. -1.
</event>
<event>
 7    1  0.6841384E-013  0.5930195E+02  0.7816164E-02  0.1266605E+00
        -11   -1    0    0    0    0  0.00000000000E+00  0.00000000000E+00  0.45593999997E+02  0.45594000000E+02  0.51100000000E-03 0. -1.
         11   -1    0    0    0    0 -0.00000000000E+00 -0.00000000000E+00 -0.45593999997E+02  0.45594000000E+02  0.51100000000E-03 0.  1.
    9900012    2    1    2    0    0 -0.22618679047E+00 -0.78464936997E+01  0.30904719481E+02  0.59301948033E+02  0.50000007305E+02 0.  0.
        -12    1    1    2    0    0  0.22618679047E+00  0.78464936997E+01 -0.30904719481E+02  0.31886051967E+02  0.00000000000E+00 0.  1.
         11    1    3    3    0    0 -0.11745278474E+02 -0.23449578404E+01  0.64177156865E+01  0.13588137054E+02  0.51100000000E-03 0. -1.
        -11    1    3    3    0    0 -0.77568325500E+01  0.29111487939E+01 -0.48625142766E+01  0.96066270803E+01  0.51100000000E-03 0.  1.
         12    1    3    3    0    0  0.19275924234E+02 -0.84126846532E+01  0.29349518071E+02  0.36107183899E+02  0.00000000000E+00 0. -1.
</event>
<event>
 7    1  0.6841384E-013  0.5930190E+02  0.7816164E-02  0.1266605E+00
        -11   -1    0    0    0    0  0.00000000000E+00  0.00000000000E+00  0.45593999997E+02  0.45594000000E+02  0.51100000000E-03 0.  1.
         11   -1    0    0    0    0 -0.00000000000E+00 -0.00000000000E+00 -0.45593999997E+02  0.45594000000E+02  0.51100000000E-03 0. -1.
    9900012    2    1    2    0    0 -0.75091316610E+01 -0.29620636725E+02  0.91079342587E+01  0.59301895742E+02  0.49999911938E+02 0.  0.
        -12    1    1    2    0    0  0.75091316610E+01  0.29620636725E+02 -0.91079342587E+01  0.31886104258E+02  0.00000000000E+00 0.  1.
         11    1    3    3    0    0  0.12242753226E+02 -0.57465029454E+01 -0.11470658688E+00  0.13524809075E+02  0.51100000000E-03 0. -1.
        -11    1    3    3    0    0  0.26524041565E+01 -0.74876431117E+01  0.15411453669E+02  0.17338193437E+02  0.51100000000E-03 0.  1.
        -12    1    3    3    0    0 -0.22404289044E+02 -0.16386490668E+02 -0.61888128239E+01  0.28438893230E+02  0.00000000000E+00 0.  1.
</event>
<event>
 7    1  0.6841384E-013  0.5930183E+02  0.7816164E-02  0.1266605E+00
        -11   -1    0    0    0    0  0.00000000000E+00  0.00000000000E+00  0.45593999997E+02  0.45594000000E+02  0.51100000000E-03 0.  1.
         11   -1    0    0    0    0 -0.00000000000E+00 -0.00000000000E+00 -0.45593999997E+02  0.45594000000E+02  0.51100000000E-03 0. -1.
    9900012    2    1    2    0    0 -0.18539681205E+02 -0.22141921986E+02  0.13518270834E+02  0.59301825335E+02  0.49999783532E+02 0.  0.
        -12    1    1    2    0    0  0.18539681205E+02  0.22141921986E+02 -0.13518270834E+02  0.31886174665E+02  0.00000000000E+00 0.  1.
         11    1    3    3    0    0 -0.19993757303E+02 -0.25089826639E+02  0.81270120547E+01  0.33095287536E+02  0.51100000000E-03 0. -1.
        -11    1    3    3    0    0  0.43600134591E+01 -0.10726606337E+02  0.13687854777E+01  0.11659475752E+02  0.51100000000E-03 0.  1.
        -12    1    3    3    0    0 -0.29059373617E+01  0.13674510989E+02  0.40224733011E+01  0.14547062047E+02  0.00000000000E+00 0.  1.
</event>
<event>
 7    1  0.6841384E-013  0.5930190E+02  0.7816164E-02  0.1266605E+00
        -11   -1    0    0    0    0  0.00000000000E+00  0.00000000000E+00  0.45593999997E+02  0.45594000000E+02  0.51100000000E-03 0.  1.
         11   -1    0    0    0    0 -0.00000000000E+00 -0.00000000000E+00 -0.45593999997E+02  0.45594000000E+02  0.51100000000E-03 0. -1.
    9900012    2    1    2    0    0  0.11214068746E+02  0.21217984022E+01 -0.29773574062E+02  0.59301904618E+02  0.49999928125E+02 0.  0.
        -12    1    1    2    0    0 -0.11214068746E+02 -0.21217984022E+01  0.29773574062E+02  0.31886095382E+02  0.00000000000E+00 0.  1.
         11    1    3    3    0    0 -0.16166730513E+01 -0.87289335503E+01 -0.22766917760E+02  0.24436457543E+02  0.51100000000E-03 0. -1.
        -11    1    3    3    0    0 -0.27161693598E+01 -0.79661217464E+01 -0.61820429234E+01  0.10442907959E+02  0.51100000000E-03 0.  1.
        -12    1    3    3    0    0  0.15546911157E+02  0.18816853699E+02 -0.82461337887E+00  0.24422539116E+02  0.00000000000E+00 0.  1.
</event>
<event>
 7    1  0.6841384E-013  0.5930186E+02  0.7816164E-02  0.1266605E+00
        -11   -1    0    0    0    0  0.00000000000E+00  0.00000000000E+00  0.45593999997E+02  0.45594000000E+02  0.51100000000E-03 0.  1.
         11   -1    0    0    0    0 -0.00000000000E+00 -0.00000000000E+00 -0.45593999997E+02  0.45594000000E+02  0.51100000000E-03 0. -1.
    9900012    2    1    2    0    0  0.80039878495E+01 -0.19129673407E+02 -0.24222252542E+02  0.59301862818E+02  0.49999851893E+02 0.  0.
        -12    1    1    2    0    0 -0.80039878495E+01  0.19129673407E+02  0.24222252542E+02  0.31886137182E+02  0.00000000000E+00 0.  1.
         11    1    3    3    0    0  0.23518764929E+02 -0.81233340748E+00 -0.50096318158E+01  0.24060103918E+02  0.51100000000E-03 0. -1.
        -11    1    3    3    0    0 -0.43922849752E+01 -0.52725101546E+00  0.24727932435E+01  0.50680240353E+01  0.51100000000E-03 0.  1.
        -12    1    3    3    0    0 -0.11122492104E+02 -0.17790088984E+02 -0.21685413970E+02  0.30173734865E+02  0.00000000000E+00 0.  1.
</event>
<event>
 7    1  0.6841384E-013  0.5930195E+02  0.7816164E-02  0.1266605E+00
        -11   -1    0    0    0    0  0.00000000000E+00  0.00000000000E+00  0.45593999997E+02  0.45594000000E+02  0.51100000000E-03 0. -1.
         11   -1    0    0    0    0 -0.00000000000E+00 -0.00000000000E+00 -0.45593999997E+02  0.45594000000E+02  0.51100000000E-03 0.  1.
    9900012    2    1    2    0    0 -0.63678838259E+01  0.20377561808E+02  0.23683865618E+02  0.59301945677E+02  0.50000003008E+02 0.  0.
        -12    1    1    2    0    0  0.63678838259E+01 -0.20377561808E+02 -0.23683865618E+02  0.31886054323E+02  0.00000000000E+00 0.  1.
         11    1    3    3    0    0  0.86520246088E+00  0.13199622699E+01  0.19299171450E+02  0.19363597151E+02  0.51100000000E-03 0. -1.
        -11    1    3    3    0    0  0.12892677052E+02  0.16186263177E+01  0.30454171289E+00  0.12997454314E+02  0.51100000000E-03 0.  1.
         12    1    3    3    0    0 -0.20125763338E+02  0.17438973220E+02  0.40801524552E+01  0.26940894213E+02  0.00000000000E+00 0. -1.
</event>
<event>
 7    1  0.6841384E-013  0.5930193E+02  0.7816164E-02  0.1266605E+00
        -11   -1    0    0    0    0  0.00000000000E+00  0.00000000000E+00  0.45593999997E+02  0.45594000000E+02  0.51100000000E-03 0.  1.
         11   -1    0    0    0    0 -0.00000000000E+00 -0.00000000000E+00 -0.45593999997E+02  0.45594000000E+02  0.51100000000E-03 0. -1.
    9900012    2    1    2    0    0  0.50591669994E+01 -0.25174249666E+02  0.18904585685E+02  0.59301931304E+02  0.49999976795E+02 0.  0.
        -12    1    1    2    0    0 -0.50591669994E+01  0.25174249666E+02 -0.18904585685E+02  0.31886068696E+02  0.00000000000E+00 0.  1.
         11    1    3    3    0    0 -0.96538055218E+01 -0.79318679754E+01  0.55735555028E-01  0.12494542703E+02  0.51100000000E-03 0. -1.
        -11    1    3    3    0    0  0.26752357654E+01  0.64660252221E+01 -0.68760659300E+01  0.98105377787E+01  0.51100000000E-03 0.  1.
        -12    1    3    3    0    0  0.12037736756E+02 -0.23708406912E+02  0.25724916060E+02  0.36996850823E+02  0.00000000000E+00 0.  1.
</event>
<event>
 7    1  0.6841384E-013  0.5930195E+02  0.7816164E-02  0.1266605E+00
        -11   -1    0    0    0    0  0.00000000000E+00  0.00000000000E+00  0.45593999997E+02  0.45594000000E+02  0.51100000000E-03 0.  1.
         11   -1    0    0    0    0 -0.00000000000E+00 -0.00000000000E+00 -0.45593999997E+02  0.45594000000E+02  0.51100000000E-03 0. -1.
    9900012    2    1    2    0    0 -0.23343301350E+02 -0.40405091246E+01 -0.21342088077E+02  0.59301950458E+02  0.50000011727E+02 0.  0.
        -12    1    1    2    0    0  0.23343301350E+02  0.40405091246E+01  0.21342088077E+02  0.31886049542E+02  0.00000000000E+00 0.  1.
         11    1    3    3    0    0  0.54794773700E+01 -0.55073132226E+01 -0.53893774581E+01  0.94551869800E+01  0.51100000000E-03 0. -1.
        -11    1    3    3    0    0  0.67555863760E+01  0.14963053342E+01 -0.12259301486E+02  0.14077192551E+02  0.51100000000E-03 0.  1.
        -12    1    3    3    0    0 -0.35578365096E+02 -0.29501236232E-01 -0.36934091327E+01  0.35769570926E+02  0.00000000000E+00 0.  1.
</event>
<event>
 7    1  0.6841384E-013  0.5930196E+02  0.7816164E-02  0.1266605E+00
        -11   -1    0    0    0    0  0.00000000000E+00  0.00000000000E+00  0.45593999997E+02  0.45594000000E+02  0.51100000000E-03 0.  1.
         11   -1    0    0    0    0 -0.00000000000E+00 -0.00000000000E+00 -0.45593999997E+02  0.45594000000E+02  0.51100000000E-03 0. -1.
    9900012    2    1    2    0    0 -0.32022934115E+01  0.27927816454E+02 -0.15049987905E+02  0.59301956801E+02  0.50000023295E+02 0.  0.
        -12    1    1    2    0    0  0.32022934115E+01 -0.27927816454E+02  0.15049987905E+02  0.31886043199E+02  0.00000000000E+00 0.  1.
         11    1    3    3    0    0  0.11787690525E+02  0.50829237905E-01 -0.18835587384E+01  0.11937337446E+02  0.51100000000E-03 0. -1.
        -11    1    3    3    0    0 -0.56209433251E+01  0.15281229032E+02  0.10200973885E+02  0.19213818805E+02  0.51100000000E-03 0.  1.
         12    1    3    3    0    0 -0.93690406113E+01  0.12595758184E+02 -0.23367403051E+02  0.28150800549E+02  0.00000000000E+00 0. -1.
</event>
<event>
 7    1  0.6841384E-013  0.5930194E+02  0.7816164E-02  0.1266605E+00
        -11   -1    0    0    0    0  0.00000000000E+00  0.00000000000E+00  0.45593999997E+02  0.45594000000E+02  0.51100000000E-03 0. -1.
         11   -1    0    0    0    0 -0.00000000000E+00 -0.00000000000E+00 -0.45593999997E+02  0.45594000000E+02  0.51100000000E-03 0.  1.
    9900012    2    1    2    0    0 -0.30240346813E+02  0.93132529213E+01 -0.39376877510E+01  0.59301942857E+02  0.49999997864E+02 0.  0.
        -12    1    1    2    0    0  0.30240346813E+02 -0.93132529213E+01  0.39376877510E+01  0.31886057143E+02  0.00000000000E+00 0.  1.
         11    1    3    3    0    0 -0.52813258649E+01 -0.55311880641E+01  0.15177850333E+01  0.77968016494E+01  0.51100000000E-03 0. -1.
        -11    1    3    3    0    0  0.11198191967E+02 -0.52618609135E+00 -0.48423913227E+01  0.12211680029E+02  0.51100000000E-03 0.  1.
         12    1    3    3    0    0 -0.36157212915E+02  0.15370627077E+02 -0.61308146161E+00  0.39293461179E+02  0.00000000000E+00 0. -1.
</event>
<event>
 7    1  0.6841384E-013  0.5930195E+02  0.7816164E-02  0.1266605E+00
        -11   -1    0    0    0    0  0.00000000000E+00  0.00000000000E+00  0.45593999997E+02  0.45594000000E+02  0.51100000000E-03 0. -1.
         11   -1    0    0    0    0 -0.00000000000E+00 -0.00000000000E+00 -0.45593999997E+02  0.45594000000E+02  0.51100000000E-03 0.  1.
    9900012    2    1    2    0    0 -0.12378898299E+01  0.58944333180E+01  0.31312030343E+02  0.59301953528E+02  0.50000017327E+02 0.  0.
        -12    1    1    2    0    0  0.12378898299E+01 -0.58944333180E+01 -0.31312030343E+02  0.31886046472E+02  0.00000000000E+00 0.  1.
         11    1    3    3    0    0  0.67754361226E+01  0.11503606870E+02  0.89329355541E+01  0.16063525253E+02  0.51100000000E-03 0.  1.
        -11    1    3    3    0    0 -0.10646519017E+02  0.12785431294E+02  0.40199439014E+01  0.17116529140E+02  0.51100000000E-03 0. -1.
        -12    1    3    3    0    0  0.26331930644E+01 -0.18394604846E+02  0.18359150888E+02  0.26121899136E+02  0.00000000000E+00 0.  1.
</event>
<event>
 7    1  0.6841384E-013  0.5930194E+02  0.7816164E-02  0.1266605E+00
        -11   -1    0    0    0    0  0.00000000000E+00  0.00000000000E+00  0.45593999997E+02  0.45594000000E+02  0.51100000000E-03 0.  1.
         11   -1    0    0    0    0 -0.00000000000E+00 -0.00000000000E+00 -0.45593999997E+02  0.45594000000E+02  0.51100000000E-03 0. -1.
    9900012    2    1    2    0    0  0.85803871853E+01 -0.17990333651E+02  0.24888665880E+02  0.59301939748E+02  0.49999992194E+02 0.  0.
        -12    1    1    2    0    0 -0.85803871853E+01  0.17990333651E+02 -0.24888665880E+02  0.31886060252E+02  0.00000000000E+00 0.  1.
         11    1    3    3    0    0  0.12416864388E+02 -0.10232337789E+01  0.22181109603E+01  0.12654862507E+02  0.51100000000E-03 0. -1.
        -11    1    3    3    0    0  0.36568919130E+01 -0.25341369738E+02  0.24291292457E+02  0.35293409699E+02  0.51100000000E-03 0.  1.
         12    1    3    3    0    0 -0.74933691153E+01  0.83742698662E+01 -0.16207375371E+01  0.11353667542E+02  0.00000000000E+00 0. -1.
</event>
<event>
 7    1  0.6841384E-013  0.5930208E+02  0.7816164E-02  0.1266604E+00
        -11   -1    0    0    0    0  0.00000000000E+00  0.00000000000E+00  0.45593999997E+02  0.45594000000E+02  0.51100000000E-03 0. -1.
         11   -1    0    0    0    0 -0.00000000000E+00 -0.00000000000E+00 -0.45593999997E+02  0.45594000000E+02  0.51100000000E-03 0.  1.
    9900012    2    1    2    0    0  0.16558703156E+02  0.11590886583E+02  0.24661154625E+02  0.59302080703E+02  0.50000249262E+02 0.  0.
        -12    1    1    2    0    0 -0.16558703156E+02 -0.11590886583E+02 -0.24661154625E+02  0.31885919297E+02  0.00000000000E+00 0.  1.
         11    1    3    3    0    0  0.58025934592E+01  0.17267530786E+01 -0.34183257386E+01  0.69524613026E+01  0.51100000000E-03 0. -1.
        -11    1    3    3    0    0  0.11650547563E+02 -0.15515758554E+01 -0.81834759427E+01  0.14321729118E+02  0.51100000000E-03 0.  1.
         12    1    3    3    0    0 -0.89443786642E+00  0.11415709359E+02  0.36262956306E+02  0.38027890283E+02  0.00000000000E+00 0. -1.
</event>
<event>
 7    1  0.6841384E-013  0.5930195E+02  0.7816164E-02  0.1266605E+00
        -11   -1    0    0    0    0  0.00000000000E+00  0.00000000000E+00  0.45593999997E+02  0.45594000000E+02  0.51100000000E-03 0. -1.
         11   -1    0    0    0    0 -0.00000000000E+00 -0.00000000000E+00 -0.45593999997E+02  0.45594000000E+02  0.51100000000E-03 0.  1.
    9900012    2    1    2    0    0  0.11152026989E+01  0.20166731585E+02  0.24673452505E+02  0.59301952919E+02  0.50000016216E+02 0.  0.
        -12    1    1    2    0    0 -0.11152026989E+01 -0.20166731585E+02 -0.24673452505E+02  0.31886047081E+02  0.00000000000E+00 0.  1.
         11    1    3    3    0    0  0.96351635351E+01  0.19813266409E+02  0.23358697690E+02  0.32109666149E+02  0.51100000000E-03 0. -1.
        -11    1    3    3    0    0  0.85949400708E+01 -0.17529787973E+01  0.41714317108E+01  0.97132266659E+01  0.51100000000E-03 0.  1.
        -12    1    3    3    0    0 -0.17114900907E+02  0.21064439732E+01 -0.28566768950E+01  0.17479060105E+02  0.00000000000E+00 0.  1.
</event>
<event>
 7    1  0.6841384E-013  0.5930201E+02  0.7816164E-02  0.1266605E+00
        -11   -1    0    0    0    0  0.00000000000E+00  0.00000000000E+00  0.45593999997E+02  0.45594000000E+02  0.51100000000E-03 0.  1.
         11   -1    0    0    0    0 -0.00000000000E+00 -0.00000000000E+00 -0.45593999997E+02  0.45594000000E+02  0.51100000000E-03 0. -1.
    9900012    2    1    2    0    0  0.30969160134E+02  0.23771563246E+01 -0.72094716022E+01  0.59302011974E+02  0.50000123918E+02 0.  0.
        -12    1    1    2    0    0 -0.30969160134E+02 -0.23771563246E+01  0.72094716022E+01  0.31885988026E+02  0.00000000000E+00 0.  1.
         11    1    3    3    0    0  0.30846638370E+02 -0.31110287076E+01 -0.14303169640E+02  0.34143436564E+02  0.51100000000E-03 0. -1.
        -11    1    3    3    0    0  0.97779016198E+01 -0.38874606464E+01  0.45401476455E+01  0.11460045867E+02  0.51100000000E-03 0.  1.
         12    1    3    3    0    0 -0.96553798559E+01  0.93756456786E+01  0.25535503927E+01  0.13698529544E+02  0.00000000000E+00 0. -1.
</event>
<event>
 7    1  0.6841384E-013  0.5930195E+02  0.7816164E-02  0.1266605E+00
        -11   -1    0    0    0    0  0.00000000000E+00  0.00000000000E+00  0.45593999997E+02  0.45594000000E+02  0.51100000000E-03 0. -1.
         11   -1    0    0    0    0 -0.00000000000E+00 -0.00000000000E+00 -0.45593999997E+02  0.45594000000E+02  0.51100000000E-03 0.  1.
    9900012    2    1    2    0    0  0.31753134524E+01 -0.78535368085E+00  0.31717826864E+02  0.59301953884E+02  0.50000017976E+02 0.  0.
        -12    1    1    2    0    0 -0.31753134524E+01  0.78535368085E+00 -0.31717826864E+02  0.31886046116E+02  0.00000000000E+00 0.  1.
         11    1    3    3    0    0  0.38557440831E+01  0.10449046207E+02  0.25905929853E+02  0.28198697326E+02  0.51100000000E-03 0. -1.
        -11    1    3    3    0    0  0.14317048126E+00 -0.18743192917E+02  0.11190549593E+02  0.21830166719E+02  0.51100000000E-03 0.  1.
        -12    1    3    3    0    0 -0.82360111190E+00  0.75087930300E+01 -0.53786525826E+01  0.92730898390E+01  0.00000000000E+00 0.  1.
</event>
<event>
 7    1  0.6841384E-013  0.5930196E+02  0.7816164E-02  0.1266605E+00
        -11   -1    0    0    0    0  0.00000000000E+00  0.00000000000E+00  0.45593999997E+02  0.45594000000E+02  0.51100000000E-03 0.  1.
         11   -1    0    0    0    0 -0.00000000000E+00 -0.00000000000E+00 -0.45593999997E+02  0.45594000000E+02  0.51100000000E-03 0. -1.
    9900012    2    1    2    0    0 -0.84443624479E+01 -0.18442684292E+02 -0.24602434439E+02  0.59301958518E+02  0.50000026427E+02 0.  0.
        -12    1    1    2    0    0  0.84443624479E+01  0.18442684292E+02  0.24602434439E+02  0.31886041482E+02  0.00000000000E+00 0.  1.
         11    1    3    3    0    0 -0.33550304995E+01 -0.13358361041E+02  0.66642851256E+01  0.15300808340E+02  0.51100000000E-03 0.  1.
        -11    1    3    3    0    0  0.10912906325E+01  0.50531556982E+01 -0.31701426083E+02  0.32120176115E+02  0.51100000000E-03 0. -1.
         12    1    3    3    0    0 -0.61806225810E+01 -0.10137478949E+02  0.43470651800E+00  0.11880974063E+02  0.00000000000E+00 0. -1.
</event>
<event>
 7    1  0.6841384E-013  0.5930196E+02  0.7816164E-02  0.1266605E+00
        -11   -1    0    0    0    0  0.00000000000E+00  0.00000000000E+00  0.45593999997E+02  0.45594000000E+02  0.51100000000E-03 0.  1.
         11   -1    0    0    0    0 -0.00000000000E+00 -0.00000000000E+00 -0.45593999997E+02  0.45594000000E+02  0.51100000000E-03 0. -1.
    9900012    2    1    2    0    0 -0.30651746078E+02  0.86274581470E+01 -0.16604455757E+01  0.59301958364E+02  0.50000026146E+02 0.  0.
        -12    1    1    2    0    0  0.30651746078E+02 -0.86274581470E+01  0.16604455757E+01  0.31886041636E+02  0.00000000000E+00 0.  1.
         11    1    3    3    0    0 -0.23292265205E+01  0.38933184504E+01  0.13343712898E+02  0.14093895803E+02  0.51100000000E-03 0. -1.
        -11    1    3    3    0    0 -0.97862057200E+01  0.65709671669E+01  0.89955252725E+01  0.14827909734E+02  0.51100000000E-03 0.  1.
        -12    1    3    3    0    0 -0.18536313837E+02 -0.18368274703E+01 -0.23999683746E+02  0.30380152826E+02  0.00000000000E+00 0.  1.
</event>
<event>
 7    1  0.6841384E-013  0.5930195E+02  0.7816164E-02  0.1266605E+00
        -11   -1    0    0    0    0  0.00000000000E+00  0.00000000000E+00  0.45593999997E+02  0.45594000000E+02  0.51100000000E-03 0. -1.
         11   -1    0    0    0    0 -0.00000000000E+00 -0.00000000000E+00 -0.45593999997E+02  0.45594000000E+02  0.51100000000E-03 0.  1.
    9900012    2    1    2    0    0  0.11129536210E+01  0.63856320859E+01  0.31220264766E+02  0.59301954542E+02  0.50000019175E+02 0.  0.
        -12    1    1    2    0    0 -0.11129536210E+01 -0.63856320859E+01 -0.31220264766E+02  0.31886045458E+02  0.00000000000E+00 0.  1.
         11    1    3    3    0    0  0.16730535348E+00 -0.78814044656E+01 -0.16597561577E+01  0.80560113081E+01  0.51100000000E-03 0. -1.
        -11    1    3    3    0    0  0.10416734644E+02 -0.78921167050E+01  0.40739886606E+01  0.13689092395E+02  0.51100000000E-03 0.  1.
         12    1    3    3    0    0 -0.94710863764E+01  0.22159153257E+02  0.28806032263E+02  0.37556850839E+02  0.00000000000E+00 0. -1.
</event>
<event>
 7    1  0.6841384E-013  0.5930194E+02  0.7816164E-02  0.1266605E+00
        -11   -1    0    0    0    0  0.00000000000E+00  0.00000000000E+00  0.45593999997E+02  0.45594000000E+02  0.51100000000E-03 0.  1.
         11   -1    0    0    0    0 -0.00000000000E+00 -0.00000000000E+00 -0.45593999997E+02  0.45594000000E+02  0.51100000000E-03 0. -1.
    9900012    2    1    2    0    0 -0.25423346412E+02 -0.15489018659E+02 -0.11422115122E+02  0.59301937909E+02  0.49999988841E+02 0.  0.
        -12    1    1    2    0    0  0.25423346412E+02  0.15489018659E+02  0.11422115122E+02  0.31886062091E+02  0.00000000000E+00 0.  1.
         11    1    3    3    0    0 -0.15240312352E+02 -0.98506087148E+01  0.11855240855E+01  0.18185353454E+02  0.51100000000E-03 0. -1.
        -11    1    3    3    0    0 -0.16906774781E+02 -0.17704795552E+02 -0.12066200577E+02  0.27292709936E+02  0.51100000000E-03 0.  1.
        -12    1    3    3    0    0  0.67237407206E+01  0.12066385608E+02 -0.54143863066E+00  0.13823874519E+02  0.00000000000E+00 0.  1.
</event>
<event>
 7    1  0.6841384E-013  0.5930192E+02  0.7816164E-02  0.1266605E+00
        -11   -1    0    0    0    0  0.00000000000E+00  0.00000000000E+00  0.45593999997E+02  0.45594000000E+02  0.51100000000E-03 0.  1.
         11   -1    0    0    0    0 -0.00000000000E+00 -0.00000000000E+00 -0.45593999997E+02  0.45594000000E+02  0.51100000000E-03 0. -1.
    9900012    2    1    2    0    0 -0.28958470216E+02 -0.13168167644E+02 -0.21744516376E+01  0.59301923473E+02  0.49999962513E+02 0.  0.
        -12    1    1    2    0    0  0.28958470216E+02  0.13168167644E+02  0.21744516376E+01  0.31886076527E+02  0.00000000000E+00 0.  1.
         11    1    3    3    0    0 -0.29217651549E+02  0.19543543326E+01  0.10741945189E+02  0.31191025145E+02  0.51100000000E-03 0. -1.
        -11    1    3    3    0    0  0.35339771521E+01  0.33181717585E+01  0.77738155001E+00  0.49095397611E+01  0.51100000000E-03 0.  1.
        -12    1    3    3    0    0 -0.32747958196E+01 -0.18440693735E+02 -0.13693778377E+02  0.23201358567E+02  0.00000000000E+00 0.  1.
</event>
<event>
 7    1  0.6841384E-013  0.5930204E+02  0.7816164E-02  0.1266604E+00
        -11   -1    0    0    0    0  0.00000000000E+00  0.00000000000E+00  0.45593999997E+02  0.45594000000E+02  0.51100000000E-03 0.  1.
         11   -1    0    0    0    0 -0.00000000000E+00 -0.00000000000E+00 -0.45593999997E+02  0.45594000000E+02  0.51100000000E-03 0. -1.
    9900012    2    1    2    0    0  0.94309827356E+01 -0.76826496557E+01 -0.29474525003E+02  0.59302044389E+02  0.50000183034E+02 0.  0.
        -12    1    1    2    0    0 -0.94309827356E+01  0.76826496557E+01  0.29474525003E+02  0.31885955611E+02  0.00000000000E+00 0.  1.
         11    1    3    3    0    0 -0.48965927561E+01 -0.10134096146E+02 -0.24680931475E+02  0.27126092679E+02  0.51100000000E-03 0. -1.
        -11    1    3    3    0    0 -0.47943761046E+01 -0.68483264079E+01 -0.68575331328E+01  0.10812556485E+02  0.51100000000E-03 0.  1.
        -12    1    3    3    0    0  0.19121951596E+02  0.92997728985E+01  0.20639396047E+01  0.21363395224E+02  0.00000000000E+00 0.  1.
</event>
<event>
 7    1  0.6841384E-013  0.5930194E+02  0.7816164E-02  0.1266605E+00
        -11   -1    0    0    0    0  0.00000000000E+00  0.00000000000E+00  0.45593999997E+02  0.45594000000E+02  0.51100000000E-03 0.  1.
         11   -1    0    0    0    0 -0.00000000000E+00 -0.00000000000E+00 -0.45593999997E+02  0.45594000000E+02  0.51100000000E-03 0. -1.
    9900012    2    1    2    0    0  0.16957038643E+02  0.26395041020E+02 -0.56992771909E+01  0.59301935481E+02  0.49999984413E+02 0.  0.
        -12    1    1    2    0    0 -0.16957038643E+02 -0.26395041020E+02  0.56992771909E+01  0.31886064519E+02  0.00000000000E+00 0.  1.
         11    1    3    3    0    0  0.36011604318E+01  0.25588340834E+02 -0.12801348848E+02  0.28837580961E+02  0.51100000000E-03 0.  1.
        -11    1    3    3    0    0  0.18117739040E+02  0.57573823410E+01 -0.19397408709E+01  0.19109225893E+02  0.51100000000E-03 0. -1.
        -12    1    3    3    0    0 -0.47618608280E+01 -0.49506821548E+01  0.90418125281E+01  0.11355128627E+02  0.00000000000E+00 0.  1.
</event>
<event>
 7    1  0.7326650E-013  0.5930195E+02  0.7816164E-02  0.1266605E+00
        -11   -1    0    0    0    0  0.00000000000E+00  0.00000000000E+00  0.45593999997E+02  0.45594000000E+02  0.51100000000E-03 0. -1.
         11   -1    0    0    0    0 -0.00000000000E+00 -0.00000000000E+00 -0.45593999997E+02  0.45594000000E+02  0.51100000000E-03 0.  1.
    9900012    2    1    2    0    0 -0.16819261142E+01 -0.50552322846E+01  0.31437811662E+02  0.59301948959E+02  0.50000008993E+02 0.  0.
        -12    1    1    2    0    0  0.16819261142E+01  0.50552322846E+01 -0.31437811662E+02  0.31886051041E+02  0.00000000000E+00 0.  1.
         11    1    3    3    0    0 -0.81984759772E+01 -0.18877469537E+01  0.22313257529E+02  0.23846594279E+02  0.51100000000E-03 0. -1.
        -11    1    3    3    0    0  0.13335099540E+02 -0.78270092167E+01  0.17731951049E+02  0.23526772861E+02  0.51100000000E-03 0.  1.
        -12    1    3    3    0    0 -0.68185496773E+01  0.46595238859E+01 -0.86073969150E+01  0.11928581818E+02  0.00000000000E+00 0.  1.
</event>
<event>
 7    1  0.6841384E-013  0.5930193E+02  0.7816164E-02  0.1266605E+00
        -11   -1    0    0    0    0  0.00000000000E+00  0.00000000000E+00  0.45593999997E+02  0.45594000000E+02  0.51100000000E-03 0.  1.
         11   -1    0    0    0    0 -0.00000000000E+00 -0.00000000000E+00 -0.45593999997E+02  0.45594000000E+02  0.51100000000E-03 0. -1.
    9900012    2    1    2    0    0 -0.73894172576E+01 -0.22470284539E+02 -0.21382341375E+02  0.59301926279E+02  0.49999967630E+02 0.  0.
        -12    1    1    2    0    0  0.73894172576E+01  0.22470284539E+02  0.21382341375E+02  0.31886073721E+02  0.00000000000E+00 0.  1.
         11    1    3    3    0    0 -0.11754102294E+02 -0.11103457215E+02 -0.11143927805E+02  0.19637535743E+02  0.51100000000E-03 0. -1.
        -11    1    3    3    0    0 -0.41835090285E+00  0.40213399984E+01 -0.20278869666E+02  0.20677977369E+02  0.51100000000E-03 0.  1.
         12    1    3    3    0    0  0.47830359388E+01 -0.15388167323E+02  0.10040456096E+02  0.18986413167E+02  0.00000000000E+00 0. -1.
</event>
<event>
 7    1  0.6841384E-013  0.5930191E+02  0.7816164E-02  0.1266605E+00
        -11   -1    0    0    0    0  0.00000000000E+00  0.00000000000E+00  0.45593999997E+02  0.45594000000E+02  0.51100000000E-03 0.  1.
         11   -1    0    0    0    0 -0.00000000000E+00 -0.00000000000E+00 -0.45593999997E+02  0.45594000000E+02  0.51100000000E-03 0. -1.
    9900012    2    1    2    0    0 -0.28336281150E+02  0.13095510840E+02 -0.65027430731E+01  0.59301907404E+02  0.49999933207E+02 0.  0.
        -12    1    1    2    0    0  0.28336281150E+02 -0.13095510840E+02  0.65027430731E+01  0.31886092596E+02  0.00000000000E+00 0.  1.
         11    1    3    3    0    0 -0.73231317046E+01  0.15679220091E+02  0.23128371685E+01  0.17458963791E+02  0.51100000000E-03 0.  1.
        -11    1    3    3    0    0 -0.11360594034E+02  0.16175932218E+02 -0.33432125805E+01  0.20047467435E+02  0.51100000000E-03 0. -1.
        -12    1    3    3    0    0 -0.96525554112E+01 -0.18759641469E+02 -0.54723676611E+01  0.21795476178E+02  0.00000000000E+00 0.  1.
</event>
<event>
 7    1  0.6841384E-013  0.5930194E+02  0.7816164E-02  0.1266605E+00
        -11   -1    0    0    0    0  0.00000000000E+00  0.00000000000E+00  0.45593999997E+02  0.45594000000E+02  0.51100000000E-03 0. -1.
         11   -1    0    0    0    0 -0.00000000000E+00 -0.00000000000E+00 -0.45593999997E+02  0.45594000000E+02  0.51100000000E-03 0.  1.
    9900012    2    1    2    0    0 -0.48150530459E+01  0.29128164337E+02  0.12045169133E+02  0.59301940461E+02  0.49999993494E+02 0.  0.
        -12    1    1    2    0    0  0.48150530459E+01 -0.29128164337E+02 -0.12045169133E+02  0.31886059539E+02  0.00000000000E+00 0.  1.
         11    1    3    3    0    0  0.14892782971E+02  0.21791270472E+02 -0.10267424206E+01  0.26414175241E+02  0.51100000000E-03 0.  1.
        -11    1    3    3    0    0  0.35129445120E+01 -0.25358016259E+01 -0.27787228677E+00  0.43414608485E+01  0.51100000000E-03 0. -1.
         12    1    3    3    0    0 -0.23220780529E+02  0.98726954915E+01  0.13349783841E+02  0.28546304371E+02  0.00000000000E+00 0. -1.
</event>
<event>
 7    1  0.6841384E-013  0.5930193E+02  0.7816164E-02  0.1266605E+00
        -11   -1    0    0    0    0  0.00000000000E+00  0.00000000000E+00  0.45593999997E+02  0.45594000000E+02  0.51100000000E-03 0.  1.
         11   -1    0    0    0    0 -0.00000000000E+00 -0.00000000000E+00 -0.45593999997E+02  0.45594000000E+02  0.51100000000E-03 0. -1.
    9900012    2    1    2    0    0 -0.21601869317E+02  0.11833815678E-01 -0.23453794780E+02  0.59301931136E+02  0.49999976489E+02 0.  0.
        -12    1    1    2    0    0  0.21601869317E+02 -0.11833815678E-01  0.23453794780E+02  0.31886068864E+02  0.00000000000E+00 0.  1.
         11    1    3    3    0    0 -0.74840022968E+00  0.82903881671E+00 -0.14263956654E+02  0.14307615733E+02  0.51100000000E-03 0. -1.
        -11    1    3    3    0    0  0.74272995116E+01  0.28251692347E+01  0.83422784848E+01  0.11521283341E+02  0.51100000000E-03 0.  1.
         12    1    3    3    0    0 -0.28280768599E+02 -0.36423742357E+01 -0.17532116610E+02  0.33473032062E+02  0.00000000000E+00 0. -1.
</event>
<event>
 7    1  0.6841384E-013  0.5930195E+02  0.7816164E-02  0.1266605E+00
        -11   -1    0    0    0    0  0.00000000000E+00  0.00000000000E+00  0.45593999997E+02  0.45594000000E+02  0.51100000000E-03 0.  1.
         11   -1    0    0    0    0 -0.00000000000E+00 -0.00000000000E+00 -0.45593999997E+02  0.45594000000E+02  0.51100000000E-03 0. -1.
    9900012    2    1    2    0    0 -0.27218602599E+02 -0.58954280666E+01 -0.15527781377E+02  0.59301946716E+02  0.50000004903E+02 0.  0.
        -12    1    1    2    0    0  0.27218602599E+02  0.58954280666E+01  0.15527781377E+02  0.31886053284E+02  0.00000000000E+00 0.  1.
         11    1    3    3    0    0  0.11294708727E+01  0.42301805396E+01  0.34908015904E+01  0.55996274746E+01  0.51100000000E-03 0. -1.
        -11    1    3    3    0    0 -0.35686775903E+01 -0.19568318160E+02  0.18233279634E+01  0.19974460205E+02  0.51100000000E-03 0.  1.
         12    1    3    3    0    0 -0.24779395881E+02  0.94427095536E+01 -0.20841910931E+02  0.33727859037E+02  0.00000000000E+00 0. -1.
</event>
<event>
 7    1  0.6841384E-013  0.5930195E+02  0.7816164E-02  0.1266605E+00
        -11   -1    0    0    0    0  0.00000000000E+00  0.00000000000E+00  0.45593999997E+02  0.45594000000E+02  0.51100000000E-03 0.  1.
         11   -1    0    0    0    0 -0.00000000000E+00 -0.00000000000E+00 -0.45593999997E+02  0.45594000000E+02  0.51100000000E-03 0. -1.
    9900012    2    1    2    0    0 -0.60888486537E+01 -0.18057804882E+01 -0.31247161688E+02  0.59301952351E+02  0.50000015179E+02 0.  0.
        -12    1    1    2    0    0  0.60888486537E+01  0.18057804882E+01  0.31247161688E+02  0.31886047649E+02  0.00000000000E+00 0.  1.
         11    1    3    3    0    0 -0.76496954513E+01  0.20309037158E+02 -0.13392128248E+02  0.25501449567E+02  0.51100000000E-03 0. -1.
        -11    1    3    3    0    0 -0.76589202673E+01 -0.47100810567E+01 -0.51373819078E+01  0.10355511400E+02  0.51100000000E-03 0.  1.
        -12    1    3    3    0    0  0.92197670649E+01 -0.17404736589E+02 -0.12717651533E+02  0.23444991384E+02  0.00000000000E+00 0.  1.
</event>
<event>
 7    1  0.6841384E-013  0.5930196E+02  0.7816164E-02  0.1266605E+00
        -11   -1    0    0    0    0  0.00000000000E+00  0.00000000000E+00  0.45593999997E+02  0.45594000000E+02  0.51100000000E-03 0.  1.
         11   -1    0    0    0    0 -0.00000000000E+00 -0.00000000000E+00 -0.45593999997E+02  0.45594000000E+02  0.51100000000E-03 0. -1.
    9900012    2    1    2    0    0  0.13397608971E+02  0.18406814487E+02 -0.22325160600E+02  0.59301960084E+02  0.50000029283E+02 0.  0.
        -12    1    1    2    0    0 -0.13397608971E+02 -0.18406814487E+02  0.22325160600E+02  0.31886039916E+02  0.00000000000E+00 0.  1.
         11    1    3    3    0    0  0.25078195868E+02  0.15645650117E+02 -0.16704466139E+02  0.33952046548E+02  0.51100000000E-03 0. -1.
        -11    1    3    3    0    0  0.40176658634E+00 -0.61999444893E+01  0.40961920990E+01  0.74417415995E+01  0.51100000000E-03 0.  1.
        -12    1    3    3    0    0 -0.12082353483E+02  0.89611088593E+01 -0.97168865601E+01  0.17908171936E+02  0.00000000000E+00 0.  1.
</event>
<event>
 7    1  0.6841384E-013  0.5930203E+02  0.7816164E-02  0.1266604E+00
        -11   -1    0    0    0    0  0.00000000000E+00  0.00000000000E+00  0.45593999997E+02  0.45594000000E+02  0.51100000000E-03 0. -1.
         11   -1    0    0    0    0 -0.00000000000E+00 -0.00000000000E+00 -0.45593999997E+02  0.45594000000E+02  0.51100000000E-03 0.  1.
    9900012    2    1    2    0    0  0.89566702486E+01 -0.25832654349E+02  0.16406305840E+02  0.59302033746E+02  0.50000163624E+02 0.  0.
        -12    1    1    2    0    0 -0.89566702486E+01  0.25832654349E+02 -0.16406305840E+02  0.31885966254E+02  0.00000000000E+00 0.  1.
         11    1    3    3    0    0  0.10481262428E+02  0.11903020397E+02  0.26491981596E+00  0.15862185833E+02  0.51100000000E-03 0. -1.
        -11    1    3    3    0    0  0.12922562729E+01 -0.10507506403E+01 -0.18452582919E+01  0.24857557419E+01  0.51100000000E-03 0.  1.
        -12    1    3    3    0    0 -0.28168484518E+01 -0.36684924105E+02  0.17986644316E+02  0.40954092171E+02  0.00000000000E+00 0.  1.
</event>
<event>
 7    1  0.6841384E-013  0.5930196E+02  0.7816164E-02  0.1266605E+00
        -11   -1    0    0    0    0  0.00000000000E+00  0.00000000000E+00  0.45593999997E+02  0.45594000000E+02  0.51100000000E-03 0.  1.
         11   -1    0    0    0    0 -0.00000000000E+00 -0.00000000000E+00 -0.45593999997E+02  0.45594000000E+02  0.51100000000E-03 0. -1.
    9900012    2    1    2    0    0  0.15076580139E+02  0.23403784436E+02 -0.15546026375E+02  0.59301963390E+02  0.50000035313E+02 0.  0.
        -12    1    1    2    0    0 -0.15076580139E+02 -0.23403784436E+02  0.15546026375E+02  0.31886036610E+02  0.00000000000E+00 0.  1.
         11    1    3    3    0    0  0.46914050839E+01  0.66968899314E+01  0.49987665109E+01  0.95835944878E+01  0.51100000000E-03 0. -1.
        -11    1    3    3    0    0 -0.80258108337E+00 -0.11669949612E+02 -0.14486985467E+02  0.18620005599E+02  0.51100000000E-03 0.  1.
         12    1    3    3    0    0  0.11187756138E+02  0.28376844117E+02 -0.60578074194E+01  0.31098363304E+02  0.00000000000E+00 0. -1.
</event>
<event>
 7    1  0.6841384E-013  0.5930192E+02  0.7816164E-02  0.1266605E+00
        -11   -1    0    0    0    0  0.00000000000E+00  0.00000000000E+00  0.45593999997E+02  0.45594000000E+02  0.51100000000E-03 0.  1.
         11   -1    0    0    0    0 -0.00000000000E+00 -0.00000000000E+00 -0.45593999997E+02  0.45594000000E+02  0.51100000000E-03 0. -1.
    9900012    2    1    2    0    0 -0.18311323337E+02  0.24923764511E+02 -0.77603747723E+01  0.59301921277E+02  0.49999958508E+02 0.  0.
        -12    1    1    2    0    0  0.18311323337E+02 -0.24923764511E+02  0.77603747723E+01  0.31886078723E+02  0.00000000000E+00 0.  1.
         11    1    3    3    0    0 -0.62713189056E+01  0.19053906142E+02 -0.10997859944E+02  0.22876488010E+02  0.51100000000E-03 0. -1.
        -11    1    3    3    0    0  0.63314896039E+01  0.80940729189E+01 -0.94719998456E+01  0.13975713161E+02  0.51100000000E-03 0.  1.
         12    1    3    3    0    0 -0.18371494035E+02 -0.22242145500E+01  0.12709485017E+02  0.22449720106E+02  0.00000000000E+00 0. -1.
</event>
<event>
 7    1  0.6841384E-013  0.5930197E+02  0.7816164E-02  0.1266605E+00
        -11   -1    0    0    0    0  0.00000000000E+00  0.00000000000E+00  0.45593999997E+02  0.45594000000E+02  0.51100000000E-03 0. -1.
         11   -1    0    0    0    0 -0.00000000000E+00 -0.00000000000E+00 -0.45593999997E+02  0.45594000000E+02  0.51100000000E-03 0.  1.
    9900012    2    1    2    0    0 -0.14331551974E+02 -0.24167011764E+02 -0.15075846806E+02  0.59301968631E+02  0.50000044870E+02 0.  0.
        -12    1    1    2    0    0  0.14331551974E+02  0.24167011764E+02  0.15075846806E+02  0.31886031369E+02  0.00000000000E+00 0.  1.
         11    1    3    3    0    0 -0.51558021476E+01 -0.11590661473E+02  0.92657785437E+01  0.15709245095E+02  0.51100000000E-03 0. -1.
        -11    1    3    3    0    0 -0.12756017642E+02 -0.14093825030E+02 -0.67775443609E-01  0.19009378838E+02  0.51100000000E-03 0.  1.
        -12    1    3    3    0    0  0.35802678155E+01  0.15174747396E+01 -0.24273849906E+02  0.24583344697E+02  0.00000000000E+00 0.  1.
</event>
<event>
 7    1  0.6841384E-013  0.5930194E+02  0.7816164E-02  0.1266605E+00
        -11   -1    0    0    0    0  0.00000000000E+00  0.00000000000E+00  0.45593999997E+02  0.45594000000E+02  0.51100000000E-03 0.  1.
         11   -1    0    0    0    0 -0.00000000000E+00 -0.00000000000E+00 -0.45593999997E+02  0.45594000000E+02  0.51100000000E-03 0. -1.
    9900012    2    1    2    0    0  0.88458599180E+00  0.43127985912E+01 -0.31580662344E+02  0.59301937870E+02  0.49999988770E+02 0.  0.
        -12    1    1    2    0    0 -0.88458599180E+00 -0.43127985912E+01  0.31580662344E+02  0.31886062130E+02  0.00000000000E+00 0.  1.
         11    1    3    3    0    0 -0.55876234723E+01  0.46842143635E+01 -0.87337506995E+01  0.11377249308E+02  0.51100000000E-03 0. -1.
        -11    1    3    3    0    0  0.12944745561E+02  0.14878124752E+02 -0.21599276677E-01  0.19721194197E+02  0.51100000000E-03 0.  1.
        -12    1    3    3    0    0 -0.64725360965E+01 -0.15249540524E+02 -0.22825312368E+02  0.28203494365E+02  0.00000000000E+00 0.  1.
</event>
<event>
 7    1  0.6841384E-013  0.5930194E+02  0.7816164E-02  0.1266605E+00
        -11   -1    0    0    0    0  0.00000000000E+00  0.00000000000E+00  0.45593999997E+02  0.45594000000E+02  0.51100000000E-03 0.  1.
         11   -1    0    0    0    0 -0.00000000000E+00 -0.00000000000E+00 -0.45593999997E+02  0.45594000000E+02  0.51100000000E-03 0. -1.
    9900012    2    1    2    0    0  0.40949688698E+01 -0.43702049613E+01 -0.31318580266E+02  0.59301938291E+02  0.49999989538E+02 0.  0.
        -12    1    1    2    0    0 -0.40949688698E+01  0.43702049613E+01  0.31318580266E+02  0.31886061709E+02  0.00000000000E+00 0.  1.
         11    1    3    3    0    0  0.72512900061E+00  0.77301717224E+01 -0.16004654123E+02  0.17788488435E+02  0.51100000000E-03 0. -1.
        -11    1    3    3    0    0 -0.16114266921E+02 -0.96183773665E+01 -0.54957984744E+01  0.19554707431E+02  0.51100000000E-03 0.  1.
         12    1    3    3    0    0  0.19484106790E+02 -0.24819993171E+01 -0.98181276680E+01  0.21958742426E+02  0.00000000000E+00 0. -1.
</event>
<event>
 7    1  0.6841384E-013  0.5930198E+02  0.7816164E-02  0.1266605E+00
        -11   -1    0    0    0    0  0.00000000000E+00  0.00000000000E+00  0.45593999997E+02  0.45594000000E+02  0.51100000000E-03 0. -1.
         11   -1    0    0    0    0 -0.00000000000E+00 -0.00000000000E+00 -0.45593999997E+02  0.45594000000E+02  0.51100000000E-03 0.  1.
    9900012    2    1    2    0    0 -0.16347844068E+02  0.96548952105E+01  0.25617361285E+02  0.59301981020E+02  0.50000067465E+02 0.  0.
        -12    1    1    2    0    0  0.16347844068E+02 -0.96548952105E+01 -0.25617361285E+02  0.31886018980E+02  0.00000000000E+00 0.  1.
         11    1    3    3    0    0 -0.29178054007E+02 -0.13200753472E-01  0.20544206842E+02  0.35685059128E+02  0.51100000000E-03 0. -1.
        -11    1    3    3    0    0 -0.39114734747E+01  0.22049304234E+01  0.24057726638E+01  0.50940244686E+01  0.51100000000E-03 0.  1.
        -12    1    3    3    0    0  0.16741683414E+02  0.74631655406E+01  0.26673817787E+01  0.18522897424E+02  0.00000000000E+00 0.  1.
</event>
<event>
 7    1  0.6841384E-013  0.5930192E+02  0.7816164E-02  0.1266605E+00
        -11   -1    0    0    0    0  0.00000000000E+00  0.00000000000E+00  0.45593999997E+02  0.45594000000E+02  0.51100000000E-03 0.  1.
         11   -1    0    0    0    0 -0.00000000000E+00 -0.00000000000E+00 -0.45593999997E+02  0.45594000000E+02  0.51100000000E-03 0. -1.
    9900012    2    1    2    0    0 -0.24643949057E+02 -0.61759547244E+01  0.19267984031E+02  0.59301923877E+02  0.49999963250E+02 0.  0.
        -12    1    1    2    0    0  0.24643949057E+02  0.61759547244E+01 -0.19267984031E+02  0.31886076123E+02  0.00000000000E+00 0.  1.
         11    1    3    3    0    0  0.14250624139E+01 -0.13621020184E+02  0.11023713426E+02  0.17580820563E+02  0.51100000000E-03 0. -1.
        -11    1    3    3    0    0 -0.70173283676E+01  0.46428183905E+00 -0.11454696960E+02  0.13441299705E+02  0.51100000000E-03 0.  1.
        -12    1    3    3    0    0 -0.19051683103E+02  0.69807836201E+01  0.19698967566E+02  0.28279803609E+02  0.00000000000E+00 0.  1.
</event>
<event>
 7    1  0.6841384E-013  0.5930195E+02  0.7816164E-02  0.1266605E+00
        -11   -1    0    0    0    0  0.00000000000E+00  0.00000000000E+00  0.45593999997E+02  0.45594000000E+02  0.51100000000E-03 0.  1.
         11   -1    0    0    0    0 -0.00000000000E+00 -0.00000000000E+00 -0.45593999997E+02  0.45594000000E+02  0.51100000000E-03 0. -1.
    9900012    2    1    2    0    0  0.89215524357E+01 -0.30595146851E+02  0.10310218549E+01  0.59301951095E+02  0.50000012888E+02 0.  0.
        -12    1    1    2    0    0 -0.89215524357E+01  0.30595146851E+02 -0.10310218549E+01  0.31886048905E+02  0.00000000000E+00 0.  1.
         11    1    3    3    0    0  0.24688384559E+02 -0.33533127585E+01  0.22706972029E+01  0.25018335369E+02  0.51100000000E-03 0. -1.
        -11    1    3    3    0    0 -0.97593208798E+01 -0.66431616032E+01 -0.43924212094E+01  0.12596400457E+02  0.51100000000E-03 0.  1.
        -12    1    3    3    0    0 -0.60075112430E+01 -0.20598672490E+02  0.31527458614E+01  0.21687215270E+02  0.00000000000E+00 0.  1.
</event>
<event>
 7    1  0.6841384E-013  0.5930194E+02  0.7816164E-02  0.1266605E+00
        -11   -1    0    0    0    0  0.00000000000E+00  0.00000000000E+00  0.45593999997E+02  0.45594000000E+02  0.51100000000E-03 0.  1.
         11   -1    0    0    0    0 -0.00000000000E+00 -0.00000000000E+00 -0.45593999997E+02  0.45594000000E+02  0.51100000000E-03 0. -1.
    9900012    2    1    2    0    0 -0.11018368036E+01  0.20955027619E+02 -0.24008193515E+02  0.59301943757E+02  0.49999999507E+02 0.  0.
        -12    1    1    2    0    0  0.11018368036E+01 -0.20955027619E+02  0.24008193515E+02  0.31886056243E+02  0.00000000000E+00 0.  1.
         11    1    3    3    0    0 -0.10039817720E+02 -0.10003852370E+01  0.36512801698E+01  0.10729890848E+02  0.51100000000E-03 0. -1.
        -11    1    3    3    0    0 -0.11780039414E+02  0.12423617670E+02 -0.11668721754E+02  0.20718944766E+02  0.51100000000E-03 0.  1.
         12    1    3    3    0    0  0.20718020330E+02  0.95317951859E+01 -0.15990751932E+02  0.27853108143E+02  0.00000000000E+00 0. -1.
</event>
<event>
 7    1  0.6841384E-013  0.5930195E+02  0.7816164E-02  0.1266605E+00
        -11   -1    0    0    0    0  0.00000000000E+00  0.00000000000E+00  0.45593999997E+02  0.45594000000E+02  0.51100000000E-03 0.  1.
         11   -1    0    0    0    0 -0.00000000000E+00 -0.00000000000E+00 -0.45593999997E+02  0.45594000000E+02  0.51100000000E-03 0. -1.
    9900012    2    1    2    0    0  0.31149943907E+02  0.23652449501E+01 -0.63880061045E+01  0.59301952721E+02  0.50000015854E+02 0.  0.
        -12    1    1    2    0    0 -0.31149943907E+02 -0.23652449501E+01  0.63880061045E+01  0.31886047279E+02  0.00000000000E+00 0.  1.
         11    1    3    3    0    0  0.66282556082E+01  0.58651657116E+01 -0.16095633270E+02  0.18368542453E+02  0.51100000000E-03 0. -1.
        -11    1    3    3    0    0  0.34679123914E+01 -0.10042480589E+02 -0.74674248332E+01  0.12986156731E+02  0.51100000000E-03 0.  1.
        -12    1    3    3    0    0  0.21053775908E+02  0.65425598275E+01  0.17175051999E+02  0.27947253537E+02  0.00000000000E+00 0.  1.
</event>
<event>
 7    1  0.6841384E-013  0.5930194E+02  0.7816164E-02  0.1266605E+00
        -11   -1    0    0    0    0  0.00000000000E+00  0.00000000000E+00  0.45593999997E+02  0.45594000000E+02  0.51100000000E-03 0.  1.
         11   -1    0    0    0    0 -0.00000000000E+00 -0.00000000000E+00 -0.45593999997E+02  0.45594000000E+02  0.51100000000E-03 0. -1.
    9900012    2    1    2    0    0  0.13142843774E+02 -0.94074184281E+01 -0.27486123098E+02  0.59301939928E+02  0.49999992524E+02 0.  0.
        -12    1    1    2    0    0 -0.13142843774E+02  0.94074184281E+01  0.27486123098E+02  0.31886060072E+02  0.00000000000E+00 0.  1.
         11    1    3    3    0    0 -0.23244936425E+00  0.13619592069E+02 -0.27263722964E+02  0.30477170324E+02  0.51100000000E-03 0. -1.
        -11    1    3    3    0    0  0.37076928875E-02 -0.84798521372E+01 -0.27272051054E+01  0.89076121359E+01  0.51100000000E-03 0.  1.
        -12    1    3    3    0    0  0.13371585446E+02 -0.14547158360E+02  0.25048049715E+01  0.19917157469E+02  0.00000000000E+00 0.  1.
</event>
<event>
 7    1  0.6841384E-013  0.5930192E+02  0.7816164E-02  0.1266605E+00
        -11   -1    0    0    0    0  0.00000000000E+00  0.00000000000E+00  0.45593999997E+02  0.45594000000E+02  0.51100000000E-03 0. -1.
         11   -1    0    0    0    0 -0.00000000000E+00 -0.00000000000E+00 -0.45593999997E+02  0.45594000000E+02  0.51100000000E-03 0.  1.
    9900012    2    1    2    0    0  0.17537187376E+01 -0.19384900788E+02 -0.25256127561E+02  0.59301923299E+02  0.49999962197E+02 0.  0.
        -12    1    1    2    0    0 -0.17537187376E+01  0.19384900788E+02  0.25256127561E+02  0.31886076701E+02  0.00000000000E+00 0.  1.
         11    1    3    3    0    0  0.52216122700E+01 -0.77649321875E+01 -0.53345008043E+01  0.10771086559E+02  0.51100000000E-03 0. -1.
        -11    1    3    3    0    0  0.39074617287E+01 -0.26586246329E+02 -0.80439013023E+01  0.28049975034E+02  0.51100000000E-03 0.  1.
        -12    1    3    3    0    0 -0.73753552610E+01  0.14966277728E+02 -0.11877725454E+02  0.20480861706E+02  0.00000000000E+00 0.  1.
</event>
<event>
 7    1  0.6841384E-013  0.5930193E+02  0.7816164E-02  0.1266605E+00
        -11   -1    0    0    0    0  0.00000000000E+00  0.00000000000E+00  0.45593999997E+02  0.45594000000E+02  0.51100000000E-03 0. -1.
         11   -1    0    0    0    0 -0.00000000000E+00 -0.00000000000E+00 -0.45593999997E+02  0.45594000000E+02  0.51100000000E-03 0.  1.
    9900012    2    1    2    0    0  0.36674218606E+01  0.21275147712E+02  0.23465714764E+02  0.59301926823E+02  0.49999968623E+02 0.  0.
        -12    1    1    2    0    0 -0.36674218606E+01 -0.21275147712E+02 -0.23465714764E+02  0.31886073177E+02  0.00000000000E+00 0.  1.
         11    1    3    3    0    0 -0.44115472772E+01  0.57223214373E+01 -0.72021471563E+01  0.10201844732E+02  0.51100000000E-03 0. -1.
        -11    1    3    3    0    0 -0.32783261985E+01 -0.90863311161E+01  0.24718109567E+01  0.99708919100E+01  0.51100000000E-03 0.  1.
         12    1    3    3    0    0  0.11357295336E+02  0.24639157391E+02  0.28196050964E+02  0.39129190181E+02  0.00000000000E+00 0. -1.
</event>
<event>
 7    1  0.6841384E-013  0.5930194E+02  0.7816164E-02  0.1266605E+00
        -11   -1    0    0    0    0  0.00000000000E+00  0.00000000000E+00  0.45593999997E+02  0.45594000000E+02  0.51100000000E-03 0. -1.
         11   -1    0    0    0    0 -0.00000000000E+00 -0.00000000000E+00 -0.45593999997E+02  0.45594000000E+02  0.51100000000E-03 0.  1.
    9900012    2    1    2    0    0  0.91598183216E+01 -0.12949369511E+02  0.27661025209E+02  0.59301941009E+02  0.49999994494E+02 0.  0.
        -12    1    1    2    0    0 -0.91598183216E+01  0.12949369511E+02 -0.27661025209E+02  0.31886058991E+02  0.00000000000E+00 0.  1.
         11    1    3    3    0    0  0.22809156679E+01  0.81247501058E+01  0.25700755958E+02  0.27050748560E+02  0.51100000000E-03 0. -1.
        -11    1    3    3    0    0  0.12415968295E+02 -0.36157893598E+01  0.46438246076E+01  0.13740280515E+02  0.51100000000E-03 0.  1.
        -12    1    3    3    0    0 -0.55370656409E+01 -0.17458330257E+02 -0.26835553571E+01  0.18510911934E+02  0.00000000000E+00 0.  1.
</event>
<event>
 7    1  0.6841384E-013  0.5930190E+02  0.7816164E-02  0.1266605E+00
        -11   -1    0    0    0    0  0.00000000000E+00  0.00000000000E+00  0.45593999997E+02  0.45594000000E+02  0.51100000000E-03 0.  1.
         11   -1    0    0    0    0 -0.00000000000E+00 -0.00000000000E+00 -0.45593999997E+02  0.45594000000E+02  0.51100000000E-03 0. -1.
    9900012    2    1    2    0    0  0.30038588753E+02 -0.10636622361E+02 -0.11263229937E+01  0.59301903453E+02  0.49999926002E+02 0.  0.
        -12    1    1    2    0    0 -0.30038588753E+02  0.10636622361E+02  0.11263229937E+01  0.31886096547E+02  0.00000000000E+00 0.  1.
         11    1    3    3    0    0  0.34124373090E+01 -0.12127908463E+02 -0.39895205242E+01  0.13215413969E+02  0.51100000000E-03 0. -1.
        -11    1    3    3    0    0 -0.21786056875E+01  0.10880924774E+02 -0.82376677903E+01  0.13820275597E+02  0.51100000000E-03 0.  1.
         12    1    3    3    0    0  0.28804757131E+02 -0.93896386715E+01  0.11100865321E+02  0.32266213888E+02  0.00000000000E+00 0. -1.
</event>
<event>
 7    1  0.6841384E-013  0.5930177E+02  0.7816164E-02  0.1266605E+00
        -11   -1    0    0    0    0  0.00000000000E+00  0.00000000000E+00  0.45593999997E+02  0.45594000000E+02  0.51100000000E-03 0.  1.
         11   -1    0    0    0    0 -0.00000000000E+00 -0.00000000000E+00 -0.45593999997E+02  0.45594000000E+02  0.51100000000E-03 0. -1.
    9900012    2    1    2    0    0  0.21874737438E+02  0.21421247341E+02 -0.89083020075E+01  0.59301767543E+02  0.49999678133E+02 0.  0.
        -12    1    1    2    0    0 -0.21874737438E+02 -0.21421247341E+02  0.89083020075E+01  0.31886232457E+02  0.00000000000E+00 0.  1.
         11    1    3    3    0    0  0.14848993590E+02  0.38740404804E+01 -0.55053351024E+01  0.16303665696E+02  0.51100000000E-03 0. -1.
        -11    1    3    3    0    0  0.30576063991E+00  0.74741737304E+01  0.17393163198E+02  0.18933538729E+02  0.51100000000E-03 0.  1.
         12    1    3    3    0    0  0.67199832086E+01  0.10073033130E+02 -0.20796130103E+02  0.24064563118E+02  0.00000000000E+00 0. -1.
</event>
<event>
 7    1  0.6841384E-013  0.5930177E+02  0.7816164E-02  0.1266605E+00
        -11   -1    0    0    0    0  0.00000000000E+00  0.00000000000E+00  0.45593999997E+02  0.45594000000E+02  0.51100000000E-03 0.  1.
         11   -1    0    0    0    0 -0.00000000000E+00 -0.00000000000E+00 -0.45593999997E+02  0.45594000000E+02  0.51100000000E-03 0. -1.
    9900012    2    1    2    0    0 -0.62799341886E+01  0.30000667635E+02 -0.87894364180E+01  0.59301767478E+02  0.49999678014E+02 0.  0.
        -12    1    1    2    0    0  0.62799341886E+01 -0.30000667635E+02  0.87894364180E+01  0.31886232522E+02  0.00000000000E+00 0.  1.
         11    1    3    3    0    0  0.63396586128E+01 -0.15640463781E+01  0.85358077069E+00  0.65852951940E+01  0.51100000000E-03 0.  1.
        -11    1    3    3    0    0  0.46565769343E+01  0.19191340598E+02 -0.20828546727E+02  0.28702258129E+02  0.51100000000E-03 0. -1.
         12    1    3    3    0    0 -0.17276169736E+02  0.12373373415E+02  0.11185529539E+02  0.24014214154E+02  0.00000000000E+00 0. -1.
</event>
<event>
 7    1  0.6841384E-013  0.5930193E+02  0.7816164E-02  0.1266605E+00
        -11   -1    0    0    0    0  0.00000000000E+00  0.00000000000E+00  0.45593999997E+02  0.45594000000E+02  0.51100000000E-03 0. -1.
         11   -1    0    0    0    0 -0.00000000000E+00 -0.00000000000E+00 -0.45593999997E+02  0.45594000000E+02  0.51100000000E-03 0.  1.
    9900012    2    1    2    0    0 -0.34439867975E+01  0.18770779723E+02  0.25544442077E+02  0.59301925650E+02  0.49999966483E+02 0.  0.
        -12    1    1    2    0    0  0.34439867975E+01 -0.18770779723E+02 -0.25544442077E+02  0.31886074350E+02  0.00000000000E+00 0.  1.
         11    1    3    3    0    0 -0.26611822869E+01  0.50465259956E+00  0.13472147155E+02  0.13741736231E+02  0.51100000000E-03 0. -1.
        -11    1    3    3    0    0  0.11904373590E+02 -0.82761420986E+01  0.45361596785E+01  0.15191622149E+02  0.51100000000E-03 0.  1.
         12    1    3    3    0    0 -0.12687178101E+02  0.26542269222E+02  0.75361352430E+01  0.30368567270E+02  0.00000000000E+00 0. -1.
</event>
<event>
 7    1  0.6841384E-013  0.5930194E+02  0.7816164E-02  0.1266605E+00
        -11   -1    0    0    0    0  0.00000000000E+00  0.00000000000E+00  0.45593999997E+02  0.45594000000E+02  0.51100000000E-03 0.  1.
         11   -1    0    0    0    0 -0.00000000000E+00 -0.00000000000E+00 -0.45593999997E+02  0.45594000000E+02  0.51100000000E-03 0. -1.
    9900012    2    1    2    0    0  0.15386514202E+02 -0.27415508817E+02  0.53259798950E+01  0.59301937138E+02  0.49999987435E+02 0.  0.
        -12    1    1    2    0    0 -0.15386514202E+02  0.27415508817E+02 -0.53259798950E+01  0.31886062862E+02  0.00000000000E+00 0.  1.
         11    1    3    3    0    0  0.86775700424E+01 -0.45793029536E+00  0.50042248462E+01  0.10027571419E+02  0.51100000000E-03 0. -1.
        -11    1    3    3    0    0  0.14544958000E+02  0.57456799405E+01  0.45025868682E+00  0.15645170959E+02  0.51100000000E-03 0.  1.
        -12    1    3    3    0    0 -0.78360138405E+01 -0.32703258463E+02 -0.12850363811E+00  0.33629194759E+02  0.00000000000E+00 0.  1.
</event>
<event>
 7    1  0.6841384E-013  0.5930195E+02  0.7816164E-02  0.1266605E+00
        -11   -1    0    0    0    0  0.00000000000E+00  0.00000000000E+00  0.45593999997E+02  0.45594000000E+02  0.51100000000E-03 0. -1.
         11   -1    0    0    0    0 -0.00000000000E+00 -0.00000000000E+00 -0.45593999997E+02  0.45594000000E+02  0.51100000000E-03 0.  1.
    9900012    2    1    2    0    0  0.13102980610E+02 -0.19166537026E+02  0.21855797827E+02  0.59301950682E+02  0.50000012137E+02 0.  0.
        -12    1    1    2    0    0 -0.13102980610E+02  0.19166537026E+02 -0.21855797827E+02  0.31886049318E+02  0.00000000000E+00 0.  1.
         11    1    3    3    0    0 -0.14449468112E+01 -0.15473057729E+02  0.42873982266E+01  0.16120954395E+02  0.51100000000E-03 0. -1.
        -11    1    3    3    0    0  0.13564378003E+02 -0.55426803816E+01  0.28502285784E+02  0.32048306532E+02  0.51100000000E-03 0.  1.
         12    1    3    3    0    0  0.98354941836E+00  0.18492010854E+01 -0.10933886184E+02  0.11132689755E+02  0.00000000000E+00 0. -1.
</event>
<event>
 7    1  0.6841384E-013  0.5930194E+02  0.7816164E-02  0.1266605E+00
        -11   -1    0    0    0    0  0.00000000000E+00  0.00000000000E+00  0.45593999997E+02  0.45594000000E+02  0.51100000000E-03 0.  1.
         11   -1    0    0    0    0 -0.00000000000E+00 -0.00000000000E+00 -0.45593999997E+02  0.45594000000E+02  0.51100000000E-03 0. -1.
    9900012    2    1    2    0    0 -0.19219857854E+01  0.24005514102E+02 -0.20898857922E+02  0.59301937228E+02  0.49999987598E+02 0.  0.
        -12    1    1    2    0    0  0.19219857854E+01 -0.24005514102E+02  0.20898857922E+02  0.31886062772E+02  0.00000000000E+00 0.  1.
         11    1    3    3    0    0 -0.10471983538E+01  0.16724148767E+02  0.37872558910E+01  0.17179554238E+02  0.51100000000E-03 0. -1.
        -11    1    3    3    0    0  0.37441577069E+01  0.17059501608E+02 -0.27705607589E+01  0.17683928275E+02  0.51100000000E-03 0.  1.
        -12    1    3    3    0    0 -0.46189451385E+01 -0.97781362729E+01 -0.21915553054E+02  0.24438454715E+02  0.00000000000E+00 0.  1.
</event>
<event>
 7    1  0.6841384E-013  0.5930194E+02  0.7816164E-02  0.1266605E+00
        -11   -1    0    0    0    0  0.00000000000E+00  0.00000000000E+00  0.45593999997E+02  0.45594000000E+02  0.51100000000E-03 0.  1.
         11   -1    0    0    0    0 -0.00000000000E+00 -0.00000000000E+00 -0.45593999997E+02  0.45594000000E+02  0.51100000000E-03 0. -1.
    9900012    2    1    2    0    0 -0.15408988960E+02  0.18500446824E+02 -0.20904964996E+02  0.59301936666E+02  0.49999986575E+02 0.  0.
        -12    1    1    2    0    0  0.15408988960E+02 -0.18500446824E+02  0.20904964996E+02  0.31886063334E+02  0.00000000000E+00 0.  1.
         11    1    3    3    0    0  0.48796310752E+01  0.81694520162E+01 -0.89726946996E+01  0.13078990638E+02  0.51100000000E-03 0. -1.
        -11    1    3    3    0    0  0.33085220189E+01  0.15669393300E+02  0.49027470038E+01  0.16748526287E+02  0.51100000000E-03 0.  1.
        -12    1    3    3    0    0 -0.23597142054E+02 -0.53383984932E+01 -0.16835017300E+02  0.29474419741E+02  0.00000000000E+00 0.  1.
</event>
<event>
 7    1  0.6841384E-013  0.5930195E+02  0.7816164E-02  0.1266605E+00
        -11   -1    0    0    0    0  0.00000000000E+00  0.00000000000E+00  0.45593999997E+02  0.45594000000E+02  0.51100000000E-03 0.  1.
         11   -1    0    0    0    0 -0.00000000000E+00 -0.00000000000E+00 -0.45593999997E+02  0.45594000000E+02  0.51100000000E-03 0. -1.
    9900012    2    1    2    0    0  0.17636907354E+02  0.23008608261E+02 -0.13276425971E+02  0.59301952241E+02  0.50000014979E+02 0.  0.
        -12    1    1    2    0    0 -0.17636907354E+02 -0.23008608261E+02  0.13276425971E+02  0.31886047759E+02  0.00000000000E+00 0.  1.
         11    1    3    3    0    0  0.15244868643E+02  0.22597377684E+02 -0.15834117351E+02  0.31524066531E+02  0.51100000000E-03 0. -1.
        -11    1    3    3    0    0  0.16777552102E+01  0.79226383669E+01 -0.10158607967E+02  0.12991550228E+02  0.51100000000E-03 0.  1.
        -12    1    3    3    0    0  0.71428350097E+00 -0.75114077895E+01  0.12716299347E+02  0.14786335482E+02  0.00000000000E+00 0.  1.
</event>
<event>
 7    1  0.6841384E-013  0.5930194E+02  0.7816164E-02  0.1266605E+00
        -11   -1    0    0    0    0  0.00000000000E+00  0.00000000000E+00  0.45593999997E+02  0.45594000000E+02  0.51100000000E-03 0.  1.
         11   -1    0    0    0    0 -0.00000000000E+00 -0.00000000000E+00 -0.45593999997E+02  0.45594000000E+02  0.51100000000E-03 0. -1.
    9900012    2    1    2    0    0 -0.12594128163E+02  0.26520006917E+02 -0.12441794178E+02  0.59301936062E+02  0.49999985473E+02 0.  0.
        -12    1    1    2    0    0  0.12594128163E+02 -0.26520006917E+02  0.12441794178E+02  0.31886063938E+02  0.00000000000E+00 0.  1.
         11    1    3    3    0    0 -0.18190196697E+02 -0.35316087477E+01 -0.10338112034E+01  0.18558671345E+02  0.51100000000E-03 0. -1.
        -11    1    3    3    0    0 -0.50001981139E+01 -0.17875155436E+01 -0.28510826004E-01  0.53101794814E+01  0.51100000000E-03 0.  1.
         12    1    3    3    0    0  0.10596266647E+02  0.31839131208E+02 -0.11379472149E+02  0.35433085236E+02  0.00000000000E+00 0. -1.
</event>
<event>
 7    1  0.6841384E-013  0.5930195E+02  0.7816164E-02  0.1266605E+00
        -11   -1    0    0    0    0  0.00000000000E+00  0.00000000000E+00  0.45593999997E+02  0.45594000000E+02  0.51100000000E-03 0. -1.
         11   -1    0    0    0    0 -0.00000000000E+00 -0.00000000000E+00 -0.45593999997E+02  0.45594000000E+02  0.51100000000E-03 0.  1.
    9900012    2    1    2    0    0 -0.27582651484E+02  0.76251974964E+01  0.14063221056E+02  0.59301945270E+02  0.50000002266E+02 0.  0.
        -12    1    1    2    0    0  0.27582651484E+02 -0.76251974964E+01 -0.14063221056E+02  0.31886054730E+02  0.00000000000E+00 0.  1.
         11    1    3    3    0    0 -0.24703515533E+02 -0.63261363801E+01  0.46373228358E+01  0.25918882007E+02  0.51100000000E-03 0. -1.
        -11    1    3    3    0    0  0.80092589762E+01  0.75002394825E+01 -0.67208229211E+01  0.12867450510E+02  0.51100000000E-03 0.  1.
         12    1    3    3    0    0 -0.10888394928E+02  0.64510943940E+01  0.16146721141E+02  0.20515612752E+02  0.00000000000E+00 0. -1.
</event>
<event>
 7    1  0.6841384E-013  0.5930198E+02  0.7816164E-02  0.1266605E+00
        -11   -1    0    0    0    0  0.00000000000E+00  0.00000000000E+00  0.45593999997E+02  0.45594000000E+02  0.51100000000E-03 0. -1.
         11   -1    0    0    0    0 -0.00000000000E+00 -0.00000000000E+00 -0.45593999997E+02  0.45594000000E+02  0.51100000000E-03 0.  1.
    9900012    2    1    2    0    0 -0.10214162967E+02 -0.42308168797E+01  0.29908016631E+02  0.59301978057E+02  0.50000062060E+02 0.  0.
        -12    1    1    2    0    0  0.10214162967E+02  0.42308168797E+01 -0.29908016631E+02  0.31886021943E+02  0.00000000000E+00 0.  1.
         11    1    3    3    0    0 -0.14690476276E+01 -0.11630043406E+02 -0.73454882023E+00  0.11745449025E+02  0.51100000000E-03 0. -1.
        -11    1    3    3    0    0 -0.11453612425E+02  0.69914230141E+01 -0.30432009204E+01  0.13759589581E+02  0.51100000000E-03 0.  1.
        -12    1    3    3    0    0  0.27084970858E+01  0.40780351259E+00  0.33685766372E+02  0.33796939450E+02  0.00000000000E+00 0.  1.
</event>
<event>
 7    1  0.6841384E-013  0.5930193E+02  0.7816164E-02  0.1266605E+00
        -11   -1    0    0    0    0  0.00000000000E+00  0.00000000000E+00  0.45593999997E+02  0.45594000000E+02  0.51100000000E-03 0.  1.
         11   -1    0    0    0    0 -0.00000000000E+00 -0.00000000000E+00 -0.45593999997E+02  0.45594000000E+02  0.51100000000E-03 0. -1.
    9900012    2    1    2    0    0  0.10520638164E+02 -0.26223081216E+01 -0.29986018328E+02  0.59301927454E+02  0.49999969774E+02 0.  0.
        -12    1    1    2    0    0 -0.10520638164E+02  0.26223081216E+01  0.29986018328E+02  0.31886072546E+02  0.00000000000E+00 0.  1.
         11    1    3    3    0    0 -0.58923776076E+01  0.66701545503E+01 -0.30712957079E+02  0.31976504005E+02  0.51100000000E-03 0. -1.
        -11    1    3    3    0    0 -0.83894804183E+00  0.30780561179E+01 -0.44491238555E+01  0.54747572206E+01  0.51100000000E-03 0.  1.
         12    1    3    3    0    0  0.17251963813E+02 -0.12370518790E+02  0.51760626064E+01  0.21850666229E+02  0.00000000000E+00 0. -1.
</event>
<event>
 7    1  0.6841384E-013  0.5930194E+02  0.7816164E-02  0.1266605E+00
        -11   -1    0    0    0    0  0.00000000000E+00  0.00000000000E+00  0.45593999997E+02  0.45594000000E+02  0.51100000000E-03 0.  1.
         11   -1    0    0    0    0 -0.00000000000E+00 -0.00000000000E+00 -0.45593999997E+02  0.45594000000E+02  0.51100000000E-03 0. -1.
    9900012    2    1    2    0    0  0.29421248406E+02 -0.71873898895E+01 -0.99725739157E+01  0.59301942518E+02  0.49999997247E+02 0.  0.
        -12    1    1    2    0    0 -0.29421248406E+02  0.71873898895E+01  0.99725739157E+01  0.31886057482E+02  0.00000000000E+00 0.  1.
         11    1    3    3    0    0  0.18296674769E+01 -0.17442696828E+02  0.13958503638E+01  0.17593855581E+02  0.51100000000E-03 0. -1.
        -11    1    3    3    0    0  0.72414861756E+01 -0.93647475425E+01 -0.40021233194E+01  0.12496183813E+02  0.51100000000E-03 0.  1.
        -12    1    3    3    0    0  0.20350094754E+02  0.19620054481E+02 -0.73663009601E+01  0.29211903125E+02  0.00000000000E+00 0.  1.
</event>
<event>
 7    1  0.6841384E-013  0.5930202E+02  0.7816164E-02  0.1266604E+00
        -11   -1    0    0    0    0  0.00000000000E+00  0.00000000000E+00  0.45593999997E+02  0.45594000000E+02  0.51100000000E-03 0.  1.
         11   -1    0    0    0    0 -0.00000000000E+00 -0.00000000000E+00 -0.45593999997E+02  0.45594000000E+02  0.51100000000E-03 0. -1.
    9900012    2    1    2    0    0  0.11423966174E+02 -0.16882145742E+02 -0.24519415890E+02  0.59302021834E+02  0.50000141900E+02 0.  0.
        -12    1    1    2    0    0 -0.11423966174E+02  0.16882145742E+02  0.24519415890E+02  0.31885978166E+02  0.00000000000E+00 0.  1.
         11    1    3    3    0    0 -0.35666630640E+01  0.11689908185E+01 -0.15344127592E+02  0.15796514703E+02  0.51100000000E-03 0. -1.
        -11    1    3    3    0    0  0.17432654393E+02  0.58678816602E+01 -0.53804626709E+01  0.19164520687E+02  0.51100000000E-03 0.  1.
        -12    1    3    3    0    0 -0.24420251541E+01 -0.23919018221E+02 -0.37948256265E+01  0.24340986444E+02  0.00000000000E+00 0.  1.
</event>
<event>
 7    1  0.6841384E-013  0.5930195E+02  0.7816164E-02  0.1266605E+00
        -11   -1    0    0    0    0  0.00000000000E+00  0.00000000000E+00  0.45593999997E+02  0.45594000000E+02  0.51100000000E-03 0. -1.
         11   -1    0    0    0    0 -0.00000000000E+00 -0.00000000000E+00 -0.45593999997E+02  0.45594000000E+02  0.51100000000E-03 0.  1.
    9900012    2    1    2    0    0  0.44802024585E+01 -0.25544491119E+01  0.31466217914E+02  0.59301948282E+02  0.50000007759E+02 0.  0.
        -12    1    1    2    0    0 -0.44802024585E+01  0.25544491119E+01 -0.31466217914E+02  0.31886051718E+02  0.00000000000E+00 0.  1.
         11    1    3    3    0    0 -0.14531938727E+01  0.73483754559E+01 -0.67700793618E+01  0.10096750423E+02  0.51100000000E-03 0. -1.
        -11    1    3    3    0    0  0.15306802321E+02 -0.94486026418E+01  0.12756786401E+02  0.22052434984E+02  0.51100000000E-03 0.  1.
         12    1    3    3    0    0 -0.93734059894E+01 -0.45422192599E+00  0.25479510874E+02  0.27152762876E+02  0.00000000000E+00 0. -1.
</event>
<event>
 7    1  0.6841384E-013  0.5930184E+02  0.7816164E-02  0.1266605E+00
        -11   -1    0    0    0    0  0.00000000000E+00  0.00000000000E+00  0.45593999997E+02  0.45594000000E+02  0.51100000000E-03 0.  1.
         11   -1    0    0    0    0 -0.00000000000E+00 -0.00000000000E+00 -0.45593999997E+02  0.45594000000E+02  0.51100000000E-03 0. -1.
    9900012    2    1    2    0    0  0.26320770704E+02 -0.16738624287E+02 -0.66153313086E+01  0.59301841219E+02  0.49999812501E+02 0.  0.
        -12    1    1    2    0    0 -0.26320770704E+02  0.16738624287E+02  0.66153313086E+01  0.31886158781E+02  0.00000000000E+00 0.  1.
         11    1    3    3    0    0  0.18274661349E+01  0.72234495461E+01 -0.32594453873E+00  0.74581563354E+01  0.51100000000E-03 0. -1.
        -11    1    3    3    0    0 -0.96547570660E+01 -0.81313954056E+01 -0.65129074569E+01  0.14203939209E+02  0.51100000000E-03 0.  1.
         12    1    3    3    0    0  0.34148061635E+02 -0.15830678428E+02  0.22352068703E+00  0.37639745674E+02  0.00000000000E+00 0. -1.
</event>
<event>
 7    1  0.6841384E-013  0.5930194E+02  0.7816164E-02  0.1266605E+00
        -11   -1    0    0    0    0  0.00000000000E+00  0.00000000000E+00  0.45593999997E+02  0.45594000000E+02  0.51100000000E-03 0.  1.
         11   -1    0    0    0    0 -0.00000000000E+00 -0.00000000000E+00 -0.45593999997E+02  0.45594000000E+02  0.51100000000E-03 0. -1.
    9900012    2    1    2    0    0 -0.22260072734E+02 -0.11096482624E+02 -0.19951890212E+02  0.59301942110E+02  0.49999996502E+02 0.  0.
        -12    1    1    2    0    0  0.22260072734E+02  0.11096482624E+02  0.19951890212E+02  0.31886057890E+02  0.00000000000E+00 0.  1.
         11    1    3    3    0    0  0.82331501020E+00 -0.12203899500E+02 -0.17002731391E+02  0.20945307007E+02  0.51100000000E-03 0. -1.
        -11    1    3    3    0    0 -0.91927093152E+00 -0.11447595546E+02  0.36357851533E+01  0.12046220850E+02  0.51100000000E-03 0.  1.
        -12    1    3    3    0    0 -0.22164116812E+02  0.12555012422E+02 -0.65849439749E+01  0.26310414253E+02  0.00000000000E+00 0.  1.
</event>
<event>
 7    1  0.6841384E-013  0.5930192E+02  0.7816164E-02  0.1266605E+00
        -11   -1    0    0    0    0  0.00000000000E+00  0.00000000000E+00  0.45593999997E+02  0.45594000000E+02  0.51100000000E-03 0.  1.
         11   -1    0    0    0    0 -0.00000000000E+00 -0.00000000000E+00 -0.45593999997E+02  0.45594000000E+02  0.51100000000E-03 0. -1.
    9900012    2    1    2    0    0  0.12562302701E+02 -0.14900771015E+01 -0.29269270959E+02  0.59301921511E+02  0.49999958935E+02 0.  0.
        -12    1    1    2    0    0 -0.12562302701E+02  0.14900771015E+01  0.29269270959E+02  0.31886078489E+02  0.00000000000E+00 0.  1.
         11    1    3    3    0    0  0.64331485286E+01 -0.81838458578E+01 -0.24792743312E+02  0.26889419001E+02  0.51100000000E-03 0. -1.
        -11    1    3    3    0    0 -0.63526314255E+00  0.74502455639E+01 -0.16769466493E+02  0.18360956537E+02  0.51100000000E-03 0.  1.
        -12    1    3    3    0    0  0.67644173151E+01 -0.75647680757E+00  0.12292938846E+02  0.14051545973E+02  0.00000000000E+00 0.  1.
</event>
<event>
 7    1  0.6841384E-013  0.5930194E+02  0.7816164E-02  0.1266605E+00
        -11   -1    0    0    0    0  0.00000000000E+00  0.00000000000E+00  0.45593999997E+02  0.45594000000E+02  0.51100000000E-03 0.  1.
         11   -1    0    0    0    0 -0.00000000000E+00 -0.00000000000E+00 -0.45593999997E+02  0.45594000000E+02  0.51100000000E-03 0. -1.
    9900012    2    1    2    0    0 -0.48272805341E+01  0.17460220146E+02 -0.26240406080E+02  0.59301939784E+02  0.49999992260E+02 0.  0.
        -12    1    1    2    0    0  0.48272805341E+01 -0.17460220146E+02  0.26240406080E+02  0.31886060216E+02  0.00000000000E+00 0.  1.
         11    1    3    3    0    0 -0.63961064112E+01  0.99953715338E+01  0.75970745239E+01  0.14090179946E+02  0.51100000000E-03 0. -1.
        -11    1    3    3    0    0  0.50810089238E+00  0.10955319684E+02  0.21028599678E+00  0.10969111922E+02  0.51100000000E-03 0.  1.
         12    1    3    3    0    0  0.10607249847E+01 -0.34904710724E+01 -0.34047766600E+02  0.34242647915E+02  0.00000000000E+00 0. -1.
</event>
<event>
 7    1  0.6841384E-013  0.5930195E+02  0.7816164E-02  0.1266605E+00
        -11   -1    0    0    0    0  0.00000000000E+00  0.00000000000E+00  0.45593999997E+02  0.45594000000E+02  0.51100000000E-03 0.  1.
         11   -1    0    0    0    0 -0.00000000000E+00 -0.00000000000E+00 -0.45593999997E+02  0.45594000000E+02  0.51100000000E-03 0. -1.
    9900012    2    1    2    0    0 -0.65766546117E+01 -0.11559203619E+02 -0.28980212519E+02  0.59301948319E+02  0.50000007826E+02 0.  0.
        -12    1    1    2    0    0  0.65766546117E+01  0.11559203619E+02  0.28980212519E+02  0.31886051681E+02  0.00000000000E+00 0.  1.
         11    1    3    3    0    0 -0.80597411109E+01 -0.10946107156E+01 -0.36561458246E+02  0.37455277715E+02  0.51100000000E-03 0. -1.
        -11    1    3    3    0    0 -0.80037540610E+01 -0.44624471462E+01  0.23426007104E+01  0.94583979590E+01  0.51100000000E-03 0.  1.
        -12    1    3    3    0    0  0.94868405601E+01 -0.60021457571E+01  0.52386450165E+01  0.12388272644E+02  0.00000000000E+00 0.  1.
</event>
<event>
 7    1  0.6841384E-013  0.5930194E+02  0.7816164E-02  0.1266605E+00
        -11   -1    0    0    0    0  0.00000000000E+00  0.00000000000E+00  0.45593999997E+02  0.45594000000E+02  0.51100000000E-03 0.  1.
         11   -1    0    0    0    0 -0.00000000000E+00 -0.00000000000E+00 -0.45593999997E+02  0.45594000000E+02  0.51100000000E-03 0. -1.
    9900012    2    1    2    0    0 -0.35252093767E+01 -0.27945299519E+02 -0.14945032763E+02  0.59301939242E+02  0.49999991273E+02 0.  0.
        -12    1    1    2    0    0  0.35252093767E+01  0.27945299519E+02  0.14945032763E+02  0.31886060758E+02  0.00000000000E+00 0.  1.
         11    1    3    3    0    0 -0.11967324741E+02 -0.16618586269E+02 -0.21097725478E+02  0.29402521859E+02  0.51100000000E-03 0. -1.
        -11    1    3    3    0    0  0.97406653590E+01 -0.17177385995E+02 -0.19257954429E+01  0.19840661269E+02  0.51100000000E-03 0.  1.
        -12    1    3    3    0    0 -0.12985499948E+01  0.58506727447E+01  0.80784881581E+01  0.10058756115E+02  0.00000000000E+00 0.  1.
</event>
<event>
 7    1  0.6841384E-013  0.5930198E+02  0.7816164E-02  0.1266605E+00
        -11   -1    0    0    0    0  0.00000000000E+00  0.00000000000E+00  0.45593999997E+02  0.45594000000E+02  0.51100000000E-03 0.  1.
         11   -1    0    0    0    0 -0.00000000000E+00 -0.00000000000E+00 -0.45593999997E+02  0.45594000000E+02  0.51100000000E-03 0. -1.
    9900012    2    1    2    0    0  0.21194836527E+01  0.16636999189E+02 -0.27118926329E+02  0.59301982403E+02  0.50000069988E+02 0.  0.
        -12    1    1    2    0    0 -0.21194836527E+01 -0.16636999189E+02  0.27118926329E+02  0.31886017597E+02  0.00000000000E+00 0.  1.
         11    1    3    3    0    0 -0.49188998278E+01  0.99497929791E+01  0.32571398301E+00  0.11104055372E+02  0.51100000000E-03 0. -1.
        -11    1    3    3    0    0 -0.34343766815E+01 -0.49687888827E+01  0.76598803679E+01  0.97548743540E+01  0.51100000000E-03 0.  1.
         12    1    3    3    0    0  0.10472760162E+02  0.11655995092E+02 -0.35104520680E+02  0.38443052677E+02  0.00000000000E+00 0. -1.
</event>
<event>
 7    1  0.6841384E-013  0.5930195E+02  0.7816164E-02  0.1266605E+00
        -11   -1    0    0    0    0  0.00000000000E+00  0.00000000000E+00  0.45593999997E+02  0.45594000000E+02  0.51100000000E-03 0.  1.
         11   -1    0    0    0    0 -0.00000000000E+00 -0.00000000000E+00 -0.45593999997E+02  0.45594000000E+02  0.51100000000E-03 0. -1.
    9900012    2    1    2    0    0  0.19760630912E+02 -0.11367936243E+02 -0.22293670569E+02  0.59301948882E+02  0.50000008853E+02 0.  0.
        -12    1    1    2    0    0 -0.19760630912E+02  0.11367936243E+02  0.22293670569E+02  0.31886051118E+02  0.00000000000E+00 0.  1.
         11    1    3    3    0    0 -0.82971816883E+01  0.54059919922E+01 -0.59672994159E+00  0.99208900947E+01  0.51100000000E-03 0. -1.
        -11    1    3    3    0    0  0.69473544721E+00 -0.16974518023E+02 -0.87250008833E+01  0.19098234476E+02  0.51100000000E-03 0.  1.
         12    1    3    3    0    0  0.27363077153E+02  0.20058978691E+00 -0.12971939744E+02  0.30282824311E+02  0.00000000000E+00 0. -1.
</event>
<event>
 7    1  0.6841384E-013  0.5930199E+02  0.7816164E-02  0.1266605E+00
        -11   -1    0    0    0    0  0.00000000000E+00  0.00000000000E+00  0.45593999997E+02  0.45594000000E+02  0.51100000000E-03 0. -1.
         11   -1    0    0    0    0 -0.00000000000E+00 -0.00000000000E+00 -0.45593999997E+02  0.45594000000E+02  0.51100000000E-03 0.  1.
    9900012    2    1    2    0    0 -0.19340252761E+02 -0.20858555909E+02  0.14408078291E+02  0.59301992857E+02  0.50000089053E+02 0.  0.
        -12    1    1    2    0    0  0.19340252761E+02  0.20858555909E+02 -0.14408078291E+02  0.31886007143E+02  0.00000000000E+00 0.  1.
         11    1    3    3    0    0  0.10157609313E+02  0.91510303117E+01  0.49538175588E+01  0.14541619284E+02  0.51100000000E-03 0.  1.
        -11    1    3    3    0    0  0.67056066804E+00 -0.63377992418E+00  0.17146447210E+01  0.19471351730E+01  0.51100000000E-03 0. -1.
         12    1    3    3    0    0 -0.30168422742E+02 -0.29375806297E+02  0.77396160109E+01  0.42813238400E+02  0.00000000000E+00 0. -1.
</event>
<event>
 7    1  0.6841384E-013  0.5930194E+02  0.7816164E-02  0.1266605E+00
        -11   -1    0    0    0    0  0.00000000000E+00  0.00000000000E+00  0.45593999997E+02  0.45594000000E+02  0.51100000000E-03 0. -1.
         11   -1    0    0    0    0 -0.00000000000E+00 -0.00000000000E+00 -0.45593999997E+02  0.45594000000E+02  0.51100000000E-03 0.  1.
    9900012    2    1    2    0    0 -0.31264570873E+02 -0.50690081984E+01 -0.36814149714E+01  0.59301936396E+02  0.49999986082E+02 0.  0.
        -12    1    1    2    0    0  0.31264570873E+02  0.50690081984E+01  0.36814149714E+01  0.31886063604E+02  0.00000000000E+00 0.  1.
         11    1    3    3    0    0 -0.92130424014E+01 -0.29519526908E+01  0.16160923419E+02  0.18835329065E+02  0.51100000000E-03 0. -1.
        -11    1    3    3    0    0  0.13090285811E+01 -0.99515588086E+01 -0.25237882725E+01  0.10349714298E+02  0.51100000000E-03 0.  1.
        -12    1    3    3    0    0 -0.23360557052E+02  0.78345033010E+01 -0.17318550118E+02  0.30116893033E+02  0.00000000000E+00 0.  1.
</event>
<event>
 7    1  0.6841384E-013  0.5930196E+02  0.7816164E-02  0.1266605E+00
        -11   -1    0    0    0    0  0.00000000000E+00  0.00000000000E+00  0.45593999997E+02  0.45594000000E+02  0.51100000000E-03 0.  1.
         11   -1    0    0    0    0 -0.00000000000E+00 -0.00000000000E+00 -0.45593999997E+02  0.45594000000E+02  0.51100000000E-03 0. -1.
    9900012    2    1    2    0    0  0.28122022931E+02 -0.13513810392E+02 -0.65763683030E+01  0.59301955010E+02  0.50000020029E+02 0.  0.
        -12    1    1    2    0    0 -0.28122022931E+02  0.13513810392E+02  0.65763683030E+01  0.31886044990E+02  0.00000000000E+00 0.  1.
         11    1    3    3    0    0  0.11728325570E+02  0.96404536509E+01  0.73944157671E+01  0.16886958047E+02  0.51100000000E-03 0. -1.
        -11    1    3    3    0    0  0.93249405533E+00 -0.16875759193E+02  0.45321417420E+01  0.17498602874E+02  0.51100000000E-03 0.  1.
         12    1    3    3    0    0  0.15461203306E+02 -0.62785048499E+01 -0.18502925812E+02  0.24916394089E+02  0.00000000000E+00 0. -1.
</event>
<event>
 7    1  0.6841384E-013  0.5930194E+02  0.7816164E-02  0.1266605E+00
        -11   -1    0    0    0    0  0.00000000000E+00  0.00000000000E+00  0.45593999997E+02  0.45594000000E+02  0.51100000000E-03 0.  1.
         11   -1    0    0    0    0 -0.00000000000E+00 -0.00000000000E+00 -0.45593999997E+02  0.45594000000E+02  0.51100000000E-03 0. -1.
    9900012    2    1    2    0    0 -0.29714297123E+02  0.93004821195E+01 -0.68762116482E+01  0.59301941795E+02  0.49999995929E+02 0.  0.
        -12    1    1    2    0    0  0.29714297123E+02 -0.93004821195E+01  0.68762116482E+01  0.31886058205E+02  0.00000000000E+00 0.  1.
         11    1    3    3    0    0 -0.24963398275E+01  0.18496364006E+02 -0.40659224632E+00  0.18668489802E+02  0.51100000000E-03 0. -1.
        -11    1    3    3    0    0 -0.58095796316E+01  0.98115260623E+01 -0.66234964345E+00  0.11421732201E+02  0.51100000000E-03 0.  1.
         12    1    3    3    0    0 -0.21408377664E+02 -0.19007407949E+02 -0.58072697585E+01  0.29211719792E+02  0.00000000000E+00 0. -1.
</event>
<event>
 7    1  0.6841384E-013  0.5930194E+02  0.7816164E-02  0.1266605E+00
        -11   -1    0    0    0    0  0.00000000000E+00  0.00000000000E+00  0.45593999997E+02  0.45594000000E+02  0.51100000000E-03 0. -1.
         11   -1    0    0    0    0 -0.00000000000E+00 -0.00000000000E+00 -0.45593999997E+02  0.45594000000E+02  0.51100000000E-03 0.  1.
    9900012    2    1    2    0    0 -0.69476125409E+01  0.93339596096E+01  0.29687184842E+02  0.59301936182E+02  0.49999985690E+02 0.  0.
        -12    1    1    2    0    0  0.69476125409E+01 -0.93339596096E+01 -0.29687184842E+02  0.31886063818E+02  0.00000000000E+00 0.  1.
         11    1    3    3    0    0 -0.17367468310E+02 -0.97810711670E+01  0.17624721382E+02  0.26606937304E+02  0.51100000000E-03 0. -1.
        -11    1    3    3    0    0 -0.42428591824E+01 -0.15979833065E+01  0.40588174386E+01  0.60851790401E+01  0.51100000000E-03 0.  1.
        -12    1    3    3    0    0  0.14662714951E+02  0.20713014083E+02  0.80036460215E+01  0.26609819837E+02  0.00000000000E+00 0.  1.
</event>
<event>
 7    1  0.6841384E-013  0.5930194E+02  0.7816164E-02  0.1266605E+00
        -11   -1    0    0    0    0  0.00000000000E+00  0.00000000000E+00  0.45593999997E+02  0.45594000000E+02  0.51100000000E-03 0.  1.
         11   -1    0    0    0    0 -0.00000000000E+00 -0.00000000000E+00 -0.45593999997E+02  0.45594000000E+02  0.51100000000E-03 0. -1.
    9900012    2    1    2    0    0  0.12658359145E+02  0.78134720937E+01 -0.28203480989E+02  0.59301941254E+02  0.49999994942E+02 0.  0.
        -12    1    1    2    0    0 -0.12658359145E+02 -0.78134720937E+01  0.28203480989E+02  0.31886058746E+02  0.00000000000E+00 0.  1.
         11    1    3    3    0    0  0.19836255839E+02  0.35811369956E+01 -0.21747237662E+02  0.29652047721E+02  0.51100000000E-03 0. -1.
        -11    1    3    3    0    0  0.99166482258E+01  0.16920262606E+01 -0.71688476681E+01  0.12352944671E+02  0.51100000000E-03 0.  1.
        -12    1    3    3    0    0 -0.17094544919E+02  0.25403088376E+01  0.71260434063E+00  0.17296948862E+02  0.00000000000E+00 0.  1.
</event>
<event>
 7    1  0.6841384E-013  0.5930193E+02  0.7816164E-02  0.1266605E+00
        -11   -1    0    0    0    0  0.00000000000E+00  0.00000000000E+00  0.45593999997E+02  0.45594000000E+02  0.51100000000E-03 0. -1.
         11   -1    0    0    0    0 -0.00000000000E+00 -0.00000000000E+00 -0.45593999997E+02  0.45594000000E+02  0.51100000000E-03 0.  1.
    9900012    2    1    2    0    0 -0.11162372138E+02 -0.95820699556E+00  0.29853057487E+02  0.59301925395E+02  0.49999966019E+02 0.  0.
        -12    1    1    2    0    0  0.11162372138E+02  0.95820699556E+00 -0.29853057487E+02  0.31886074605E+02  0.00000000000E+00 0.  1.
         11    1    3    3    0    0  0.29852405472E+01  0.50341966180E+00 -0.37289643006E+01  0.48031518295E+01  0.51100000000E-03 0.  1.
        -11    1    3    3    0    0 -0.12069191963E+02 -0.12946378222E+02 -0.12693730054E+01  0.17745010898E+02  0.51100000000E-03 0. -1.
        -12    1    3    3    0    0 -0.20784207223E+01  0.11484751564E+02  0.34851394793E+02  0.36753762667E+02  0.00000000000E+00 0.  1.
</event>
<event>
 7    1  0.6841384E-013  0.5930198E+02  0.7816164E-02  0.1266605E+00
        -11   -1    0    0    0    0  0.00000000000E+00  0.00000000000E+00  0.45593999997E+02  0.45594000000E+02  0.51100000000E-03 0. -1.
         11   -1    0    0    0    0 -0.00000000000E+00 -0.00000000000E+00 -0.45593999997E+02  0.45594000000E+02  0.51100000000E-03 0.  1.
    9900012    2    1    2    0    0  0.20524093744E+02 -0.23845538081E+02  0.51836336452E+01  0.59301981620E+02  0.50000068559E+02 0.  0.
        -12    1    1    2    0    0 -0.20524093744E+02  0.23845538081E+02 -0.51836336452E+01  0.31886018380E+02  0.00000000000E+00 0.  1.
         11    1    3    3    0    0  0.38595099704E+01  0.77943337057E-01  0.52286280011E+01  0.64992648361E+01  0.51100000000E-03 0. -1.
        -11    1    3    3    0    0  0.28999283540E+02 -0.94521561198E+01 -0.89770570118E+01  0.31794484647E+02  0.51100000000E-03 0.  1.
        -12    1    3    3    0    0 -0.12334699766E+02 -0.14471325298E+02  0.89320626559E+01  0.21008232137E+02  0.00000000000E+00 0.  1.
</event>
<event>
 7    1  0.6841384E-013  0.5930182E+02  0.7816164E-02  0.1266605E+00
        -11   -1    0    0    0    0  0.00000000000E+00  0.00000000000E+00  0.45593999997E+02  0.45594000000E+02  0.51100000000E-03 0.  1.
         11   -1    0    0    0    0 -0.00000000000E+00 -0.00000000000E+00 -0.45593999997E+02  0.45594000000E+02  0.51100000000E-03 0. -1.
    9900012    2    1    2    0    0  0.31689528205E+01  0.28880220475E+02 -0.13138466904E+02  0.59301816327E+02  0.49999767104E+02 0.  0.
        -12    1    1    2    0    0 -0.31689528205E+01 -0.28880220475E+02  0.13138466904E+02  0.31886183673E+02  0.00000000000E+00 0.  1.
         11    1    3    3    0    0 -0.59410271601E+01 -0.97195034755E+00 -0.28177151469E+01  0.66468045033E+01  0.51100000000E-03 0. -1.
        -11    1    3    3    0    0 -0.10962594618E+02 -0.38157395795E+01  0.15234274663E+01  0.11707227716E+02  0.51100000000E-03 0.  1.
        -12    1    3    3    0    0  0.20072574598E+02  0.33667910402E+02 -0.11844179224E+02  0.40947784107E+02  0.00000000000E+00 0.  1.
</event>
<event>
 7    1  0.6841384E-013  0.5930201E+02  0.7816164E-02  0.1266605E+00
        -11   -1    0    0    0    0  0.00000000000E+00  0.00000000000E+00  0.45593999997E+02  0.45594000000E+02  0.51100000000E-03 0. -1.
         11   -1    0    0    0    0 -0.00000000000E+00 -0.00000000000E+00 -0.45593999997E+02  0.45594000000E+02  0.51100000000E-03 0.  1.
    9900012    2    1    2    0    0 -0.23622254347E+02  0.14102628790E+01  0.21370933950E+02  0.59302006842E+02  0.50000114557E+02 0.  0.
        -12    1    1    2    0    0  0.23622254347E+02 -0.14102628790E+01 -0.21370933950E+02  0.31885993158E+02  0.00000000000E+00 0.  1.
         11    1    3    3    0    0  0.48251805913E+01  0.79220392906E+01  0.41152925060E+01  0.10147743933E+02  0.51100000000E-03 0. -1.
        -11    1    3    3    0    0 -0.88949081636E+01  0.12776834393E+02 -0.18782432726E+01  0.15681029507E+02  0.51100000000E-03 0.  1.
         12    1    3    3    0    0 -0.19552526775E+02 -0.19288610804E+02  0.19133884716E+02  0.33473233402E+02  0.00000000000E+00 0. -1.
</event>
<event>
 7    1  0.6841384E-013  0.5930193E+02  0.7816164E-02  0.1266605E+00
        -11   -1    0    0    0    0  0.00000000000E+00  0.00000000000E+00  0.45593999997E+02  0.45594000000E+02  0.51100000000E-03 0. -1.
         11   -1    0    0    0    0 -0.00000000000E+00 -0.00000000000E+00 -0.45593999997E+02  0.45594000000E+02  0.51100000000E-03 0.  1.
    9900012    2    1    2    0    0  0.35298962267E+01  0.24486957260E+02  0.20115925605E+02  0.59301926140E+02  0.49999967378E+02 0.  0.
        -12    1    1    2    0    0 -0.35298962267E+01 -0.24486957260E+02 -0.20115925605E+02  0.31886073860E+02  0.00000000000E+00 0.  1.
         11    1    3    3    0    0  0.10111315810E+02  0.14365451097E+02  0.23724598572E+02  0.29520526254E+02  0.51100000000E-03 0. -1.
        -11    1    3    3    0    0  0.42781749730E+01  0.78846446335E+01  0.91938181309E+01  0.12845103899E+02  0.51100000000E-03 0.  1.
        -12    1    3    3    0    0 -0.10859594556E+02  0.22368615297E+01 -0.12802491098E+02  0.16936295987E+02  0.00000000000E+00 0.  1.
</event>
<event>
 7    1  0.6841384E-013  0.5930194E+02  0.7816164E-02  0.1266605E+00
        -11   -1    0    0    0    0  0.00000000000E+00  0.00000000000E+00  0.45593999997E+02  0.45594000000E+02  0.51100000000E-03 0.  1.
         11   -1    0    0    0    0 -0.00000000000E+00 -0.00000000000E+00 -0.45593999997E+02  0.45594000000E+02  0.51100000000E-03 0. -1.
    9900012    2    1    2    0    0 -0.29535846810E+02  0.99816428270E+01 -0.66873896956E+01  0.59301943153E+02  0.49999998405E+02 0.  0.
        -12    1    1    2    0    0  0.29535846810E+02 -0.99816428270E+01  0.66873896956E+01  0.31886056847E+02  0.00000000000E+00 0.  1.
         11    1    3    3    0    0 -0.45322187239E+01 -0.81169514114E+01  0.21058235596E+01  0.95320721725E+01  0.51100000000E-03 0. -1.
        -11    1    3    3    0    0 -0.97574998864E+01 -0.80291432124E+01  0.82089685844E+01  0.15068613415E+02  0.51100000000E-03 0.  1.
        -12    1    3    3    0    0 -0.15246128199E+02  0.26127737451E+02 -0.17002181840E+02  0.34701257566E+02  0.00000000000E+00 0.  1.
</event>
<event>
 7    1  0.6841384E-013  0.5930196E+02  0.7816164E-02  0.1266605E+00
        -11   -1    0    0    0    0  0.00000000000E+00  0.00000000000E+00  0.45593999997E+02  0.45594000000E+02  0.51100000000E-03 0. -1.
         11   -1    0    0    0    0 -0.00000000000E+00 -0.00000000000E+00 -0.45593999997E+02  0.45594000000E+02  0.51100000000E-03 0.  1.
    9900012    2    1    2    0    0 -0.23218730741E+02  0.14158345491E+02 -0.16647853960E+02  0.59301964722E+02  0.50000037742E+02 0.  0.
        -12    1    1    2    0    0  0.23218730741E+02 -0.14158345491E+02  0.16647853960E+02  0.31886035278E+02  0.00000000000E+00 0.  1.
         11    1    3    3    0    0 -0.18021334606E+02  0.84523124125E+01  0.66012871923E+01  0.20971101043E+02  0.51100000000E-03 0. -1.
        -11    1    3    3    0    0  0.96064559408E+01  0.10760853590E+02 -0.80465539393E+01  0.16517475482E+02  0.51100000000E-03 0.  1.
         12    1    3    3    0    0 -0.14803852075E+02 -0.50548205116E+01 -0.15202587213E+02  0.21813388197E+02  0.00000000000E+00 0. -1.
</event>
<event>
 7    1  0.6841384E-013  0.5930191E+02  0.7816164E-02  0.1266605E+00
        -11   -1    0    0    0    0  0.00000000000E+00  0.00000000000E+00  0.45593999997E+02  0.45594000000E+02  0.51100000000E-03 0.  1.
         11   -1    0    0    0    0 -0.00000000000E+00 -0.00000000000E+00 -0.45593999997E+02  0.45594000000E+02  0.51100000000E-03 0. -1.
    9900012    2    1    2    0    0  0.30864138287E+01 -0.31454757060E+01 -0.31580097531E+02  0.59301913257E+02  0.49999943882E+02 0.  0.
        -12    1    1    2    0    0 -0.30864138287E+01  0.31454757060E+01  0.31580097531E+02  0.31886086743E+02  0.00000000000E+00 0.  1.
         11    1    3    3    0    0 -0.10439615671E+02  0.91099543209E+01 -0.89279196915E+01  0.16482857561E+02  0.51100000000E-03 0. -1.
        -11    1    3    3    0    0  0.57187676335E+01 -0.44172429964E+01  0.76723639204E+01  0.10539521209E+02  0.51100000000E-03 0.  1.
         12    1    3    3    0    0  0.78072618663E+01 -0.78381870305E+01 -0.30324541759E+02  0.32279534487E+02  0.00000000000E+00 0. -1.
</event>
<event>
 7    1  0.6841384E-013  0.5930193E+02  0.7816164E-02  0.1266605E+00
        -11   -1    0    0    0    0  0.00000000000E+00  0.00000000000E+00  0.45593999997E+02  0.45594000000E+02  0.51100000000E-03 0. -1.
         11   -1    0    0    0    0 -0.00000000000E+00 -0.00000000000E+00 -0.45593999997E+02  0.45594000000E+02  0.51100000000E-03 0.  1.
    9900012    2    1    2    0    0  0.75286846980E+01  0.24738453803E+00  0.30983531541E+02  0.59301929074E+02  0.49999972727E+02 0.  0.
        -12    1    1    2    0    0 -0.75286846980E+01 -0.24738453803E+00 -0.30983531541E+02  0.31886070926E+02  0.00000000000E+00 0.  1.
         11    1    3    3    0    0 -0.60737168656E+01  0.73146356049E+01  0.10524266143E+02  0.14182880832E+02  0.51100000000E-03 0. -1.
        -11    1    3    3    0    0  0.36439732415E+00 -0.18594022542E+02  0.20346776954E+02  0.27565590732E+02  0.51100000000E-03 0.  1.
        -12    1    3    3    0    0  0.13238004240E+02  0.11526771475E+02  0.11248844384E+00  0.17553457510E+02  0.00000000000E+00 0.  1.
</event>
<event>
 7    1  0.6841384E-013  0.5930195E+02  0.7816164E-02  0.1266605E+00
        -11   -1    0    0    0    0  0.00000000000E+00  0.00000000000E+00  0.45593999997E+02  0.45594000000E+02  0.51100000000E-03 0.  1.
         11   -1    0    0    0    0 -0.00000000000E+00 -0.00000000000E+00 -0.45593999997E+02  0.45594000000E+02  0.51100000000E-03 0. -1.
    9900012    2    1    2    0    0  0.20780526306E+02 -0.16281120871E+02 -0.17883376057E+02  0.59301948041E+02  0.50000007319E+02 0.  0.
        -12    1    1    2    0    0 -0.20780526306E+02  0.16281120871E+02  0.17883376057E+02  0.31886051959E+02  0.00000000000E+00 0.  1.
         11    1    3    3    0    0  0.16730874664E+02 -0.94682742548E+01 -0.24032746333E+02  0.30775693022E+02  0.51100000000E-03 0. -1.
        -11    1    3    3    0    0 -0.60986787152E+01  0.30731342724E+01 -0.65775542657E+01  0.94816800572E+01  0.51100000000E-03 0.  1.
        -12    1    3    3    0    0  0.10148330356E+02 -0.98859808888E+01  0.12726924542E+02  0.19044574961E+02  0.00000000000E+00 0.  1.
</event>
<event>
 7    1  0.6841384E-013  0.5930195E+02  0.7816164E-02  0.1266605E+00
        -11   -1    0    0    0    0  0.00000000000E+00  0.00000000000E+00  0.45593999997E+02  0.45594000000E+02  0.51100000000E-03 0. -1.
         11   -1    0    0    0    0 -0.00000000000E+00 -0.00000000000E+00 -0.45593999997E+02  0.45594000000E+02  0.51100000000E-03 0.  1.
    9900012    2    1    2    0    0 -0.25316758725E+01  0.25217942618E+02  0.19348546898E+02  0.59301948510E+02  0.50000008174E+02 0.  0.
        -12    1    1    2    0    0  0.25316758725E+01 -0.25217942618E+02 -0.19348546898E+02  0.31886051490E+02  0.00000000000E+00 0.  1.
         11    1    3    3    0    0 -0.18630429313E+02  0.11152398393E+02  0.10993863452E+02  0.24337911171E+02  0.51100000000E-03 0.  1.
        -11    1    3    3    0    0  0.12577043276E+02  0.13577698943E+00  0.14623025180E+02  0.19288165248E+02  0.51100000000E-03 0. -1.
         12    1    3    3    0    0  0.35217101649E+01  0.13929767235E+02 -0.62683417344E+01  0.15675872091E+02  0.00000000000E+00 0. -1.
</event>
<event>
 7    1  0.6841384E-013  0.5930196E+02  0.7816164E-02  0.1266605E+00
        -11   -1    0    0    0    0  0.00000000000E+00  0.00000000000E+00  0.45593999997E+02  0.45594000000E+02  0.51100000000E-03 0. -1.
         11   -1    0    0    0    0 -0.00000000000E+00 -0.00000000000E+00 -0.45593999997E+02  0.45594000000E+02  0.51100000000E-03 0.  1.
    9900012    2    1    2    0    0  0.10491450011E+02  0.25338946096E+02 -0.16266126458E+02  0.59301959441E+02  0.50000028110E+02 0.  0.
        -12    1    1    2    0    0 -0.10491450011E+02 -0.25338946096E+02  0.16266126458E+02  0.31886040559E+02  0.00000000000E+00 0.  1.
         11    1    3    3    0    0  0.12181551828E+02  0.79900661253E+01 -0.22010636660E+02  0.26395065600E+02  0.51100000000E-03 0.  1.
        -11    1    3    3    0    0 -0.19301921916E+01 -0.42681385433E+01  0.98454552318E+01  0.10903010479E+02  0.51100000000E-03 0. -1.
         12    1    3    3    0    0  0.24009037493E+00  0.21617018514E+02 -0.41009450298E+01  0.22003883361E+02  0.00000000000E+00 0. -1.
</event>
<event>
 7    1  0.6841384E-013  0.5930194E+02  0.7816164E-02  0.1266605E+00
        -11   -1    0    0    0    0  0.00000000000E+00  0.00000000000E+00  0.45593999997E+02  0.45594000000E+02  0.51100000000E-03 0.  1.
         11   -1    0    0    0    0 -0.00000000000E+00 -0.00000000000E+00 -0.45593999997E+02  0.45594000000E+02  0.51100000000E-03 0. -1.
    9900012    2    1    2    0    0  0.98686249174E+01 -0.30314468024E+02 -0.60316489953E+00  0.59301944470E+02  0.50000000807E+02 0.  0.
        -12    1    1    2    0    0 -0.98686249174E+01  0.30314468024E+02  0.60316489953E+00  0.31886055530E+02  0.00000000000E+00 0.  1.
         11    1    3    3    0    0 -0.94954643426E+01 -0.22539445921E+01 -0.80311277410E+01  0.12638952582E+02  0.51100000000E-03 0. -1.
        -11    1    3    3    0    0  0.66984568288E+01 -0.27113093726E+02 -0.55826712938E+01  0.28480789917E+02  0.51100000000E-03 0.  1.
        -12    1    3    3    0    0  0.12665632431E+02 -0.94742970645E+00  0.13010634135E+02  0.18182201972E+02  0.00000000000E+00 0.  1.
</event>
<event>
 7    1  0.6841384E-013  0.5930196E+02  0.7816164E-02  0.1266605E+00
        -11   -1    0    0    0    0  0.00000000000E+00  0.00000000000E+00  0.45593999997E+02  0.45594000000E+02  0.51100000000E-03 0.  1.
         11   -1    0    0    0    0 -0.00000000000E+00 -0.00000000000E+00 -0.45593999997E+02  0.45594000000E+02  0.51100000000E-03 0. -1.
    9900012    2    1    2    0    0 -0.25948931044E+01 -0.14646695530E+02 -0.28203912230E+02  0.59301955635E+02  0.50000021169E+02 0.  0.
        -12    1    1    2    0    0  0.25948931044E+01  0.14646695530E+02  0.28203912230E+02  0.31886044365E+02  0.00000000000E+00 0.  1.
         11    1    3    3    0    0 -0.25043644593E+02 -0.55464947674E+01 -0.14001528227E+02  0.29223116392E+02  0.51100000000E-03 0. -1.
        -11    1    3    3    0    0 -0.55858020524E+00 -0.87513805595E+00  0.88368091442E+00  0.13633674055E+01  0.51100000000E-03 0.  1.
         12    1    3    3    0    0  0.23007331694E+02 -0.82250627063E+01 -0.15086064917E+02  0.28715471838E+02  0.00000000000E+00 0. -1.
</event>
<event>
 7    1  0.6841384E-013  0.5930192E+02  0.7816164E-02  0.1266605E+00
        -11   -1    0    0    0    0  0.00000000000E+00  0.00000000000E+00  0.45593999997E+02  0.45594000000E+02  0.51100000000E-03 0. -1.
         11   -1    0    0    0    0 -0.00000000000E+00 -0.00000000000E+00 -0.45593999997E+02  0.45594000000E+02  0.51100000000E-03 0.  1.
    9900012    2    1    2    0    0  0.11913649846E+02 -0.17359638582E+02  0.23946404365E+02  0.59301915474E+02  0.49999947925E+02 0.  0.
        -12    1    1    2    0    0 -0.11913649846E+02  0.17359638582E+02 -0.23946404365E+02  0.31886084526E+02  0.00000000000E+00 0.  1.
         11    1    3    3    0    0  0.57750931305E+01 -0.23789652081E+01 -0.96974672822E-01  0.62466455378E+01  0.51100000000E-03 0. -1.
        -11    1    3    3    0    0  0.22693775926E+02 -0.55335866277E+01  0.13199855025E+01  0.23395948554E+02  0.51100000000E-03 0.  1.
        -12    1    3    3    0    0 -0.16555219210E+02 -0.94470867460E+01  0.22723393536E+02  0.29659321383E+02  0.00000000000E+00 0.  1.
</event>
<event>
 7    1  0.6841384E-013  0.5930195E+02  0.7816164E-02  0.1266605E+00
        -11   -1    0    0    0    0  0.00000000000E+00  0.00000000000E+00  0.45593999997E+02  0.45594000000E+02  0.51100000000E-03 0.  1.
         11   -1    0    0    0    0 -0.00000000000E+00 -0.00000000000E+00 -0.45593999997E+02  0.45594000000E+02  0.51100000000E-03 0. -1.
    9900012    2    1    2    0    0  0.12866991477E+02  0.26182110559E+01 -0.29056938550E+02  0.59301950124E+02  0.50000011118E+02 0.  0.
        -12    1    1    2    0    0 -0.12866991477E+02 -0.26182110559E+01  0.29056938550E+02  0.31886049876E+02  0.00000000000E+00 0.  1.
         11    1    3    3    0    0 -0.51437776532E+01  0.15013663173E+02 -0.12328408264E+02  0.20096223053E+02  0.51100000000E-03 0. -1.
        -11    1    3    3    0    0 -0.10250679919E+01  0.63501214923E+01 -0.95983265026E+01  0.11554335951E+02  0.51100000000E-03 0.  1.
         12    1    3    3    0    0  0.19035837122E+02 -0.18745573609E+02 -0.71302037839E+01  0.27651391120E+02  0.00000000000E+00 0. -1.
</event>
<event>
 7    1  0.6841384E-013  0.5930195E+02  0.7816164E-02  0.1266605E+00
        -11   -1    0    0    0    0  0.00000000000E+00  0.00000000000E+00  0.45593999997E+02  0.45594000000E+02  0.51100000000E-03 0. -1.
         11   -1    0    0    0    0 -0.00000000000E+00 -0.00000000000E+00 -0.45593999997E+02  0.45594000000E+02  0.51100000000E-03 0.  1.
    9900012    2    1    2    0    0 -0.16890989470E+02 -0.17919773920E+02  0.20255776066E+02  0.59301948400E+02  0.50000007973E+02 0.  0.
        -12    1    1    2    0    0  0.16890989470E+02  0.17919773920E+02 -0.20255776066E+02  0.31886051600E+02  0.00000000000E+00 0.  1.
         11    1    3    3    0    0 -0.14375243614E+02 -0.11418858534E+02  0.11142861372E+02  0.21475598222E+02  0.51100000000E-03 0. -1.
        -11    1    3    3    0    0 -0.18513138563E+02 -0.70270814392E+01  0.91654705714E+01  0.21820220532E+02  0.51100000000E-03 0.  1.
        -12    1    3    3    0    0  0.15997392706E+02  0.52616605330E+00 -0.52555877045E-01  0.16006129646E+02  0.00000000000E+00 0.  1.
</event>
<event>
 7    1  0.6841384E-013  0.5930196E+02  0.7816164E-02  0.1266605E+00
        -11   -1    0    0    0    0  0.00000000000E+00  0.00000000000E+00  0.45593999997E+02  0.45594000000E+02  0.51100000000E-03 0. -1.
         11   -1    0    0    0    0 -0.00000000000E+00 -0.00000000000E+00 -0.45593999997E+02  0.45594000000E+02  0.51100000000E-03 0.  1.
    9900012    2    1    2    0    0 -0.10859428001E+02  0.20729365902E+02  0.21658381774E+02  0.59301964056E+02  0.50000036526E+02 0.  0.
        -12    1    1    2    0    0  0.10859428001E+02 -0.20729365902E+02 -0.21658381774E+02  0.31886035944E+02  0.00000000000E+00 0.  1.
         11    1    3    3    0    0 -0.30393197638E+00  0.23427553019E+02  0.27598934866E+02  0.36202815099E+02  0.51100000000E-03 0. -1.
        -11    1    3    3    0    0 -0.80477671291E+00  0.72861942037E+01 -0.54504359381E+01  0.91347437681E+01  0.51100000000E-03 0.  1.
        -12    1    3    3    0    0 -0.97507193113E+01 -0.99843813209E+01 -0.49011715402E+00  0.13964405189E+02  0.00000000000E+00 0.  1.
</event>
<event>
 7    1  0.6841384E-013  0.5930196E+02  0.7816164E-02  0.1266605E+00
        -11   -1    0    0    0    0  0.00000000000E+00  0.00000000000E+00  0.45593999997E+02  0.45594000000E+02  0.51100000000E-03 0. -1.
         11   -1    0    0    0    0 -0.00000000000E+00 -0.00000000000E+00 -0.45593999997E+02  0.45594000000E+02  0.51100000000E-03 0.  1.
    9900012    2    1    2    0    0  0.41244794932E+01  0.90525093553E+01  0.30294560991E+02  0.59301957876E+02  0.50000025255E+02 0.  0.
        -12    1    1    2    0    0 -0.41244794932E+01 -0.90525093553E+01 -0.30294560991E+02  0.31886042124E+02  0.00000000000E+00 0.  1.
         11    1    3    3    0    0 -0.37061264619E+01  0.21441112287E+01  0.16311526338E+02  0.16864118063E+02  0.51100000000E-03 0. -1.
        -11    1    3    3    0    0 -0.95159676022E+01 -0.11296228199E+02  0.34043982833E+01  0.15157451595E+02  0.51100000000E-03 0.  1.
         12    1    3    3    0    0  0.17346573557E+02  0.18204626326E+02  0.10578636369E+02  0.27280388217E+02  0.00000000000E+00 0. -1.
</event>
<event>
 7    1  0.6841384E-013  0.5930186E+02  0.7816164E-02  0.1266605E+00
        -11   -1    0    0    0    0  0.00000000000E+00  0.00000000000E+00  0.45593999997E+02  0.45594000000E+02  0.51100000000E-03 0. -1.
         11   -1    0    0    0    0 -0.00000000000E+00 -0.00000000000E+00 -0.45593999997E+02  0.45594000000E+02  0.51100000000E-03 0.  1.
    9900012    2    1    2    0    0  0.12333063512E+02 -0.95792200765E+00  0.29388835372E+02  0.59301863283E+02  0.49999852741E+02 0.  0.
        -12    1    1    2    0    0 -0.12333063512E+02  0.95792200765E+00 -0.29388835372E+02  0.31886136717E+02  0.00000000000E+00 0.  1.
         11    1    3    3    0    0  0.17215807096E+02 -0.42081366511E+01  0.18121599743E+01  0.17815059699E+02  0.51100000000E-03 0. -1.
        -11    1    3    3    0    0  0.12511631291E+02  0.42390692874E+01  0.15068817741E+02  0.20039458435E+02  0.51100000000E-03 0.  1.
         12    1    3    3    0    0 -0.17394374875E+02 -0.98885464392E+00  0.12507857657E+02  0.21447345150E+02  0.00000000000E+00 0. -1.
</event>
<event>
 7    1  0.6841384E-013  0.5930194E+02  0.7816164E-02  0.1266605E+00
        -11   -1    0    0    0    0  0.00000000000E+00  0.00000000000E+00  0.45593999997E+02  0.45594000000E+02  0.51100000000E-03 0.  1.
         11   -1    0    0    0    0 -0.00000000000E+00 -0.00000000000E+00 -0.45593999997E+02  0.45594000000E+02  0.51100000000E-03 0. -1.
    9900012    2    1    2    0    0 -0.37091071614E+01 -0.14279816201E+02 -0.28267477847E+02  0.59301938304E+02  0.49999989561E+02 0.  0.
        -12    1    1    2    0    0  0.37091071614E+01  0.14279816201E+02  0.28267477847E+02  0.31886061696E+02  0.00000000000E+00 0.  1.
         11    1    3    3    0    0 -0.50450198016E+01  0.76397887530E+00  0.12911402075E+01  0.52633574662E+01  0.51100000000E-03 0. -1.
        -11    1    3    3    0    0  0.91364393273E+01  0.77717688438E+01  0.40632665769E+01  0.12664321935E+02  0.51100000000E-03 0.  1.
         12    1    3    3    0    0 -0.78005266871E+01 -0.22815563920E+02 -0.33621884631E+02  0.41374258903E+02  0.00000000000E+00 0. -1.
</event>
<event>
 7    1  0.6841384E-013  0.5930190E+02  0.7816164E-02  0.1266605E+00
        -11   -1    0    0    0    0  0.00000000000E+00  0.00000000000E+00  0.45593999997E+02  0.45594000000E+02  0.51100000000E-03 0.  1.
         11   -1    0    0    0    0 -0.00000000000E+00 -0.00000000000E+00 -0.45593999997E+02  0.45594000000E+02  0.51100000000E-03 0. -1.
    9900012    2    1    2    0    0 -0.16878264553E+02  0.22467933920E+02  0.15067822037E+02  0.59301903815E+02  0.49999926662E+02 0.  0.
        -12    1    1    2    0    0  0.16878264553E+02 -0.22467933920E+02 -0.15067822037E+02  0.31886096185E+02  0.00000000000E+00 0.  1.
         11    1    3    3    0    0  0.67182842570E+01  0.10754141053E+02 -0.55647281110E+01  0.13847494082E+02  0.51100000000E-03 0. -1.
        -11    1    3    3    0    0 -0.30662556844E+01  0.18405649627E+02  0.12084086085E+02  0.22230497046E+02  0.51100000000E-03 0.  1.
        -12    1    3    3    0    0 -0.20530293125E+02 -0.66918567594E+01  0.85484640622E+01  0.23223912688E+02  0.00000000000E+00 0.  1.
</event>
<event>
 7    1  0.6841384E-013  0.5930192E+02  0.7816164E-02  0.1266605E+00
        -11   -1    0    0    0    0  0.00000000000E+00  0.00000000000E+00  0.45593999997E+02  0.45594000000E+02  0.51100000000E-03 0.  1.
         11   -1    0    0    0    0 -0.00000000000E+00 -0.00000000000E+00 -0.45593999997E+02  0.45594000000E+02  0.51100000000E-03 0. -1.
    9900012    2    1    2    0    0 -0.79087380168E+00 -0.19411571875E+02  0.25284140343E+02  0.59301915937E+02  0.49999948769E+02 0.  0.
        -12    1    1    2    0    0  0.79087380168E+00  0.19411571875E+02 -0.25284140343E+02  0.31886084063E+02  0.00000000000E+00 0.  1.
         11    1    3    3    0    0 -0.20928202302E+01 -0.20307595394E+02 -0.51608593870E+01  0.21057369187E+02  0.51100000000E-03 0. -1.
        -11    1    3    3    0    0 -0.52388442237E+01 -0.43887551355E+01  0.18376754044E+00  0.68366973905E+01  0.51100000000E-03 0.  1.
        -12    1    3    3    0    0  0.65407906522E+01  0.52847786544E+01  0.30261232189E+02  0.31407849360E+02  0.00000000000E+00 0.  1.
</event>
<event>
 7    1  0.6841384E-013  0.5930209E+02  0.7816164E-02  0.1266604E+00
        -11   -1    0    0    0    0  0.00000000000E+00  0.00000000000E+00  0.45593999997E+02  0.45594000000E+02  0.51100000000E-03 0. -1.
         11   -1    0    0    0    0 -0.00000000000E+00 -0.00000000000E+00 -0.45593999997E+02  0.45594000000E+02  0.51100000000E-03 0.  1.
    9900012    2    1    2    0    0 -0.14256022339E+02  0.24982874372E+02  0.13759835990E+02  0.59302089769E+02  0.50000265797E+02 0.  0.
        -12    1    1    2    0    0  0.14256022339E+02 -0.24982874372E+02 -0.13759835990E+02  0.31885910231E+02  0.00000000000E+00 0.  1.
         11    1    3    3    0    0 -0.86674744141E+01 -0.41734419314E+01  0.11214611516E+01  0.96850609523E+01  0.51100000000E-03 0. -1.
        -11    1    3    3    0    0 -0.14859224345E+02  0.20018205635E+02 -0.71459498536E+01  0.25934334473E+02  0.51100000000E-03 0.  1.
         12    1    3    3    0    0  0.92706764206E+01  0.91381106679E+01  0.19784324692E+02  0.23682694344E+02  0.00000000000E+00 0. -1.
</event>
<event>
 7    1  0.6841384E-013  0.5930198E+02  0.7816164E-02  0.1266605E+00
        -11   -1    0    0    0    0  0.00000000000E+00  0.00000000000E+00  0.45593999997E+02  0.45594000000E+02  0.51100000000E-03 0.  1.
         11   -1    0    0    0    0 -0.00000000000E+00 -0.00000000000E+00 -0.45593999997E+02  0.45594000000E+02  0.51100000000E-03 0. -1.
    9900012    2    1    2    0    0 -0.31769361614E+02 -0.25541255388E+01 -0.94982510807E+00  0.59301983278E+02  0.50000071583E+02 0.  0.
        -12    1    1    2    0    0  0.31769361614E+02  0.25541255388E+01  0.94982510807E+00  0.31886016722E+02  0.00000000000E+00 0.  1.
         11    1    3    3    0    0 -0.24133159972E+02  0.22800526196E+01  0.12431134532E+01  0.24272481980E+02  0.51100000000E-03 0. -1.
        -11    1    3    3    0    0 -0.43778703041E+01 -0.86355892707E+01  0.14593047898E+02  0.17512743865E+02  0.51100000000E-03 0.  1.
         12    1    3    3    0    0 -0.32583313388E+01  0.38014111123E+01 -0.16785986459E+02  0.17516757433E+02  0.00000000000E+00 0. -1.
</event>
<event>
 7    1  0.6841384E-013  0.5930197E+02  0.7816164E-02  0.1266605E+00
        -11   -1    0    0    0    0  0.00000000000E+00  0.00000000000E+00  0.45593999997E+02  0.45594000000E+02  0.51100000000E-03 0. -1.
         11   -1    0    0    0    0 -0.00000000000E+00 -0.00000000000E+00 -0.45593999997E+02  0.45594000000E+02  0.51100000000E-03 0.  1.
    9900012    2    1    2    0    0  0.10284230734E+01 -0.30471995027E+02  0.93337391881E+01  0.59301971364E+02  0.50000049855E+02 0.  0.
        -12    1    1    2    0    0 -0.10284230734E+01  0.30471995027E+02 -0.93337391881E+01  0.31886028636E+02  0.00000000000E+00 0.  1.
         11    1    3    3    0    0  0.12044774794E+02 -0.20471676049E+00 -0.64029476583E+01  0.13642442881E+02  0.51100000000E-03 0. -1.
        -11    1    3    3    0    0  0.92467888726E+01 -0.12334199427E+02  0.86980521049E+01  0.17700047758E+02  0.51100000000E-03 0.  1.
         12    1    3    3    0    0 -0.20263140594E+02 -0.17933078839E+02  0.70386347414E+01  0.27959480724E+02  0.00000000000E+00 0. -1.
</event>
<event>
 7    1  0.6841384E-013  0.5930195E+02  0.7816164E-02  0.1266605E+00
        -11   -1    0    0    0    0  0.00000000000E+00  0.00000000000E+00  0.45593999997E+02  0.45594000000E+02  0.51100000000E-03 0.  1.
         11   -1    0    0    0    0 -0.00000000000E+00 -0.00000000000E+00 -0.45593999997E+02  0.45594000000E+02  0.51100000000E-03 0. -1.
    9900012    2    1    2    0    0  0.11263730644E+02 -0.27959589451E+02 -0.10397596668E+02  0.59301948398E+02  0.50000007971E+02 0.  0.
        -12    1    1    2    0    0 -0.11263730644E+02  0.27959589451E+02  0.10397596668E+02  0.31886051602E+02  0.00000000000E+00 0.  1.
         11    1    3    3    0    0  0.46235494464E+00 -0.25072679409E+02 -0.11634201626E+02  0.27644306332E+02  0.51100000000E-03 0. -1.
        -11    1    3    3    0    0  0.35987459494E+01 -0.16001343023E+02 -0.14164487280E+01  0.16462086083E+02  0.51100000000E-03 0.  1.
        -12    1    3    3    0    0  0.72026297504E+01  0.13114432982E+02  0.26530536857E+01  0.15195555983E+02  0.00000000000E+00 0.  1.
</event>
<event>
 7    1  0.6841384E-013  0.5930193E+02  0.7816164E-02  0.1266605E+00
        -11   -1    0    0    0    0  0.00000000000E+00  0.00000000000E+00  0.45593999997E+02  0.45594000000E+02  0.51100000000E-03 0. -1.
         11   -1    0    0    0    0 -0.00000000000E+00 -0.00000000000E+00 -0.45593999997E+02  0.45594000000E+02  0.51100000000E-03 0.  1.
    9900012    2    1    2    0    0  0.25871562126E+02 -0.18079401295E+02 -0.45297848961E+01  0.59301930483E+02  0.49999975298E+02 0.  0.
        -12    1    1    2    0    0 -0.25871562126E+02  0.18079401295E+02  0.45297848961E+01  0.31886069517E+02  0.00000000000E+00 0.  1.
         11    1    3    3    0    0  0.13211894758E+02 -0.16397127001E+02  0.12266083504E+02  0.24369586410E+02  0.51100000000E-03 0. -1.
        -11    1    3    3    0    0 -0.35890303552E+00  0.37584332387E+01  0.66043451133E+01  0.76073652756E+01  0.51100000000E-03 0.  1.
        -12    1    3    3    0    0  0.13018570403E+02 -0.54407075328E+01 -0.23400213514E+02  0.27324978798E+02  0.00000000000E+00 0.  1.
</event>
<event>
 7    1  0.6841384E-013  0.5930193E+02  0.7816164E-02  0.1266605E+00
        -11   -1    0    0    0    0  0.00000000000E+00  0.00000000000E+00  0.45593999997E+02  0.45594000000E+02  0.51100000000E-03 0. -1.
         11   -1    0    0    0    0 -0.00000000000E+00 -0.00000000000E+00 -0.45593999997E+02  0.45594000000E+02  0.51100000000E-03 0.  1.
    9900012    2    1    2    0    0 -0.25143700899E+02  0.78245060034E+01  0.17980352244E+02  0.59301926929E+02  0.49999968815E+02 0.  0.
        -12    1    1    2    0    0  0.25143700899E+02 -0.78245060034E+01 -0.17980352244E+02  0.31886073071E+02  0.00000000000E+00 0.  1.
         11    1    3    3    0    0  0.53454703135E+01 -0.25379439050E+01  0.17460867773E+01  0.61696054519E+01  0.51100000000E-03 0. -1.
        -11    1    3    3    0    0  0.60219696682E+01 -0.33194726718E+01 -0.52161907864E+01  0.86308553507E+01  0.51100000000E-03 0.  1.
         12    1    3    3    0    0 -0.36511140881E+02  0.13681922580E+02  0.21450456253E+02  0.44501466126E+02  0.00000000000E+00 0. -1.
</event>
<event>
 7    1  0.6841384E-013  0.5930196E+02  0.7816164E-02  0.1266605E+00
        -11   -1    0    0    0    0  0.00000000000E+00  0.00000000000E+00  0.45593999997E+02  0.45594000000E+02  0.51100000000E-03 0. -1.
         11   -1    0    0    0    0 -0.00000000000E+00 -0.00000000000E+00 -0.45593999997E+02  0.45594000000E+02  0.51100000000E-03 0.  1.
    9900012    2    1    2    0    0 -0.10781006967E+02 -0.29624121075E+02  0.47855142323E+01  0.59301955919E+02  0.50000021687E+02 0.  0.
        -12    1    1    2    0    0  0.10781006967E+02  0.29624121075E+02 -0.47855142323E+01  0.31886044081E+02  0.00000000000E+00 0.  1.
         11    1    3    3    0    0  0.11880528489E+02 -0.11700017177E+01  0.70044064418E+01  0.13841154975E+02  0.51100000000E-03 0. -1.
        -11    1    3    3    0    0 -0.47431040523E+00 -0.52774827515E+01 -0.10988361089E+02  0.12199216132E+02  0.51100000000E-03 0.  1.
         12    1    3    3    0    0 -0.22187225050E+02 -0.23176636606E+02  0.87694688790E+01  0.33261584812E+02  0.00000000000E+00 0. -1.
</event>
<event>
 7    1  0.6841384E-013  0.5930194E+02  0.7816164E-02  0.1266605E+00
        -11   -1    0    0    0    0  0.00000000000E+00  0.00000000000E+00  0.45593999997E+02  0.45594000000E+02  0.51100000000E-03 0.  1.
         11   -1    0    0    0    0 -0.00000000000E+00 -0.00000000000E+00 -0.45593999997E+02  0.45594000000E+02  0.51100000000E-03 0. -1.
    9900012    2    1    2    0    0 -0.18935468526E+02  0.21241986319E+02 -0.14385658802E+02  0.59301935172E+02  0.49999983849E+02 0.  0.
        -12    1    1    2    0    0  0.18935468526E+02 -0.21241986319E+02  0.14385658802E+02  0.31886064828E+02  0.00000000000E+00 0.  1.
         11    1    3    3    0    0  0.12340471910E+01  0.19506969957E+02  0.14823197087E+01  0.19602092270E+02  0.51100000000E-03 0.  1.
        -11    1    3    3    0    0 -0.20384719182E+02  0.10315652284E+02 -0.14146678447E+01  0.22889970370E+02  0.51100000000E-03 0. -1.
        -12    1    3    3    0    0  0.21520346520E+00 -0.85806359212E+01 -0.14453310666E+02  0.16809872532E+02  0.00000000000E+00 0.  1.
</event>
<event>
 7    1  0.6841384E-013  0.5930194E+02  0.7816164E-02  0.1266605E+00
        -11   -1    0    0    0    0  0.00000000000E+00  0.00000000000E+00  0.45593999997E+02  0.45594000000E+02  0.51100000000E-03 0.  1.
         11   -1    0    0    0    0 -0.00000000000E+00 -0.00000000000E+00 -0.45593999997E+02  0.45594000000E+02  0.51100000000E-03 0. -1.
    9900012    2    1    2    0    0  0.27366729567E+02  0.14202548138E+02 -0.81283712091E+01  0.59301942242E+02  0.49999996744E+02 0.  0.
        -12    1    1    2    0    0 -0.27366729567E+02 -0.14202548138E+02  0.81283712091E+01  0.31886057758E+02  0.00000000000E+00 0.  1.
         11    1    3    3    0    0 -0.67016196198E+01 -0.38590101421E+00 -0.12015476512E+02  0.13763440747E+02  0.51100000000E-03 0. -1.
        -11    1    3    3    0    0 -0.27820051640E+00  0.93768918529E+01 -0.35168807974E+01  0.10018580097E+02  0.51100000000E-03 0.  1.
        -12    1    3    3    0    0  0.34346549703E+02  0.52115572996E+01  0.74039861008E+01  0.35519921399E+02  0.00000000000E+00 0.  1.
</event>
<event>
 7    1  0.6841384E-013  0.5930195E+02  0.7816164E-02  0.1266605E+00
        -11   -1    0    0    0    0  0.00000000000E+00  0.00000000000E+00  0.45593999997E+02  0.45594000000E+02  0.51100000000E-03 0.  1.
         11   -1    0    0    0    0 -0.00000000000E+00 -0.00000000000E+00 -0.45593999997E+02  0.45594000000E+02  0.51100000000E-03 0. -1.
    9900012    2    1    2    0    0 -0.25266114293E+02  0.18559972791E+02 -0.58198610813E+01  0.59301954393E+02  0.50000018903E+02 0.  0.
        -12    1    1    2    0    0  0.25266114293E+02 -0.18559972791E+02  0.58198610813E+01  0.31886045607E+02  0.00000000000E+00 0.  1.
         11    1    3    3    0    0 -0.19763447599E+01  0.11341466844E+02 -0.92402834500E+01  0.14762033982E+02  0.51100000000E-03 0. -1.
        -11    1    3    3    0    0 -0.11896430805E+02  0.20506428102E+02  0.10147909699E+02  0.25787957091E+02  0.51100000000E-03 0.  1.
         12    1    3    3    0    0 -0.11393338728E+02 -0.13287922155E+02 -0.67274873305E+01  0.18751963320E+02  0.00000000000E+00 0. -1.
</event>
<event>
 7    1  0.6841384E-013  0.5930227E+02  0.7816164E-02  0.1266604E+00
        -11   -1    0    0    0    0  0.00000000000E+00  0.00000000000E+00  0.45593999997E+02  0.45594000000E+02  0.51100000000E-03 0. -1.
         11   -1    0    0    0    0 -0.00000000000E+00 -0.00000000000E+00 -0.45593999997E+02  0.45594000000E+02  0.51100000000E-03 0.  1.
    9900012    2    1    2    0    0 -0.18493358052E+02  0.15223733434E+02  0.21045984801E+02  0.59302269211E+02  0.50000593053E+02 0.  0.
        -12    1    1    2    0    0  0.18493358052E+02 -0.15223733434E+02 -0.21045984801E+02  0.31885730789E+02  0.00000000000E+00 0.  1.
         11    1    3    3    0    0 -0.20082205559E+02 -0.21801275868E+00  0.92648172493E+01  0.22117399227E+02  0.51100000000E-03 0. -1.
        -11    1    3    3    0    0 -0.11097955098E+02  0.17335564853E+02  0.13082545817E+01  0.20625177489E+02  0.51100000000E-03 0.  1.
        -12    1    3    3    0    0  0.12686802604E+02 -0.18938186608E+01  0.10472912970E+02  0.16559692495E+02  0.00000000000E+00 0.  1.
</event>
<event>
 7    1  0.6841384E-013  0.5930200E+02  0.7816164E-02  0.1266605E+00
        -11   -1    0    0    0    0  0.00000000000E+00  0.00000000000E+00  0.45593999997E+02  0.45594000000E+02  0.51100000000E-03 0. -1.
         11   -1    0    0    0    0 -0.00000000000E+00 -0.00000000000E+00 -0.45593999997E+02  0.45594000000E+02  0.51100000000E-03 0.  1.
    9900012    2    1    2    0    0  0.82931981969E+01 -0.30598405330E+02  0.34171996949E+01  0.59302003092E+02  0.50000107719E+02 0.  0.
        -12    1    1    2    0    0 -0.82931981969E+01  0.30598405330E+02 -0.34171996949E+01  0.31885996908E+02  0.00000000000E+00 0.  1.
         11    1    3    3    0    0  0.14477573362E+02 -0.82876675289E+01 -0.40647089240E+01  0.17169956972E+02  0.51100000000E-03 0. -1.
        -11    1    3    3    0    0  0.84108987392E+01 -0.39099139134E+01 -0.94016282457E+01  0.13206864062E+02  0.51100000000E-03 0.  1.
         12    1    3    3    0    0 -0.14595273904E+02 -0.18400823887E+02  0.16883536865E+02  0.28925182059E+02  0.00000000000E+00 0. -1.
</event>
<event>
 7    1  0.6841384E-013  0.5930194E+02  0.7816164E-02  0.1266605E+00
        -11   -1    0    0    0    0  0.00000000000E+00  0.00000000000E+00  0.45593999997E+02  0.45594000000E+02  0.51100000000E-03 0.  1.
         11   -1    0    0    0    0 -0.00000000000E+00 -0.00000000000E+00 -0.45593999997E+02  0.45594000000E+02  0.51100000000E-03 0. -1.
    9900012    2    1    2    0    0 -0.15997778829E+02  0.45610612422E+00 -0.27578682633E+02  0.59301941981E+02  0.49999996267E+02 0.  0.
        -12    1    1    2    0    0  0.15997778829E+02 -0.45610612422E+00  0.27578682633E+02  0.31886058019E+02  0.00000000000E+00 0.  1.
         11    1    3    3    0    0 -0.52718863829E+01  0.78046100593E+00  0.42659468191E+01  0.68264344969E+01  0.51100000000E-03 0. -1.
        -11    1    3    3    0    0 -0.20038586258E+02  0.25345250105E+01 -0.11041530557E+01  0.20228393670E+02  0.51100000000E-03 0.  1.
         12    1    3    3    0    0  0.93126938115E+01 -0.28588798922E+01 -0.30740476396E+02  0.32247113814E+02  0.00000000000E+00 0. -1.
</event>
<event>
 7    1  0.6841384E-013  0.5930194E+02  0.7816164E-02  0.1266605E+00
        -11   -1    0    0    0    0  0.00000000000E+00  0.00000000000E+00  0.45593999997E+02  0.45594000000E+02  0.51100000000E-03 0.  1.
         11   -1    0    0    0    0 -0.00000000000E+00 -0.00000000000E+00 -0.45593999997E+02  0.45594000000E+02  0.51100000000E-03 0. -1.
    9900012    2    1    2    0    0 -0.16053361411E+02  0.25201628534E+02 -0.11130510683E+02  0.59301940955E+02  0.49999994396E+02 0.  0.
        -12    1    1    2    0    0  0.16053361411E+02 -0.25201628534E+02  0.11130510683E+02  0.31886059045E+02  0.00000000000E+00 0.  1.
         11    1    3    3    0    0  0.13924766121E+01  0.14768408078E+01 -0.11227375485E+02  0.11409382561E+02  0.51100000000E-03 0. -1.
        -11    1    3    3    0    0 -0.17549411202E+02 -0.51503650617E+01  0.40931743999E+01  0.18741989508E+02  0.51100000000E-03 0.  1.
         12    1    3    3    0    0  0.10357317832E+00  0.28875152788E+02 -0.39963095978E+01  0.29150568886E+02  0.00000000000E+00 0. -1.
</event>
<event>
 7    1  0.6841384E-013  0.5930194E+02  0.7816164E-02  0.1266605E+00
        -11   -1    0    0    0    0  0.00000000000E+00  0.00000000000E+00  0.45593999997E+02  0.45594000000E+02  0.51100000000E-03 0.  1.
         11   -1    0    0    0    0 -0.00000000000E+00 -0.00000000000E+00 -0.45593999997E+02  0.45594000000E+02  0.51100000000E-03 0. -1.
    9900012    2    1    2    0    0 -0.27970556023E+02  0.13857211279E+02  0.65074006297E+01  0.59301943931E+02  0.49999999824E+02 0.  0.
        -12    1    1    2    0    0  0.27970556023E+02 -0.13857211279E+02 -0.65074006297E+01  0.31886056069E+02  0.00000000000E+00 0.  1.
         11    1    3    3    0    0 -0.13001387716E+02  0.17722399389E+02  0.17597677028E+02  0.28156664569E+02  0.51100000000E-03 0. -1.
        -11    1    3    3    0    0 -0.12916293692E+02 -0.15999383602E+01  0.56063061683E+01  0.14171136673E+02  0.51100000000E-03 0.  1.
        -12    1    3    3    0    0 -0.20528746148E+01 -0.22652497496E+01 -0.16696582567E+02  0.16974142689E+02  0.00000000000E+00 0.  1.
</event>
<event>
 7    1  0.6841384E-013  0.5930195E+02  0.7816164E-02  0.1266605E+00
        -11   -1    0    0    0    0  0.00000000000E+00  0.00000000000E+00  0.45593999997E+02  0.45594000000E+02  0.51100000000E-03 0. -1.
         11   -1    0    0    0    0 -0.00000000000E+00 -0.00000000000E+00 -0.45593999997E+02  0.45594000000E+02  0.51100000000E-03 0.  1.
    9900012    2    1    2    0    0  0.20923303985E+01 -0.13338301630E+02  0.28886537848E+02  0.59301949669E+02  0.50000010288E+02 0.  0.
        -12    1    1    2    0    0 -0.20923303985E+01  0.13338301630E+02 -0.28886537848E+02  0.31886050331E+02  0.00000000000E+00 0.  1.
         11    1    3    3    0    0  0.47400915363E+01 -0.21775683335E+02  0.33699627467E+01  0.22538977387E+02  0.51100000000E-03 0. -1.
        -11    1    3    3    0    0  0.13098023436E+01 -0.86846283326E+01  0.69648084827E+01  0.11209233199E+02  0.51100000000E-03 0.  1.
         12    1    3    3    0    0 -0.39575634814E+01  0.17122010037E+02  0.18551766619E+02  0.25553739083E+02  0.00000000000E+00 0. -1.
</event>
<event>
 7    1  0.6841384E-013  0.5930191E+02  0.7816164E-02  0.1266605E+00
        -11   -1    0    0    0    0  0.00000000000E+00  0.00000000000E+00  0.45593999997E+02  0.45594000000E+02  0.51100000000E-03 0. -1.
         11   -1    0    0    0    0 -0.00000000000E+00 -0.00000000000E+00 -0.45593999997E+02  0.45594000000E+02  0.51100000000E-03 0.  1.
    9900012    2    1    2    0    0  0.26490670019E+02  0.85566163204E+01  0.15548362533E+02  0.59301908073E+02  0.49999934428E+02 0.  0.
        -12    1    1    2    0    0 -0.26490670019E+02 -0.85566163204E+01 -0.15548362533E+02  0.31886091927E+02  0.00000000000E+00 0.  1.
         11    1    3    3    0    0  0.73140979476E+01  0.48601668417E+01 -0.31437551002E+01  0.93274030097E+01  0.51100000000E-03 0. -1.
        -11    1    3    3    0    0 -0.77044258342E+01  0.12708845028E+02 -0.18312911912E+01  0.14974196041E+02  0.51100000000E-03 0.  1.
         12    1    3    3    0    0  0.26880997906E+02 -0.90123955490E+01  0.20523408824E+02  0.35000309023E+02  0.00000000000E+00 0. -1.
</event>
<event>
 7    1  0.6841384E-013  0.5930192E+02  0.7816164E-02  0.1266605E+00
        -11   -1    0    0    0    0  0.00000000000E+00  0.00000000000E+00  0.45593999997E+02  0.45594000000E+02  0.51100000000E-03 0.  1.
         11   -1    0    0    0    0 -0.00000000000E+00 -0.00000000000E+00 -0.45593999997E+02  0.45594000000E+02  0.51100000000E-03 0. -1.
    9900012    2    1    2    0    0  0.20233558786E+02  0.17665627102E+02 -0.17182861385E+02  0.59301921416E+02  0.49999958762E+02 0.  0.
        -12    1    1    2    0    0 -0.20233558786E+02 -0.17665627102E+02  0.17182861385E+02  0.31886078584E+02  0.00000000000E+00 0.  1.
         11    1    3    3    0    0  0.86214404690E+01  0.24441320892E+02 -0.75666741050E+01  0.26999295546E+02  0.51100000000E-03 0. -1.
        -11    1    3    3    0    0 -0.51055877095E+00  0.99608568060E+01 -0.14358535657E+01  0.10076756139E+02  0.51100000000E-03 0.  1.
        -12    1    3    3    0    0  0.12122677088E+02 -0.16736550596E+02 -0.81803337138E+01  0.22225869731E+02  0.00000000000E+00 0.  1.
</event>
<event>
 7    1  0.6841384E-013  0.5930210E+02  0.7816164E-02  0.1266604E+00
        -11   -1    0    0    0    0  0.00000000000E+00  0.00000000000E+00  0.45593999997E+02  0.45594000000E+02  0.51100000000E-03 0.  1.
         11   -1    0    0    0    0 -0.00000000000E+00 -0.00000000000E+00 -0.45593999997E+02  0.45594000000E+02  0.51100000000E-03 0. -1.
    9900012    2    1    2    0    0 -0.17643279216E+02 -0.21150502884E+02 -0.16064918275E+02  0.59302099151E+02  0.50000282907E+02 0.  0.
        -12    1    1    2    0    0  0.17643279216E+02  0.21150502884E+02  0.16064918275E+02  0.31885900849E+02  0.00000000000E+00 0.  1.
         11    1    3    3    0    0 -0.63317016841E+01 -0.12441335996E+02 -0.17921327206E+00  0.13960995854E+02  0.51100000000E-03 0.  1.
        -11    1    3    3    0    0 -0.57800343963E+01 -0.91664410195E+01 -0.29076441706E+02  0.31030177266E+02  0.51100000000E-03 0. -1.
         12    1    3    3    0    0 -0.55315431360E+01  0.45727413066E+00  0.13190736704E+02  0.14310926032E+02  0.00000000000E+00 0. -1.
</event>
<event>
 7    1  0.6841384E-013  0.5930187E+02  0.7816164E-02  0.1266605E+00
        -11   -1    0    0    0    0  0.00000000000E+00  0.00000000000E+00  0.45593999997E+02  0.45594000000E+02  0.51100000000E-03 0. -1.
         11   -1    0    0    0    0 -0.00000000000E+00 -0.00000000000E+00 -0.45593999997E+02  0.45594000000E+02  0.51100000000E-03 0.  1.
    9900012    2    1    2    0    0 -0.20664635814E+02 -0.17991457208E+02  0.16309674298E+02  0.59301871645E+02  0.49999867991E+02 0.  0.
        -12    1    1    2    0    0  0.20664635814E+02  0.17991457208E+02 -0.16309674298E+02  0.31886128355E+02  0.00000000000E+00 0.  1.
         11    1    3    3    0    0  0.81787423304E+01 -0.51711345159E+00  0.45139073558E+01  0.93559923208E+01  0.51100000000E-03 0. -1.
        -11    1    3    3    0    0 -0.10899300948E+02  0.10301541451E+02  0.69333441124E+01  0.16522341791E+02  0.51100000000E-03 0.  1.
         12    1    3    3    0    0 -0.17944077197E+02 -0.27775885207E+02  0.48624228299E+01  0.33423537533E+02  0.00000000000E+00 0. -1.
</event>
<event>
 7    1  0.6841384E-013  0.5930195E+02  0.7816164E-02  0.1266605E+00
        -11   -1    0    0    0    0  0.00000000000E+00  0.00000000000E+00  0.45593999997E+02  0.45594000000E+02  0.51100000000E-03 0.  1.
         11   -1    0    0    0    0 -0.00000000000E+00 -0.00000000000E+00 -0.45593999997E+02  0.45594000000E+02  0.51100000000E-03 0. -1.
    9900012    2    1    2    0    0  0.25725187393E+02 -0.11487664341E+02 -0.14932125270E+02  0.59301951900E+02  0.50000014356E+02 0.  0.
        -12    1    1    2    0    0 -0.25725187393E+02  0.11487664341E+02  0.14932125270E+02  0.31886048100E+02  0.00000000000E+00 0.  1.
         11    1    3    3    0    0  0.22632729454E+01 -0.15903799515E+01 -0.34388307138E+01  0.44133059893E+01  0.51100000000E-03 0. -1.
        -11    1    3    3    0    0  0.86072600835E+01 -0.19392246367E+02 -0.24919726230E+02  0.32728227892E+02  0.51100000000E-03 0.  1.
         12    1    3    3    0    0  0.14854654364E+02  0.94949619783E+01  0.13426431674E+02  0.22160418018E+02  0.00000000000E+00 0. -1.
</event>
<event>
 7    1  0.6841384E-013  0.5930195E+02  0.7816164E-02  0.1266605E+00
        -11   -1    0    0    0    0  0.00000000000E+00  0.00000000000E+00  0.45593999997E+02  0.45594000000E+02  0.51100000000E-03 0.  1.
         11   -1    0    0    0    0 -0.00000000000E+00 -0.00000000000E+00 -0.45593999997E+02  0.45594000000E+02  0.51100000000E-03 0. -1.
    9900012    2    1    2    0    0  0.55827581753E+01 -0.10931592686E+02 -0.29428784890E+02  0.59301948385E+02  0.50000007947E+02 0.  0.
        -12    1    1    2    0    0 -0.55827581753E+01  0.10931592686E+02  0.29428784890E+02  0.31886051615E+02  0.00000000000E+00 0.  1.
         11    1    3    3    0    0  0.13258178826E+02 -0.24234975946E+01 -0.10331991134E+02  0.16982422896E+02  0.51100000000E-03 0. -1.
        -11    1    3    3    0    0 -0.69238063495E+01 -0.86538599008E+01  0.89603816464E+01  0.14251906015E+02  0.51100000000E-03 0.  1.
         12    1    3    3    0    0 -0.75161430083E+00  0.14576480934E+00 -0.28057175402E+02  0.28067619474E+02  0.00000000000E+00 0. -1.
</event>
<event>
 7    1  0.6841384E-013  0.5930194E+02  0.7816164E-02  0.1266605E+00
        -11   -1    0    0    0    0  0.00000000000E+00  0.00000000000E+00  0.45593999997E+02  0.45594000000E+02  0.51100000000E-03 0.  1.
         11   -1    0    0    0    0 -0.00000000000E+00 -0.00000000000E+00 -0.45593999997E+02  0.45594000000E+02  0.51100000000E-03 0. -1.
    9900012    2    1    2    0    0 -0.23603126242E+02 -0.12484575124E+02 -0.17428390094E+02  0.59301937752E+02  0.49999988555E+02 0.  0.
        -12    1    1    2    0    0  0.23603126242E+02  0.12484575124E+02  0.17428390094E+02  0.31886062248E+02  0.00000000000E+00 0.  1.
         11    1    3    3    0    0 -0.22039508530E+02  0.57425995445E+01 -0.76159464583E+01  0.24014995867E+02  0.51100000000E-03 0. -1.
        -11    1    3    3    0    0 -0.81488468120E+01  0.16194551190E+01  0.49677649236E+01  0.96801357348E+01  0.51100000000E-03 0.  1.
         12    1    3    3    0    0  0.65852290998E+01 -0.19846629787E+02 -0.14780208559E+02  0.25606806151E+02  0.00000000000E+00 0. -1.
</event>
<event>
 7    1  0.6841384E-013  0.5930176E+02  0.7816164E-02  0.1266605E+00
        -11   -1    0    0    0    0  0.00000000000E+00  0.00000000000E+00  0.45593999997E+02  0.45594000000E+02  0.51100000000E-03 0. -1.
         11   -1    0    0    0    0 -0.00000000000E+00 -0.00000000000E+00 -0.45593999997E+02  0.45594000000E+02  0.51100000000E-03 0.  1.
    9900012    2    1    2    0    0  0.21686492647E+02 -0.19554306825E+02  0.12808490717E+02  0.59301759814E+02  0.49999664038E+02 0.  0.
        -12    1    1    2    0    0 -0.21686492647E+02  0.19554306825E+02 -0.12808490717E+02  0.31886240186E+02  0.00000000000E+00 0.  1.
         11    1    3    3    0    0  0.19157202569E+02 -0.44156533711E+01  0.23972422985E+02  0.31002797761E+02  0.51100000000E-03 0. -1.
        -11    1    3    3    0    0 -0.25300584082E+01  0.42672068813E+01 -0.56115759070E+01  0.74899956300E+01  0.51100000000E-03 0.  1.
        -12    1    3    3    0    0  0.50593484859E+01 -0.19405860336E+02 -0.55523563609E+01  0.20808966424E+02  0.00000000000E+00 0.  1.
</event>
<event>
 7    1  0.6841384E-013  0.5930193E+02  0.7816164E-02  0.1266605E+00
        -11   -1    0    0    0    0  0.00000000000E+00  0.00000000000E+00  0.45593999997E+02  0.45594000000E+02  0.51100000000E-03 0.  1.
         11   -1    0    0    0    0 -0.00000000000E+00 -0.00000000000E+00 -0.45593999997E+02  0.45594000000E+02  0.51100000000E-03 0. -1.
    9900012    2    1    2    0    0 -0.26163948511E+01  0.24828908697E+02 -0.19834349677E+02  0.59301926924E+02  0.49999968806E+02 0.  0.
        -12    1    1    2    0    0  0.26163948511E+01 -0.24828908697E+02  0.19834349677E+02  0.31886073076E+02  0.00000000000E+00 0.  1.
         11    1    3    3    0    0 -0.46220256262E+01  0.23607958852E+01 -0.15193874688E+02  0.16055849600E+02  0.51100000000E-03 0. -1.
        -11    1    3    3    0    0  0.14499145200E+01 -0.10181523265E+02 -0.20716703244E+01  0.10490828676E+02  0.51100000000E-03 0.  1.
         12    1    3    3    0    0  0.55571625509E+00  0.32649636077E+02 -0.25688046653E+01  0.32755248647E+02  0.00000000000E+00 0. -1.
</event>
<event>
 7    1  0.6841384E-013  0.5930190E+02  0.7816164E-02  0.1266605E+00
        -11   -1    0    0    0    0  0.00000000000E+00  0.00000000000E+00  0.45593999997E+02  0.45594000000E+02  0.51100000000E-03 0. -1.
         11   -1    0    0    0    0 -0.00000000000E+00 -0.00000000000E+00 -0.45593999997E+02  0.45594000000E+02  0.51100000000E-03 0.  1.
    9900012    2    1    2    0    0  0.38516211329E+01 -0.21550468210E+02  0.23183313020E+02  0.59301895378E+02  0.49999911274E+02 0.  0.
        -12    1    1    2    0    0 -0.38516211329E+01  0.21550468210E+02 -0.23183313020E+02  0.31886104622E+02  0.00000000000E+00 0.  1.
         11    1    3    3    0    0 -0.38808785572E+00 -0.13719583711E+02  0.60756340225E+01  0.15009694148E+02  0.51100000000E-03 0. -1.
        -11    1    3    3    0    0 -0.13705174083E+02 -0.97377685893E+00  0.20605237557E+02  0.24766022148E+02  0.51100000000E-03 0.  1.
        -12    1    3    3    0    0  0.17944883071E+02 -0.68571076407E+01 -0.34975585600E+01  0.19526179081E+02  0.00000000000E+00 0.  1.
</event>
<event>
 7    1  0.6841384E-013  0.5930198E+02  0.7816164E-02  0.1266605E+00
        -11   -1    0    0    0    0  0.00000000000E+00  0.00000000000E+00  0.45593999997E+02  0.45594000000E+02  0.51100000000E-03 0.  1.
         11   -1    0    0    0    0 -0.00000000000E+00 -0.00000000000E+00 -0.45593999997E+02  0.45594000000E+02  0.51100000000E-03 0. -1.
    9900012    2    1    2    0    0  0.66634590005E+00  0.10107916734E+02 -0.30234159858E+02  0.59301977672E+02  0.50000061359E+02 0.  0.
        -12    1    1    2    0    0 -0.66634590005E+00 -0.10107916734E+02  0.30234159858E+02  0.31886022328E+02  0.00000000000E+00 0.  1.
         11    1    3    3    0    0  0.13174503239E+02  0.83049585594E+00 -0.24139607202E+02  0.27513231273E+02  0.51100000000E-03 0. -1.
        -11    1    3    3    0    0  0.53489991056E+01 -0.49854219955E+01 -0.50964830863E+01  0.89129324027E+01  0.51100000000E-03 0.  1.
        -12    1    3    3    0    0 -0.17857156445E+02  0.14262842874E+02 -0.99806957022E+00  0.22875813996E+02  0.00000000000E+00 0.  1.
</event>
<event>
 7    1  0.6841384E-013  0.5930171E+02  0.7816164E-02  0.1266606E+00
        -11   -1    0    0    0    0  0.00000000000E+00  0.00000000000E+00  0.45593999997E+02  0.45594000000E+02  0.51100000000E-03 0.  1.
         11   -1    0    0    0    0 -0.00000000000E+00 -0.00000000000E+00 -0.45593999997E+02  0.45594000000E+02  0.51100000000E-03 0. -1.
    9900012    2    1    2    0    0  0.89534675100E+01 -0.77023304961E+01 -0.29618325597E+02  0.59301706915E+02  0.49999567561E+02 0.  0.
        -12    1    1    2    0    0 -0.89534675100E+01  0.77023304961E+01  0.29618325597E+02  0.31886293085E+02  0.00000000000E+00 0.  1.
         11    1    3    3    0    0  0.15048617386E+02  0.62525640952E+01 -0.17123664266E+02  0.23638428906E+02  0.51100000000E-03 0. -1.
        -11    1    3    3    0    0 -0.78108948194E+01 -0.99052712545E+01 -0.21904078412E+02  0.25276730956E+02  0.51100000000E-03 0.  1.
        -12    1    3    3    0    0  0.17157449431E+01 -0.40496233367E+01  0.94094170803E+01  0.10386547052E+02  0.00000000000E+00 0.  1.
</event>
<event>
 7    1  0.6841384E-013  0.5930201E+02  0.7816164E-02  0.1266605E+00
        -11   -1    0    0    0    0  0.00000000000E+00  0.00000000000E+00  0.45593999997E+02  0.45594000000E+02  0.51100000000E-03 0.  1.
         11   -1    0    0    0    0 -0.00000000000E+00 -0.00000000000E+00 -0.45593999997E+02  0.45594000000E+02  0.51100000000E-03 0. -1.
    9900012    2    1    2    0    0 -0.25335996560E+02  0.10765202664E+02 -0.16090809317E+02  0.59302008490E+02  0.50000117564E+02 0.  0.
        -12    1    1    2    0    0  0.25335996560E+02 -0.10765202664E+02  0.16090809317E+02  0.31885991510E+02  0.00000000000E+00 0.  1.
         11    1    3    3    0    0 -0.26972063728E+01  0.10427222472E+02 -0.47006932454E+00  0.10780670486E+02  0.51100000000E-03 0. -1.
        -11    1    3    3    0    0 -0.18285085127E+02  0.18507017227E+02 -0.35002035764E+01  0.26250818084E+02  0.51100000000E-03 0.  1.
         12    1    3    3    0    0 -0.43537050604E+01 -0.18169037035E+02 -0.12120536416E+02  0.22270519920E+02  0.00000000000E+00 0. -1.
</event>
<event>
 7    1  0.6841384E-013  0.5930195E+02  0.7816164E-02  0.1266605E+00
        -11   -1    0    0    0    0  0.00000000000E+00  0.00000000000E+00  0.45593999997E+02  0.45594000000E+02  0.51100000000E-03 0.  1.
         11   -1    0    0    0    0 -0.00000000000E+00 -0.00000000000E+00 -0.45593999997E+02  0.45594000000E+02  0.51100000000E-03 0. -1.
    9900012    2    1    2    0    0 -0.32757583350E+01  0.83887051806E+01 -0.30587897075E+02  0.59301946391E+02  0.50000004310E+02 0.  0.
        -12    1    1    2    0    0  0.32757583350E+01 -0.83887051806E+01  0.30587897075E+02  0.31886053609E+02  0.00000000000E+00 0.  1.
         11    1    3    3    0    0  0.11332459119E+02 -0.55656470036E+01 -0.23096852929E+02  0.26322341684E+02  0.51100000000E-03 0. -1.
        -11    1    3    3    0    0 -0.20758447852E+02  0.54153366811E+01 -0.64662839287E+01  0.22406513711E+02  0.51100000000E-03 0.  1.
         12    1    3    3    0    0  0.61502303978E+01  0.85390155031E+01 -0.10247602180E+01  0.10573090996E+02  0.00000000000E+00 0. -1.
</event>
<event>
 7    1  0.6841384E-013  0.5930184E+02  0.7816164E-02  0.1266605E+00
        -11   -1    0    0    0    0  0.00000000000E+00  0.00000000000E+00  0.45593999997E+02  0.45594000000E+02  0.51100000000E-03 0.  1.
         11   -1    0    0    0    0 -0.00000000000E+00 -0.00000000000E+00 -0.45593999997E+02  0.45594000000E+02  0.51100000000E-03 0. -1.
    9900012    2    1    2    0    0 -0.24663910570E+02  0.11135303644E+02 -0.16864858834E+02  0.59301844143E+02  0.49999817834E+02 0.  0.
        -12    1    1    2    0    0  0.24663910570E+02 -0.11135303644E+02  0.16864858834E+02  0.31886155857E+02  0.00000000000E+00 0.  1.
         11    1    3    3    0    0  0.60130331336E+00  0.29670039540E+01 -0.12698765207E+02  0.13054628152E+02  0.51100000000E-03 0. -1.
        -11    1    3    3    0    0  0.39564236753E+00 -0.76951759160E+01  0.10240406317E+02  0.12815544743E+02  0.51100000000E-03 0.  1.
         12    1    3    3    0    0 -0.25660856251E+02  0.15863475606E+02 -0.14406499944E+02  0.33431671248E+02  0.00000000000E+00 0. -1.
</event>
<event>
 7    1  0.6841384E-013  0.5930198E+02  0.7816164E-02  0.1266605E+00
        -11   -1    0    0    0    0  0.00000000000E+00  0.00000000000E+00  0.45593999997E+02  0.45594000000E+02  0.51100000000E-03 0. -1.
         11   -1    0    0    0    0 -0.00000000000E+00 -0.00000000000E+00 -0.45593999997E+02  0.45594000000E+02  0.51100000000E-03 0.  1.
    9900012    2    1    2    0    0  0.22221749117E+02  0.21775733029E+02  0.69806530144E+01  0.59301981131E+02  0.50000067668E+02 0.  0.
        -12    1    1    2    0    0 -0.22221749117E+02 -0.21775733029E+02 -0.69806530144E+01  0.31886018869E+02  0.00000000000E+00 0.  1.
         11    1    3    3    0    0  0.43466110301E+01  0.29874520617E+01  0.73396597227E+01  0.90381691937E+01  0.51100000000E-03 0. -1.
        -11    1    3    3    0    0  0.11034662607E+01  0.27753860490E+02 -0.92431509453E+01  0.29273370997E+02  0.51100000000E-03 0.  1.
         12    1    3    3    0    0  0.16771671826E+02 -0.89655795224E+01  0.88841442370E+01  0.20990440940E+02  0.00000000000E+00 0. -1.
</event>
<event>
 7    1  0.6841384E-013  0.5930196E+02  0.7816164E-02  0.1266605E+00
        -11   -1    0    0    0    0  0.00000000000E+00  0.00000000000E+00  0.45593999997E+02  0.45594000000E+02  0.51100000000E-03 0.  1.
         11   -1    0    0    0    0 -0.00000000000E+00 -0.00000000000E+00 -0.45593999997E+02  0.45594000000E+02  0.51100000000E-03 0. -1.
    9900012    2    1    2    0    0 -0.16867446823E+02  0.14452720070E+02 -0.22876355631E+02  0.59301960316E+02  0.50000029706E+02 0.  0.
        -12    1    1    2    0    0  0.16867446823E+02 -0.14452720070E+02  0.22876355631E+02  0.31886039684E+02  0.00000000000E+00 0.  1.
         11    1    3    3    0    0 -0.57848601601E+01 -0.10403212832E+02 -0.97613699635E+01  0.15394017933E+02  0.51100000000E-03 0. -1.
        -11    1    3    3    0    0 -0.16686992710E+02  0.18047017210E+02  0.37620891874E+01  0.24865716784E+02  0.51100000000E-03 0.  1.
        -12    1    3    3    0    0  0.56044060473E+01  0.68089156930E+01 -0.16877074855E+02  0.19042225598E+02  0.00000000000E+00 0.  1.
</event>
<event>
 7    1  0.6841384E-013  0.5930163E+02  0.7816164E-02  0.1266606E+00
        -11   -1    0    0    0    0  0.00000000000E+00  0.00000000000E+00  0.45593999997E+02  0.45594000000E+02  0.51100000000E-03 0.  1.
         11   -1    0    0    0    0 -0.00000000000E+00 -0.00000000000E+00 -0.45593999997E+02  0.45594000000E+02  0.51100000000E-03 0. -1.
    9900012    2    1    2    0    0  0.31079901595E+02 -0.12243220525E+01 -0.70200738925E+01  0.59301628537E+02  0.49999424617E+02 0.  0.
        -12    1    1    2    0    0 -0.31079901595E+02  0.12243220525E+01  0.70200738925E+01  0.31886371463E+02  0.00000000000E+00 0.  1.
         11    1    3    3    0    0  0.19330309830E+02  0.13288882548E+02 -0.53700286475E+01  0.24064340536E+02  0.51100000000E-03 0. -1.
        -11    1    3    3    0    0  0.14233767796E+02 -0.11476166714E+02  0.11442629757E+02  0.21569337591E+02  0.51100000000E-03 0.  1.
         12    1    3    3    0    0 -0.24841760307E+01 -0.30370378871E+01 -0.13092675002E+02  0.13667950409E+02  0.00000000000E+00 0. -1.
</event>
<event>
 7    1  0.6841384E-013  0.5930193E+02  0.7816164E-02  0.1266605E+00
        -11   -1    0    0    0    0  0.00000000000E+00  0.00000000000E+00  0.45593999997E+02  0.45594000000E+02  0.51100000000E-03 0. -1.
         11   -1    0    0    0    0 -0.00000000000E+00 -0.00000000000E+00 -0.45593999997E+02  0.45594000000E+02  0.51100000000E-03 0.  1.
    9900012    2    1    2    0    0  0.31580477875E+02 -0.89304272170E-01 -0.44030829618E+01  0.59301926275E+02  0.49999967623E+02 0.  0.
        -12    1    1    2    0    0 -0.31580477875E+02  0.89304272170E-01  0.44030829618E+01  0.31886073725E+02  0.00000000000E+00 0.  1.
         11    1    3    3    0    0  0.22562372412E+02  0.16426756277E+00  0.66382352141E+01  0.23519221919E+02  0.51100000000E-03 0. -1.
        -11    1    3    3    0    0  0.13043527375E+02 -0.66747211618E+01  0.69821485079E+01  0.16230708765E+02  0.51100000000E-03 0.  1.
        -12    1    3    3    0    0 -0.40254219123E+01  0.64211493269E+01 -0.18023466684E+02  0.19551995590E+02  0.00000000000E+00 0.  1.
</event>
<event>
 7    1  0.6841384E-013  0.5930166E+02  0.7816164E-02  0.1266606E+00
        -11   -1    0    0    0    0  0.00000000000E+00  0.00000000000E+00  0.45593999997E+02  0.45594000000E+02  0.51100000000E-03 0.  1.
         11   -1    0    0    0    0 -0.00000000000E+00 -0.00000000000E+00 -0.45593999997E+02  0.45594000000E+02  0.51100000000E-03 0. -1.
    9900012    2    1    2    0    0  0.72054761784E+01  0.85779185270E+01 -0.29853630072E+02  0.59301658070E+02  0.49999478478E+02 0.  0.
        -12    1    1    2    0    0 -0.72054761784E+01 -0.85779185270E+01  0.29853630072E+02  0.31886341930E+02  0.00000000000E+00 0.  1.
         11    1    3    3    0    0  0.44570498859E+01  0.15437412692E+01 -0.32056077458E+02  0.32401242770E+02  0.51100000000E-03 0. -1.
        -11    1    3    3    0    0  0.13457439712E+02 -0.89191629210E+00  0.11016689783E+01  0.13531883575E+02  0.51100000000E-03 0.  1.
        -12    1    3    3    0    0 -0.10709013420E+02  0.79260935499E+01  0.11007784071E+01  0.13368531725E+02  0.00000000000E+00 0.  1.
</event>
<event>
 7    1  0.6841384E-013  0.5930194E+02  0.7816164E-02  0.1266605E+00
        -11   -1    0    0    0    0  0.00000000000E+00  0.00000000000E+00  0.45593999997E+02  0.45594000000E+02  0.51100000000E-03 0. -1.
         11   -1    0    0    0    0 -0.00000000000E+00 -0.00000000000E+00 -0.45593999997E+02  0.45594000000E+02  0.51100000000E-03 0.  1.
    9900012    2    1    2    0    0  0.29927273626E+02 -0.96912304935E+00  0.10960825668E+02  0.59301943400E+02  0.49999998855E+02 0.  0.
        -12    1    1    2    0    0 -0.29927273626E+02  0.96912304935E+00 -0.10960825668E+02  0.31886056600E+02  0.00000000000E+00 0.  1.
         11    1    3    3    0    0  0.12310135959E+02 -0.15292842165E+02  0.48265138470E+01  0.20216471131E+02  0.51100000000E-03 0. -1.
        -11    1    3    3    0    0 -0.64578617355E+01  0.94023951032E+01  0.87468133765E+01  0.14374134978E+02  0.51100000000E-03 0.  1.
         12    1    3    3    0    0  0.24074999403E+02  0.49213240129E+01 -0.26125015559E+01  0.24711337290E+02  0.00000000000E+00 0. -1.
</event>
<event>
 7    1  0.6841384E-013  0.5930194E+02  0.7816164E-02  0.1266605E+00
        -11   -1    0    0    0    0  0.00000000000E+00  0.00000000000E+00  0.45593999997E+02  0.45594000000E+02  0.51100000000E-03 0.  1.
         11   -1    0    0    0    0 -0.00000000000E+00 -0.00000000000E+00 -0.45593999997E+02  0.45594000000E+02  0.51100000000E-03 0. -1.
    9900012    2    1    2    0    0 -0.17202072005E+02 -0.23927877328E+02 -0.12176451306E+02  0.59301944096E+02  0.50000000125E+02 0.  0.
        -12    1    1    2    0    0  0.17202072005E+02  0.23927877328E+02  0.12176451306E+02  0.31886055904E+02  0.00000000000E+00 0.  1.
         11    1    3    3    0    0 -0.14072781733E+02 -0.55248473475E+01 -0.10567022892E+02  0.18445300132E+02  0.51100000000E-03 0. -1.
        -11    1    3    3    0    0 -0.97402154021E+01 -0.21259941939E+02  0.11377997339E+02  0.26006071427E+02  0.51100000000E-03 0.  1.
         12    1    3    3    0    0  0.66109251294E+01  0.28569119592E+01 -0.12987425753E+02  0.14850572538E+02  0.00000000000E+00 0. -1.
</event>
<event>
 7    1  0.6841384E-013  0.5930194E+02  0.7816164E-02  0.1266605E+00
        -11   -1    0    0    0    0  0.00000000000E+00  0.00000000000E+00  0.45593999997E+02  0.45594000000E+02  0.51100000000E-03 0.  1.
         11   -1    0    0    0    0 -0.00000000000E+00 -0.00000000000E+00 -0.45593999997E+02  0.45594000000E+02  0.51100000000E-03 0. -1.
    9900012    2    1    2    0    0 -0.27469045672E+02 -0.51422430986E+01 -0.15353498622E+02  0.59301936365E+02  0.49999986025E+02 0.  0.
        -12    1    1    2    0    0  0.27469045672E+02  0.51422430986E+01  0.15353498622E+02  0.31886063635E+02  0.00000000000E+00 0.  1.
         11    1    3    3    0    0 -0.20151324832E+02 -0.13310629088E+02 -0.42710284798E+01  0.24525301706E+02  0.51100000000E-03 0. -1.
        -11    1    3    3    0    0  0.34030335416E+01 -0.10710226336E+02 -0.32783298674E+01  0.11706281751E+02  0.51100000000E-03 0.  1.
        -12    1    3    3    0    0 -0.10720754381E+02  0.18878612326E+02 -0.78041402751E+01  0.23070352908E+02  0.00000000000E+00 0.  1.
</event>
<event>
 7    1  0.6841384E-013  0.5930192E+02  0.7816164E-02  0.1266605E+00
        -11   -1    0    0    0    0  0.00000000000E+00  0.00000000000E+00  0.45593999997E+02  0.45594000000E+02  0.51100000000E-03 0. -1.
         11   -1    0    0    0    0 -0.00000000000E+00 -0.00000000000E+00 -0.45593999997E+02  0.45594000000E+02  0.51100000000E-03 0.  1.
    9900012    2    1    2    0    0  0.10908805019E+02  0.69869029608E+01  0.29135940507E+02  0.59301923585E+02  0.49999962717E+02 0.  0.
        -12    1    1    2    0    0 -0.10908805019E+02 -0.69869029608E+01 -0.29135940507E+02  0.31886076415E+02  0.00000000000E+00 0.  1.
         11    1    3    3    0    0  0.60373722245E+01  0.92044200446E+01  0.22088388172E+02  0.24679305177E+02  0.51100000000E-03 0. -1.
        -11    1    3    3    0    0  0.11361816464E+02  0.45131587518E+01  0.17017836911E+02  0.20953907718E+02  0.51100000000E-03 0.  1.
        -12    1    3    3    0    0 -0.64903836692E+01 -0.67306758355E+01 -0.99702845760E+01  0.13668710689E+02  0.00000000000E+00 0.  1.
</event>
<event>
 7    1  0.6841384E-013  0.5930193E+02  0.7816164E-02  0.1266605E+00
        -11   -1    0    0    0    0  0.00000000000E+00  0.00000000000E+00  0.45593999997E+02  0.45594000000E+02  0.51100000000E-03 0. -1.
         11   -1    0    0    0    0 -0.00000000000E+00 -0.00000000000E+00 -0.45593999997E+02  0.45594000000E+02  0.51100000000E-03 0.  1.
    9900012    2    1    2    0    0 -0.94831289474E+01  0.22357174924E+02  0.20662724321E+02  0.59301934367E+02  0.49999982381E+02 0.  0.
        -12    1    1    2    0    0  0.94831289474E+01 -0.22357174924E+02 -0.20662724321E+02  0.31886065633E+02  0.00000000000E+00 0.  1.
         11    1    3    3    0    0 -0.13096446211E+02 -0.63684105968E+01  0.82055496921E+00  0.14585844768E+02  0.51100000000E-03 0. -1.
        -11    1    3    3    0    0  0.24995537858E+01 -0.77824917654E+00  0.14471946256E+02  0.14706823913E+02  0.51100000000E-03 0.  1.
         12    1    3    3    0    0  0.11137634776E+01  0.29503834697E+02  0.53702230961E+01  0.30009265686E+02  0.00000000000E+00 0. -1.
</event>
<event>
 7    1  0.6841384E-013  0.5930194E+02  0.7816164E-02  0.1266605E+00
        -11   -1    0    0    0    0  0.00000000000E+00  0.00000000000E+00  0.45593999997E+02  0.45594000000E+02  0.51100000000E-03 0.  1.
         11   -1    0    0    0    0 -0.00000000000E+00 -0.00000000000E+00 -0.45593999997E+02  0.45594000000E+02  0.51100000000E-03 0. -1.
    9900012    2    1    2    0    0  0.27123262453E+02 -0.10433230511E+02 -0.13122390066E+02  0.59301940569E+02  0.49999993692E+02 0.  0.
        -12    1    1    2    0    0 -0.27123262453E+02  0.10433230511E+02  0.13122390066E+02  0.31886059431E+02  0.00000000000E+00 0.  1.
         11    1    3    3    0    0  0.22776225153E+02 -0.10913859120E+02 -0.15763669244E+02  0.29771832685E+02  0.51100000000E-03 0. -1.
        -11    1    3    3    0    0  0.14002085377E+02  0.79163084610E+01 -0.25466786813E+01  0.16285327971E+02  0.51100000000E-03 0.  1.
         12    1    3    3    0    0 -0.96550480761E+01 -0.74356798518E+01  0.51879578593E+01  0.13244779914E+02  0.00000000000E+00 0. -1.
</event>
<event>
 7    1  0.6841384E-013  0.5930223E+02  0.7816164E-02  0.1266604E+00
        -11   -1    0    0    0    0  0.00000000000E+00  0.00000000000E+00  0.45593999997E+02  0.45594000000E+02  0.51100000000E-03 0.  1.
         11   -1    0    0    0    0 -0.00000000000E+00 -0.00000000000E+00 -0.45593999997E+02  0.45594000000E+02  0.51100000000E-03 0. -1.
    9900012    2    1    2    0    0 -0.11916188268E+01  0.24196253887E+02 -0.20732189375E+02  0.59302229916E+02  0.50000521389E+02 0.  0.
        -12    1    1    2    0    0  0.11916188268E+01 -0.24196253887E+02  0.20732189375E+02  0.31885770084E+02  0.00000000000E+00 0.  1.
         11    1    3    3    0    0 -0.32443502810E+01 -0.66473776756E+01 -0.47390186558E+01  0.87847445489E+01  0.51100000000E-03 0. -1.
        -11    1    3    3    0    0  0.18024835536E+02  0.13453664262E+02 -0.14700944206E+02  0.26870309619E+02  0.51100000000E-03 0.  1.
         12    1    3    3    0    0 -0.15972104082E+02  0.17389967300E+02 -0.12922265126E+01  0.23647175748E+02  0.00000000000E+00 0. -1.
</event>
<event>
 7    1  0.6841384E-013  0.5930195E+02  0.7816164E-02  0.1266605E+00
        -11   -1    0    0    0    0  0.00000000000E+00  0.00000000000E+00  0.45593999997E+02  0.45594000000E+02  0.51100000000E-03 0. -1.
         11   -1    0    0    0    0 -0.00000000000E+00 -0.00000000000E+00 -0.45593999997E+02  0.45594000000E+02  0.51100000000E-03 0.  1.
    9900012    2    1    2    0    0  0.55865966877E+01  0.31260697451E+02 -0.28773317212E+01  0.59301948105E+02  0.50000007435E+02 0.  0.
        -12    1    1    2    0    0 -0.55865966877E+01 -0.31260697451E+02  0.28773317212E+01  0.31886051895E+02  0.00000000000E+00 0.  1.
         11    1    3    3    0    0  0.11729476232E+02  0.10468076055E+01  0.40706297994E+01  0.12459793179E+02  0.51100000000E-03 0. -1.
        -11    1    3    3    0    0 -0.96549202747E+01  0.15458445752E+02  0.12557788584E+02  0.22133212261E+02  0.51100000000E-03 0.  1.
         12    1    3    3    0    0  0.35120407306E+01  0.14755444093E+02 -0.19505750105E+02  0.24708942665E+02  0.00000000000E+00 0. -1.
</event>
<event>
 7    1  0.6841384E-013  0.5930193E+02  0.7816164E-02  0.1266605E+00
        -11   -1    0    0    0    0  0.00000000000E+00  0.00000000000E+00  0.45593999997E+02  0.45594000000E+02  0.51100000000E-03 0. -1.
         11   -1    0    0    0    0 -0.00000000000E+00 -0.00000000000E+00 -0.45593999997E+02  0.45594000000E+02  0.51100000000E-03 0.  1.
    9900012    2    1    2    0    0  0.89634440231E+01  0.11619826943E+02  0.28308259506E+02  0.59301933087E+02  0.49999980046E+02 0.  0.
        -12    1    1    2    0    0 -0.89634440231E+01 -0.11619826943E+02 -0.28308259506E+02  0.31886066913E+02  0.00000000000E+00 0.  1.
         11    1    3    3    0    0  0.38139418568E+01  0.16780764268E+01  0.19827221631E+02  0.20260326030E+02  0.51100000000E-03 0. -1.
        -11    1    3    3    0    0  0.98191578535E+01  0.13286802037E+01  0.20955247419E+02  0.23179811188E+02  0.51100000000E-03 0.  1.
        -12    1    3    3    0    0 -0.46696556871E+01  0.86130703123E+01 -0.12474209544E+02  0.15861795869E+02  0.00000000000E+00 0.  1.
</event>
<event>
 7    1  0.6841384E-013  0.5930196E+02  0.7816164E-02  0.1266605E+00
        -11   -1    0    0    0    0  0.00000000000E+00  0.00000000000E+00  0.45593999997E+02  0.45594000000E+02  0.51100000000E-03 0. -1.
         11   -1    0    0    0    0 -0.00000000000E+00 -0.00000000000E+00 -0.45593999997E+02  0.45594000000E+02  0.51100000000E-03 0.  1.
    9900012    2    1    2    0    0 -0.30940956870E+02 -0.39820989833E+01 -0.65969239476E+01  0.59301963402E+02  0.50000035334E+02 0.  0.
        -12    1    1    2    0    0  0.30940956870E+02  0.39820989833E+01  0.65969239476E+01  0.31886036598E+02  0.00000000000E+00 0.  1.
         11    1    3    3    0    0  0.74540355053E+01  0.12589124719E+01 -0.36626875710E+01  0.84001658573E+01  0.51100000000E-03 0. -1.
        -11    1    3    3    0    0  0.41498609788E+01  0.55438808971E+01 -0.53864109333E+00  0.69459409753E+01  0.51100000000E-03 0.  1.
         12    1    3    3    0    0 -0.42544853354E+02 -0.10784892352E+02 -0.23955952833E+01  0.43955856569E+02  0.00000000000E+00 0. -1.
</event>
<event>
 7    1  0.6841384E-013  0.5930195E+02  0.7816164E-02  0.1266605E+00
        -11   -1    0    0    0    0  0.00000000000E+00  0.00000000000E+00  0.45593999997E+02  0.45594000000E+02  0.51100000000E-03 0. -1.
         11   -1    0    0    0    0 -0.00000000000E+00 -0.00000000000E+00 -0.45593999997E+02  0.45594000000E+02  0.51100000000E-03 0.  1.
    9900012    2    1    2    0    0 -0.10062569747E+02  0.21728096873E+02  0.21055986004E+02  0.59301952107E+02  0.50000014735E+02 0.  0.
        -12    1    1    2    0    0  0.10062569747E+02 -0.21728096873E+02 -0.21055986004E+02  0.31886047893E+02  0.00000000000E+00 0.  1.
         11    1    3    3    0    0 -0.12928036750E+02  0.81786445994E+01 -0.53423494049E+01  0.16203859390E+02  0.51100000000E-03 0. -1.
        -11    1    3    3    0    0 -0.48507631736E+01  0.83549135969E+01 -0.46244916134E+01  0.10710761295E+02  0.51100000000E-03 0.  1.
         12    1    3    3    0    0  0.77162301765E+01  0.51945386765E+01  0.31022827022E+02  0.32387331422E+02  0.00000000000E+00 0. -1.
</event>
<event>
 7    1  0.6841384E-013  0.5930194E+02  0.7816164E-02  0.1266605E+00
        -11   -1    0    0    0    0  0.00000000000E+00  0.00000000000E+00  0.45593999997E+02  0.45594000000E+02  0.51100000000E-03 0.  1.
         11   -1    0    0    0    0 -0.00000000000E+00 -0.00000000000E+00 -0.45593999997E+02  0.45594000000E+02  0.51100000000E-03 0. -1.
    9900012    2    1    2    0    0 -0.30313608481E+02 -0.37740850620E+01 -0.91412370293E+01  0.59301940481E+02  0.49999993532E+02 0.  0.
        -12    1    1    2    0    0  0.30313608481E+02  0.37740850620E+01  0.91412370293E+01  0.31886059519E+02  0.00000000000E+00 0.  1.
         11    1    3    3    0    0 -0.97588766811E+01 -0.66230795057E+01 -0.10267647605E+02  0.15637309353E+02  0.51100000000E-03 0. -1.
        -11    1    3    3    0    0 -0.11610823238E+02 -0.16260113565E+02 -0.68306932285E+01  0.21115418055E+02  0.51100000000E-03 0.  1.
        -12    1    3    3    0    0 -0.89439085625E+01  0.19109108009E+02  0.79571038038E+01  0.22549213073E+02  0.00000000000E+00 0.  1.
</event>
<event>
 7    1  0.6841384E-013  0.5930193E+02  0.7816164E-02  0.1266605E+00
        -11   -1    0    0    0    0  0.00000000000E+00  0.00000000000E+00  0.45593999997E+02  0.45594000000E+02  0.51100000000E-03 0.  1.
         11   -1    0    0    0    0 -0.00000000000E+00 -0.00000000000E+00 -0.45593999997E+02  0.45594000000E+02  0.51100000000E-03 0. -1.
    9900012    2    1    2    0    0 -0.17163091855E+02  0.19279429934E+02 -0.18720398143E+02  0.59301930201E+02  0.49999974783E+02 0.  0.
        -12    1    1    2    0    0  0.17163091855E+02 -0.19279429934E+02  0.18720398143E+02  0.31886069799E+02  0.00000000000E+00 0.  1.
         11    1    3    3    0    0 -0.10362633836E+02 -0.82267415613E+00 -0.11889867875E+02  0.15793350852E+02  0.51100000000E-03 0. -1.
        -11    1    3    3    0    0  0.21835293473E+01 -0.10461006594E+02 -0.44097772598E+01  0.11560562058E+02  0.51100000000E-03 0.  1.
        -12    1    3    3    0    0 -0.89839873664E+01  0.30563110684E+02 -0.24207530083E+01  0.31948017291E+02  0.00000000000E+00 0.  1.
</event>
<event>
 7    1  0.6841384E-013  0.5930191E+02  0.7816164E-02  0.1266605E+00
        -11   -1    0    0    0    0  0.00000000000E+00  0.00000000000E+00  0.45593999997E+02  0.45594000000E+02  0.51100000000E-03 0.  1.
         11   -1    0    0    0    0 -0.00000000000E+00 -0.00000000000E+00 -0.45593999997E+02  0.45594000000E+02  0.51100000000E-03 0. -1.
    9900012    2    1    2    0    0  0.30711500578E+02  0.60068379548E+01 -0.61191730693E+01  0.59301911356E+02  0.49999940415E+02 0.  0.
        -12    1    1    2    0    0 -0.30711500578E+02 -0.60068379548E+01  0.61191730693E+01  0.31886088644E+02  0.00000000000E+00 0.  1.
         11    1    3    3    0    0  0.34289719779E+01 -0.76015459440E+01  0.48770185844E+01  0.96605724518E+01  0.51100000000E-03 0. -1.
        -11    1    3    3    0    0  0.23349501438E+02 -0.27778489579E+01  0.74407923076E+01  0.24663354449E+02  0.51100000000E-03 0.  1.
        -12    1    3    3    0    0  0.39330271617E+01  0.16386232857E+02 -0.18436983961E+02  0.24977984456E+02  0.00000000000E+00 0.  1.
</event>
<event>
 7    1  0.6841384E-013  0.5930195E+02  0.7816164E-02  0.1266605E+00
        -11   -1    0    0    0    0  0.00000000000E+00  0.00000000000E+00  0.45593999997E+02  0.45594000000E+02  0.51100000000E-03 0.  1.
         11   -1    0    0    0    0 -0.00000000000E+00 -0.00000000000E+00 -0.45593999997E+02  0.45594000000E+02  0.51100000000E-03 0. -1.
    9900012    2    1    2    0    0 -0.57640909490E+01 -0.18051904425E+02 -0.25644180891E+02  0.59301952716E+02  0.50000015845E+02 0.  0.
        -12    1    1    2    0    0  0.57640909490E+01  0.18051904425E+02  0.25644180891E+02  0.31886047284E+02  0.00000000000E+00 0.  1.
         11    1    3    3    0    0  0.25357511995E+01 -0.37000508888E+01 -0.10893068311E+02  0.11780464686E+02  0.51100000000E-03 0. -1.
        -11    1    3    3    0    0  0.37589166734E+01  0.10745461203E+02 -0.16015030935E+02  0.19648806761E+02  0.51100000000E-03 0.  1.
         12    1    3    3    0    0 -0.12058758822E+02 -0.25097314740E+02  0.12639183554E+01  0.27872681268E+02  0.00000000000E+00 0. -1.
</event>
<event>
 7    1  0.6841384E-013  0.5930195E+02  0.7816164E-02  0.1266605E+00
        -11   -1    0    0    0    0  0.00000000000E+00  0.00000000000E+00  0.45593999997E+02  0.45594000000E+02  0.51100000000E-03 0.  1.
         11   -1    0    0    0    0 -0.00000000000E+00 -0.00000000000E+00 -0.45593999997E+02  0.45594000000E+02  0.51100000000E-03 0. -1.
    9900012    2    1    2    0    0 -0.26895553350E+02 -0.56869502626E+00 -0.17118009627E+02  0.59301945719E+02  0.50000003084E+02 0.  0.
        -12    1    1    2    0    0  0.26895553350E+02  0.56869502626E+00  0.17118009627E+02  0.31886054281E+02  0.00000000000E+00 0.  1.
         11    1    3    3    0    0 -0.11142023764E+02  0.37593046009E+01 -0.13078875589E+02  0.17587895030E+02  0.51100000000E-03 0. -1.
        -11    1    3    3    0    0 -0.94981267718E+01  0.68396535782E+01 -0.18818927023E+02  0.22161843060E+02  0.51100000000E-03 0.  1.
        -12    1    3    3    0    0 -0.62554028143E+01 -0.11167653205E+02  0.14779792986E+02  0.19552207629E+02  0.00000000000E+00 0.  1.
</event>
<event>
 7    1  0.6841384E-013  0.5930206E+02  0.7816164E-02  0.1266604E+00
        -11   -1    0    0    0    0  0.00000000000E+00  0.00000000000E+00  0.45593999997E+02  0.45594000000E+02  0.51100000000E-03 0.  1.
         11   -1    0    0    0    0 -0.00000000000E+00 -0.00000000000E+00 -0.45593999997E+02  0.45594000000E+02  0.51100000000E-03 0. -1.
    9900012    2    1    2    0    0  0.70173521866E+01 -0.31055665825E+02  0.17364557067E+01  0.59302064386E+02  0.50000219504E+02 0.  0.
        -12    1    1    2    0    0 -0.70173521866E+01  0.31055665825E+02 -0.17364557067E+01  0.31885935614E+02  0.00000000000E+00 0.  1.
         11    1    3    3    0    0 -0.81447881877E+00  0.29322292629E+00  0.10755705554E+01  0.13806548126E+01  0.51100000000E-03 0. -1.
        -11    1    3    3    0    0 -0.14701018971E+02 -0.30411933983E+02  0.69971469027E+01  0.34495880224E+02  0.51100000000E-03 0.  1.
         12    1    3    3    0    0  0.22532849977E+02 -0.93695476783E+00 -0.63362617514E+01  0.23425529349E+02  0.00000000000E+00 0. -1.
</event>
<event>
 7    1  0.6841384E-013  0.5930193E+02  0.7816164E-02  0.1266605E+00
        -11   -1    0    0    0    0  0.00000000000E+00  0.00000000000E+00  0.45593999997E+02  0.45594000000E+02  0.51100000000E-03 0.  1.
         11   -1    0    0    0    0 -0.00000000000E+00 -0.00000000000E+00 -0.45593999997E+02  0.45594000000E+02  0.51100000000E-03 0. -1.
    9900012    2    1    2    0    0 -0.12445002441E+01  0.19263804689E+02  0.25378704188E+02  0.59301928147E+02  0.49999971037E+02 0.  0.
        -12    1    1    2    0    0  0.12445002441E+01 -0.19263804689E+02 -0.25378704188E+02  0.31886071853E+02  0.00000000000E+00 0.  1.
         11    1    3    3    0    0 -0.17132469302E+02  0.82978770449E+01  0.20844419229E+02  0.28228816502E+02  0.51100000000E-03 0. -1.
        -11    1    3    3    0    0  0.30281090549E+01 -0.66931345492E+01  0.55455595118E+01  0.92043861883E+01  0.51100000000E-03 0.  1.
        -12    1    3    3    0    0  0.12859860003E+02  0.17659062194E+02 -0.10112745531E+01  0.21868725456E+02  0.00000000000E+00 0.  1.
</event>
<event>
 7    1  0.6841384E-013  0.5930193E+02  0.7816164E-02  0.1266605E+00
        -11   -1    0    0    0    0  0.00000000000E+00  0.00000000000E+00  0.45593999997E+02  0.45594000000E+02  0.51100000000E-03 0. -1.
         11   -1    0    0    0    0 -0.00000000000E+00 -0.00000000000E+00 -0.45593999997E+02  0.45594000000E+02  0.51100000000E-03 0.  1.
    9900012    2    1    2    0    0  0.24870795600E+02 -0.13474615100E+02  0.14717325532E+02  0.59301930994E+02  0.49999976230E+02 0.  0.
        -12    1    1    2    0    0 -0.24870795600E+02  0.13474615100E+02 -0.14717325532E+02  0.31886069006E+02  0.00000000000E+00 0.  1.
         11    1    3    3    0    0 -0.70745761677E+01  0.11477317945E+02  0.50212691652E+01  0.14387202628E+02  0.51100000000E-03 0. -1.
        -11    1    3    3    0    0  0.78701764570E+01 -0.16582503865E+02  0.45744078866E+01  0.18916773501E+02  0.51100000000E-03 0.  1.
        -12    1    3    3    0    0  0.24075195310E+02 -0.83694291798E+01  0.51216484797E+01  0.25997954865E+02  0.00000000000E+00 0.  1.
</event>
<event>
 7    1  0.6841384E-013  0.5930194E+02  0.7816164E-02  0.1266605E+00
        -11   -1    0    0    0    0  0.00000000000E+00  0.00000000000E+00  0.45593999997E+02  0.45594000000E+02  0.51100000000E-03 0. -1.
         11   -1    0    0    0    0 -0.00000000000E+00 -0.00000000000E+00 -0.45593999997E+02  0.45594000000E+02  0.51100000000E-03 0.  1.
    9900012    2    1    2    0    0 -0.96719715502E+01  0.89938116010E+01  0.29022143739E+02  0.59301944929E+02  0.50000001643E+02 0.  0.
        -12    1    1    2    0    0  0.96719715502E+01 -0.89938116010E+01 -0.29022143739E+02  0.31886055071E+02  0.00000000000E+00 0.  1.
         11    1    3    3    0    0 -0.12120723050E+02  0.11435789372E+02  0.71331451425E+01  0.18126526576E+02  0.51100000000E-03 0. -1.
        -11    1    3    3    0    0  0.17858628702E+01  0.30215302021E+00 -0.94942390188E+01  0.96654631263E+01  0.51100000000E-03 0.  1.
         12    1    3    3    0    0  0.66288863012E+00 -0.27441307908E+01  0.31383237616E+02  0.31509955227E+02  0.00000000000E+00 0. -1.
</event>
<event>
 7    1  0.6841384E-013  0.5930193E+02  0.7816164E-02  0.1266605E+00
        -11   -1    0    0    0    0  0.00000000000E+00  0.00000000000E+00  0.45593999997E+02  0.45594000000E+02  0.51100000000E-03 0.  1.
         11   -1    0    0    0    0 -0.00000000000E+00 -0.00000000000E+00 -0.45593999997E+02  0.45594000000E+02  0.51100000000E-03 0. -1.
    9900012    2    1    2    0    0  0.27224527752E+02  0.13294187365E+02 -0.99403904431E+01  0.59301926376E+02  0.49999967807E+02 0.  0.
        -12    1    1    2    0    0 -0.27224527752E+02 -0.13294187365E+02  0.99403904431E+01  0.31886073624E+02  0.00000000000E+00 0.  1.
         11    1    3    3    0    0  0.21662629699E+02  0.71083621116E+00  0.58009742706E+01  0.22437159275E+02  0.51100000000E-03 0. -1.
        -11    1    3    3    0    0 -0.66290474792E+01 -0.72206526771E+01 -0.25497512861E+01  0.10128342779E+02  0.51100000000E-03 0.  1.
         12    1    3    3    0    0  0.12190945532E+02  0.19804003830E+02 -0.13191613428E+02  0.26736424322E+02  0.00000000000E+00 0. -1.
</event>
<event>
 7    1  0.6841384E-013  0.5930193E+02  0.7816164E-02  0.1266605E+00
        -11   -1    0    0    0    0  0.00000000000E+00  0.00000000000E+00  0.45593999997E+02  0.45594000000E+02  0.51100000000E-03 0. -1.
         11   -1    0    0    0    0 -0.00000000000E+00 -0.00000000000E+00 -0.45593999997E+02  0.45594000000E+02  0.51100000000E-03 0.  1.
    9900012    2    1    2    0    0 -0.16528662355E+02 -0.10675296876E+02  0.25091088234E+02  0.59301931704E+02  0.49999977525E+02 0.  0.
        -12    1    1    2    0    0  0.16528662355E+02  0.10675296876E+02 -0.25091088234E+02  0.31886068296E+02  0.00000000000E+00 0.  1.
         11    1    3    3    0    0 -0.15988655777E+02 -0.14385019107E+02  0.91550315115E+01  0.23374783219E+02  0.51100000000E-03 0. -1.
        -11    1    3    3    0    0 -0.12675545387E+02  0.45764053198E+01 -0.26292355688E+01  0.13730470365E+02  0.51100000000E-03 0.  1.
         12    1    3    3    0    0  0.12135538809E+02 -0.86668308845E+00  0.18565292291E+02  0.22196678121E+02  0.00000000000E+00 0. -1.
</event>
<event>
 7    1  0.6841384E-013  0.5930195E+02  0.7816164E-02  0.1266605E+00
        -11   -1    0    0    0    0  0.00000000000E+00  0.00000000000E+00  0.45593999997E+02  0.45594000000E+02  0.51100000000E-03 0.  1.
         11   -1    0    0    0    0 -0.00000000000E+00 -0.00000000000E+00 -0.45593999997E+02  0.45594000000E+02  0.51100000000E-03 0. -1.
    9900012    2    1    2    0    0  0.24968182740E+02  0.64568762911E+01 -0.18751502726E+02  0.59301948892E+02  0.50000008871E+02 0.  0.
        -12    1    1    2    0    0 -0.24968182740E+02 -0.64568762911E+01  0.18751502726E+02  0.31886051108E+02  0.00000000000E+00 0.  1.
         11    1    3    3    0    0  0.23338210082E+02 -0.27353836800E+01 -0.75590229950E+01  0.24683865228E+02  0.51100000000E-03 0. -1.
        -11    1    3    3    0    0 -0.17024213473E+01 -0.10545764504E+02 -0.98913145435E+01  0.14558485192E+02  0.51100000000E-03 0.  1.
        -12    1    3    3    0    0  0.33323940051E+01  0.19738024475E+02 -0.13011651879E+01  0.20059598471E+02  0.00000000000E+00 0.  1.
</event>
<event>
 7    1  0.6841384E-013  0.5930194E+02  0.7816164E-02  0.1266605E+00
        -11   -1    0    0    0    0  0.00000000000E+00  0.00000000000E+00  0.45593999997E+02  0.45594000000E+02  0.51100000000E-03 0.  1.
         11   -1    0    0    0    0 -0.00000000000E+00 -0.00000000000E+00 -0.45593999997E+02  0.45594000000E+02  0.51100000000E-03 0. -1.
    9900012    2    1    2    0    0  0.44491568783E+00 -0.96790660329E+01 -0.30378255757E+02  0.59301942042E+02  0.49999996379E+02 0.  0.
        -12    1    1    2    0    0 -0.44491568783E+00  0.96790660329E+01  0.30378255757E+02  0.31886057958E+02  0.00000000000E+00 0.  1.
         11    1    3    3    0    0 -0.38479654470E+01 -0.63996630487E+01  0.30728607144E+01  0.80749612042E+01  0.51100000000E-03 0. -1.
        -11    1    3    3    0    0  0.79701240072E+01  0.99094055643E+01  0.23184283027E+01  0.12926496253E+02  0.51100000000E-03 0.  1.
         12    1    3    3    0    0 -0.36772428724E+01 -0.13188808549E+02 -0.35769544774E+02  0.38300484585E+02  0.00000000000E+00 0. -1.
</event>
<event>
 7    1  0.6841384E-013  0.5930195E+02  0.7816164E-02  0.1266605E+00
        -11   -1    0    0    0    0  0.00000000000E+00  0.00000000000E+00  0.45593999997E+02  0.45594000000E+02  0.51100000000E-03 0.  1.
         11   -1    0    0    0    0 -0.00000000000E+00 -0.00000000000E+00 -0.45593999997E+02  0.45594000000E+02  0.51100000000E-03 0. -1.
    9900012    2    1    2    0    0  0.12730592730E+02  0.24789426804E+02 -0.15496339516E+02  0.59301949587E+02  0.50000010140E+02 0.  0.
        -12    1    1    2    0    0 -0.12730592730E+02 -0.24789426804E+02  0.15496339516E+02  0.31886050413E+02  0.00000000000E+00 0.  1.
         11    1    3    3    0    0  0.10660598758E+02  0.11322629287E+02  0.90025544608E+01  0.17969315149E+02  0.51100000000E-03 0. -1.
        -11    1    3    3    0    0  0.10411072030E+02  0.33786744333E+01  0.25891579528E+01  0.11247648684E+02  0.51100000000E-03 0.  1.
         12    1    3    3    0    0 -0.83410780582E+01  0.10088123083E+02 -0.27088051929E+02  0.30084985754E+02  0.00000000000E+00 0. -1.
</event>
<event>
 7    1  0.6841384E-013  0.5930194E+02  0.7816164E-02  0.1266605E+00
        -11   -1    0    0    0    0  0.00000000000E+00  0.00000000000E+00  0.45593999997E+02  0.45594000000E+02  0.51100000000E-03 0. -1.
         11   -1    0    0    0    0 -0.00000000000E+00 -0.00000000000E+00 -0.45593999997E+02  0.45594000000E+02  0.51100000000E-03 0.  1.
    9900012    2    1    2    0    0 -0.28948241719E+02  0.61240919237E+01  0.11883414277E+02  0.59301941363E+02  0.49999995140E+02 0.  0.
        -12    1    1    2    0    0  0.28948241719E+02 -0.61240919237E+01 -0.11883414277E+02  0.31886058637E+02  0.00000000000E+00 0.  1.
         11    1    3    3    0    0 -0.12033804621E+02  0.81867571910E+01  0.34697760115E+01  0.14962446083E+02  0.51100000000E-03 0. -1.
        -11    1    3    3    0    0 -0.96002369304E+01 -0.40634633295E+01  0.24461518702E+02  0.26590264775E+02  0.51100000000E-03 0.  1.
        -12    1    3    3    0    0 -0.73142001684E+01  0.20007980621E+01 -0.16047880437E+02  0.17749230505E+02  0.00000000000E+00 0.  1.
</event>
<event>
 7    1  0.6841384E-013  0.5930195E+02  0.7816164E-02  0.1266605E+00
        -11   -1    0    0    0    0  0.00000000000E+00  0.00000000000E+00  0.45593999997E+02  0.45594000000E+02  0.51100000000E-03 0.  1.
         11   -1    0    0    0    0 -0.00000000000E+00 -0.00000000000E+00 -0.45593999997E+02  0.45594000000E+02  0.51100000000E-03 0. -1.
    9900012    2    1    2    0    0  0.15458865665E+02  0.13165753996E+02 -0.24584687654E+02  0.59301945478E+02  0.50000002645E+02 0.  0.
        -12    1    1    2    0    0 -0.15458865665E+02 -0.13165753996E+02  0.24584687654E+02  0.31886054522E+02  0.00000000000E+00 0.  1.
         11    1    3    3    0    0  0.64494825117E+01 -0.82154186855E+01 -0.57066687874E+01  0.11901890512E+02  0.51100000000E-03 0. -1.
        -11    1    3    3    0    0 -0.11761367770E+02 -0.18137406406E+01 -0.22808594405E+01  0.12117002392E+02  0.51100000000E-03 0.  1.
         12    1    3    3    0    0  0.20770750923E+02  0.23194913322E+02 -0.16597159426E+02  0.35283052574E+02  0.00000000000E+00 0. -1.
</event>
<event>
 7    1  0.6841384E-013  0.5930190E+02  0.7816164E-02  0.1266605E+00
        -11   -1    0    0    0    0  0.00000000000E+00  0.00000000000E+00  0.45593999997E+02  0.45594000000E+02  0.51100000000E-03 0. -1.
         11   -1    0    0    0    0 -0.00000000000E+00 -0.00000000000E+00 -0.45593999997E+02  0.45594000000E+02  0.51100000000E-03 0.  1.
    9900012    2    1    2    0    0 -0.14576802343E+02  0.12289540550E+02  0.25557921966E+02  0.59301900384E+02  0.49999920405E+02 0.  0.
        -12    1    1    2    0    0  0.14576802343E+02 -0.12289540550E+02 -0.25557921966E+02  0.31886099616E+02  0.00000000000E+00 0.  1.
         11    1    3    3    0    0  0.14089466822E+01 -0.63291473690E+01  0.14445584399E+02  0.15834081788E+02  0.51100000000E-03 0. -1.
        -11    1    3    3    0    0  0.63323251436E+01 -0.34712870257E+01  0.96225359618E+01  0.12030850923E+02  0.51100000000E-03 0.  1.
         12    1    3    3    0    0 -0.22318074169E+02  0.22089974945E+02  0.14898016055E+01  0.31436967673E+02  0.00000000000E+00 0. -1.
</event>
<event>
 7    1  0.6841384E-013  0.5930184E+02  0.7816164E-02  0.1266605E+00
        -11   -1    0    0    0    0  0.00000000000E+00  0.00000000000E+00  0.45593999997E+02  0.45594000000E+02  0.51100000000E-03 0. -1.
         11   -1    0    0    0    0 -0.00000000000E+00 -0.00000000000E+00 -0.45593999997E+02  0.45594000000E+02  0.51100000000E-03 0.  1.
    9900012    2    1    2    0    0  0.12392577985E+02  0.29022430096E+02  0.45661827681E+01  0.59301835871E+02  0.49999802748E+02 0.  0.
        -12    1    1    2    0    0 -0.12392577985E+02 -0.29022430096E+02 -0.45661827681E+01  0.31886164129E+02  0.00000000000E+00 0.  1.
         11    1    3    3    0    0 -0.61608803199E+01 -0.30775933110E+00  0.13484948693E+01  0.63142379426E+01  0.51100000000E-03 0. -1.
        -11    1    3    3    0    0  0.76107079229E+01 -0.95113596069E+01 -0.18350492486E+01  0.12318938374E+02  0.51100000000E-03 0.  1.
         12    1    3    3    0    0  0.10942750382E+02  0.38841549034E+02  0.50527371474E+01  0.40668659554E+02  0.00000000000E+00 0. -1.
</event>
<event>
 7    1  0.6841384E-013  0.5930195E+02  0.7816164E-02  0.1266605E+00
        -11   -1    0    0    0    0  0.00000000000E+00  0.00000000000E+00  0.45593999997E+02  0.45594000000E+02  0.51100000000E-03 0.  1.
         11   -1    0    0    0    0 -0.00000000000E+00 -0.00000000000E+00 -0.45593999997E+02  0.45594000000E+02  0.51100000000E-03 0. -1.
    9900012    2    1    2    0    0 -0.38134664077E+01  0.16797794429E+02 -0.26833038074E+02  0.59301947313E+02  0.50000005991E+02 0.  0.
        -12    1    1    2    0    0  0.38134664077E+01 -0.16797794429E+02  0.26833038074E+02  0.31886052687E+02  0.00000000000E+00 0.  1.
         11    1    3    3    0    0  0.21014172839E+01  0.13989768118E+02 -0.49392558141E+01  0.14984185492E+02  0.51100000000E-03 0. -1.
        -11    1    3    3    0    0  0.12427467147E+02  0.12132250977E+02 -0.62053784220E+01  0.18442889553E+02  0.51100000000E-03 0.  1.
         12    1    3    3    0    0 -0.18342350838E+02 -0.93242246660E+01 -0.15688403838E+02  0.25874872268E+02  0.00000000000E+00 0. -1.
</event>
<event>
 7    1  0.6841384E-013  0.5930196E+02  0.7816164E-02  0.1266605E+00
        -11   -1    0    0    0    0  0.00000000000E+00  0.00000000000E+00  0.45593999997E+02  0.45594000000E+02  0.51100000000E-03 0.  1.
         11   -1    0    0    0    0 -0.00000000000E+00 -0.00000000000E+00 -0.45593999997E+02  0.45594000000E+02  0.51100000000E-03 0. -1.
    9900012    2    1    2    0    0  0.15573808251E+02  0.14515129552E+02 -0.23737878044E+02  0.59301963191E+02  0.50000034949E+02 0.  0.
        -12    1    1    2    0    0 -0.15573808251E+02 -0.14515129552E+02  0.23737878044E+02  0.31886036809E+02  0.00000000000E+00 0.  1.
         11    1    3    3    0    0  0.13432171042E+01 -0.11545482548E+01 -0.22668719639E+01  0.28767903336E+01  0.51100000000E-03 0. -1.
        -11    1    3    3    0    0  0.15479533696E+02 -0.27879099150E+01  0.10903122042E+02  0.19138089656E+02  0.51100000000E-03 0.  1.
         12    1    3    3    0    0 -0.12489425495E+01  0.18457587722E+02 -0.32374128122E+02  0.37287083202E+02  0.00000000000E+00 0. -1.
</event>
<event>
 7    1  0.6841384E-013  0.5930192E+02  0.7816164E-02  0.1266605E+00
        -11   -1    0    0    0    0  0.00000000000E+00  0.00000000000E+00  0.45593999997E+02  0.45594000000E+02  0.51100000000E-03 0.  1.
         11   -1    0    0    0    0 -0.00000000000E+00 -0.00000000000E+00 -0.45593999997E+02  0.45594000000E+02  0.51100000000E-03 0. -1.
    9900012    2    1    2    0    0 -0.18531967306E+02  0.19645968881E+02 -0.16950635107E+02  0.59301922536E+02  0.49999960805E+02 0.  0.
        -12    1    1    2    0    0  0.18531967306E+02 -0.19645968881E+02  0.16950635107E+02  0.31886077464E+02  0.00000000000E+00 0.  1.
         11    1    3    3    0    0  0.83495917579E+01 -0.15150140801E+01 -0.10428398711E+02  0.13444792677E+02  0.51100000000E-03 0. -1.
        -11    1    3    3    0    0  0.37002713817E+00  0.36662659533E+01  0.91618567309E+01  0.98751225380E+01  0.51100000000E-03 0.  1.
         12    1    3    3    0    0 -0.27251586202E+02  0.17494717008E+02 -0.15684093127E+02  0.35982007322E+02  0.00000000000E+00 0. -1.
</event>
<event>
 7    1  0.6841384E-013  0.5930193E+02  0.7816164E-02  0.1266605E+00
        -11   -1    0    0    0    0  0.00000000000E+00  0.00000000000E+00  0.45593999997E+02  0.45594000000E+02  0.51100000000E-03 0. -1.
         11   -1    0    0    0    0 -0.00000000000E+00 -0.00000000000E+00 -0.45593999997E+02  0.45594000000E+02  0.51100000000E-03 0.  1.
    9900012    2    1    2    0    0 -0.25221263328E+02 -0.12034691522E+02  0.15354977538E+02  0.59301933151E+02  0.49999980163E+02 0.  0.
        -12    1    1    2    0    0  0.25221263328E+02  0.12034691522E+02 -0.15354977538E+02  0.31886066849E+02  0.00000000000E+00 0.  1.
         11    1    3    3    0    0  0.32915721040E+00  0.81327101045E+01  0.16721563972E+02  0.18597312172E+02  0.51100000000E-03 0. -1.
        -11    1    3    3    0    0 -0.42174837234E+00 -0.14841075720E+02  0.11678792209E+01  0.14892929274E+02  0.51100000000E-03 0.  1.
        -12    1    3    3    0    0 -0.25128672167E+02 -0.53263259069E+01 -0.25344656550E+01  0.25811691705E+02  0.00000000000E+00 0.  1.
</event>
<event>
 7    1  0.6841384E-013  0.5930194E+02  0.7816164E-02  0.1266605E+00
        -11   -1    0    0    0    0  0.00000000000E+00  0.00000000000E+00  0.45593999997E+02  0.45594000000E+02  0.51100000000E-03 0.  1.
         11   -1    0    0    0    0 -0.00000000000E+00 -0.00000000000E+00 -0.45593999997E+02  0.45594000000E+02  0.51100000000E-03 0. -1.
    9900012    2    1    2    0    0  0.25529354751E+02  0.18893975396E+02 -0.28267138232E+01  0.59301943936E+02  0.49999999833E+02 0.  0.
        -12    1    1    2    0    0 -0.25529354751E+02 -0.18893975396E+02  0.28267138232E+01  0.31886056064E+02  0.00000000000E+00 0.  1.
         11    1    3    3    0    0  0.35293319798E+02  0.11953788377E+02 -0.66814947535E+01  0.37857018521E+02  0.51100000000E-03 0. -1.
        -11    1    3    3    0    0  0.35951922476E+01 -0.21325252909E+01 -0.14853770758E+01  0.44361488627E+01  0.51100000000E-03 0.  1.
        -12    1    3    3    0    0 -0.13359157295E+02  0.90727123099E+01  0.53401580061E+01  0.17008776552E+02  0.00000000000E+00 0.  1.
</event>
<event>
 7    1  0.6841384E-013  0.5930177E+02  0.7816164E-02  0.1266605E+00
        -11   -1    0    0    0    0  0.00000000000E+00  0.00000000000E+00  0.45593999997E+02  0.45594000000E+02  0.51100000000E-03 0.  1.
         11   -1    0    0    0    0 -0.00000000000E+00 -0.00000000000E+00 -0.45593999997E+02  0.45594000000E+02  0.51100000000E-03 0. -1.
    9900012    2    1    2    0    0  0.11577558979E+02  0.29618346593E+02  0.23335066597E+01  0.59301771309E+02  0.49999685002E+02 0.  0.
        -12    1    1    2    0    0 -0.11577558979E+02 -0.29618346593E+02 -0.23335066597E+01  0.31886228691E+02  0.00000000000E+00 0.  1.
         11    1    3    3    0    0  0.12117325303E+02  0.12655670545E+02  0.81050257694E+01  0.19305103274E+02  0.51100000000E-03 0. -1.
        -11    1    3    3    0    0  0.17608140229E+02  0.85947085932E+01 -0.28199442381E+01  0.19795648610E+02  0.51100000000E-03 0.  1.
        -12    1    3    3    0    0 -0.18147906553E+02  0.83679674549E+01 -0.29515748716E+01  0.20201019425E+02  0.00000000000E+00 0.  1.
</event>
<event>
 7    1  0.6841384E-013  0.5930193E+02  0.7816164E-02  0.1266605E+00
        -11   -1    0    0    0    0  0.00000000000E+00  0.00000000000E+00  0.45593999997E+02  0.45594000000E+02  0.51100000000E-03 0.  1.
         11   -1    0    0    0    0 -0.00000000000E+00 -0.00000000000E+00 -0.45593999997E+02  0.45594000000E+02  0.51100000000E-03 0. -1.
    9900012    2    1    2    0    0 -0.22203491633E+02  0.12408287049E+02 -0.19229160335E+02  0.59301933523E+02  0.49999980842E+02 0.  0.
        -12    1    1    2    0    0  0.22203491633E+02 -0.12408287049E+02  0.19229160335E+02  0.31886066477E+02  0.00000000000E+00 0.  1.
         11    1    3    3    0    0  0.59417829661E+01  0.34613885891E+01 -0.13566618223E+02  0.15209836490E+02  0.51100000000E-03 0. -1.
        -11    1    3    3    0    0 -0.32154535555E+02  0.15481501366E+02 -0.24239992798E+01  0.35769635364E+02  0.51100000000E-03 0.  1.
         12    1    3    3    0    0  0.40092609565E+01 -0.65346029057E+01 -0.32385428326E+01  0.83224616690E+01  0.00000000000E+00 0. -1.
</event>
<event>
 7    1  0.6841384E-013  0.5930199E+02  0.7816164E-02  0.1266605E+00
        -11   -1    0    0    0    0  0.00000000000E+00  0.00000000000E+00  0.45593999997E+02  0.45594000000E+02  0.51100000000E-03 0.  1.
         11   -1    0    0    0    0 -0.00000000000E+00 -0.00000000000E+00 -0.45593999997E+02  0.45594000000E+02  0.51100000000E-03 0. -1.
    9900012    2    1    2    0    0 -0.36622293245E+01 -0.26306316983E+02 -0.17643225358E+02  0.59301989935E+02  0.50000083724E+02 0.  0.
        -12    1    1    2    0    0  0.36622293245E+01  0.26306316983E+02  0.17643225358E+02  0.31886010065E+02  0.00000000000E+00 0.  1.
         11    1    3    3    0    0 -0.86540715445E+01 -0.90106865025E+00 -0.95449599372E+01  0.12915538683E+02  0.51100000000E-03 0. -1.
        -11    1    3    3    0    0 -0.11965209599E+02 -0.76623469993E+01 -0.15229802776E+02  0.20828458780E+02  0.51100000000E-03 0.  1.
        -12    1    3    3    0    0  0.16957051819E+02 -0.17742901333E+02  0.71315373560E+01  0.25557992472E+02  0.00000000000E+00 0.  1.
</event>
<event>
 7    1  0.6841384E-013  0.5930197E+02  0.7816164E-02  0.1266605E+00
        -11   -1    0    0    0    0  0.00000000000E+00  0.00000000000E+00  0.45593999997E+02  0.45594000000E+02  0.51100000000E-03 0.  1.
         11   -1    0    0    0    0 -0.00000000000E+00 -0.00000000000E+00 -0.45593999997E+02  0.45594000000E+02  0.51100000000E-03 0. -1.
    9900012    2    1    2    0    0  0.92840086413E+01  0.23978156099E+02 -0.18856664789E+02  0.59301974952E+02  0.50000056399E+02 0.  0.
        -12    1    1    2    0    0 -0.92840086413E+01 -0.23978156099E+02  0.18856664789E+02  0.31886025048E+02  0.00000000000E+00 0.  1.
         11    1    3    3    0    0  0.86599445909E+01  0.86669638023E+01  0.67978933124E+01  0.14011504402E+02  0.51100000000E-03 0.  1.
        -11    1    3    3    0    0 -0.15889958383E+02  0.18325547135E+01 -0.11572910518E+02  0.19742879534E+02  0.51100000000E-03 0. -1.
         12    1    3    3    0    0  0.16514022433E+02  0.13478637584E+02 -0.14081647584E+02  0.25547591016E+02  0.00000000000E+00 0. -1.
</event>
<event>
 7    1  0.6841384E-013  0.5930192E+02  0.7816164E-02  0.1266605E+00
        -11   -1    0    0    0    0  0.00000000000E+00  0.00000000000E+00  0.45593999997E+02  0.45594000000E+02  0.51100000000E-03 0. -1.
         11   -1    0    0    0    0 -0.00000000000E+00 -0.00000000000E+00 -0.45593999997E+02  0.45594000000E+02  0.51100000000E-03 0.  1.
    9900012    2    1    2    0    0  0.14076030463E+00  0.31850120714E+02 -0.15072592163E+01  0.59301924147E+02  0.49999963742E+02 0.  0.
        -12    1    1    2    0    0 -0.14076030463E+00 -0.31850120714E+02  0.15072592163E+01  0.31886075853E+02  0.00000000000E+00 0.  1.
         11    1    3    3    0    0  0.65671241354E+01 -0.81373556787E+01 -0.85903946283E+01  0.13532869503E+02  0.51100000000E-03 0. -1.
        -11    1    3    3    0    0 -0.55779852474E+01  0.65517779533E+01 -0.52976050618E+01  0.10104668892E+02  0.51100000000E-03 0.  1.
        -12    1    3    3    0    0 -0.84837858331E+00  0.33435698440E+02  0.12380740474E+02  0.35664385752E+02  0.00000000000E+00 0.  1.
</event>
<event>
 7    1  0.6841384E-013  0.5930199E+02  0.7816164E-02  0.1266605E+00
        -11   -1    0    0    0    0  0.00000000000E+00  0.00000000000E+00  0.45593999997E+02  0.45594000000E+02  0.51100000000E-03 0.  1.
         11   -1    0    0    0    0 -0.00000000000E+00 -0.00000000000E+00 -0.45593999997E+02  0.45594000000E+02  0.51100000000E-03 0. -1.
    9900012    2    1    2    0    0  0.49655310205E+01 -0.13693954566E+01 -0.31467215188E+02  0.59301994074E+02  0.50000091271E+02 0.  0.
        -12    1    1    2    0    0 -0.49655310205E+01  0.13693954566E+01  0.31467215188E+02  0.31886005926E+02  0.00000000000E+00 0.  1.
         11    1    3    3    0    0 -0.12680880127E+02 -0.18677300557E+01 -0.30705617777E+02  0.33273534523E+02  0.51100000000E-03 0.  1.
        -11    1    3    3    0    0  0.10223206963E+02 -0.46069044519E+01 -0.85645088467E+01  0.14109866806E+02  0.51100000000E-03 0. -1.
        -12    1    3    3    0    0  0.74232041849E+01  0.51052390510E+01  0.78029114351E+01  0.11918592744E+02  0.00000000000E+00 0.  1.
</event>
<event>
 7    1  0.6841384E-013  0.5930209E+02  0.7816164E-02  0.1266604E+00
        -11   -1    0    0    0    0  0.00000000000E+00  0.00000000000E+00  0.45593999997E+02  0.45594000000E+02  0.51100000000E-03 0.  1.
         11   -1    0    0    0    0 -0.00000000000E+00 -0.00000000000E+00 -0.45593999997E+02  0.45594000000E+02  0.51100000000E-03 0. -1.
    9900012    2    1    2    0    0 -0.83804483329E+01 -0.16472409212E+02 -0.25983433703E+02  0.59302093921E+02  0.50000273368E+02 0.  0.
        -12    1    1    2    0    0  0.83804483329E+01  0.16472409212E+02  0.25983433703E+02  0.31885906079E+02  0.00000000000E+00 0.  1.
         11    1    3    3    0    0 -0.63600899545E+01  0.14640747147E+01 -0.11149042401E+02  0.12918800475E+02  0.51100000000E-03 0.  1.
        -11    1    3    3    0    0 -0.80016667823E+01  0.64577721431E+01 -0.18337197945E+02  0.21023375588E+02  0.51100000000E-03 0. -1.
        -12    1    3    3    0    0  0.59813084038E+01 -0.24394256069E+02  0.35028066432E+01  0.25359917858E+02  0.00000000000E+00 0.  1.
</event>
<event>
 7    1  0.6841384E-013  0.5930203E+02  0.7816164E-02  0.1266604E+00
        -11   -1    0    0    0    0  0.00000000000E+00  0.00000000000E+00  0.45593999997E+02  0.45594000000E+02  0.51100000000E-03 0.  1.
         11   -1    0    0    0    0 -0.00000000000E+00 -0.00000000000E+00 -0.45593999997E+02  0.45594000000E+02  0.51100000000E-03 0. -1.
    9900012    2    1    2    0    0 -0.14067805680E+02 -0.28569018437E+02 -0.16196235352E+01  0.59302028923E+02  0.50000154829E+02 0.  0.
        -12    1    1    2    0    0  0.14067805680E+02  0.28569018437E+02  0.16196235352E+01  0.31885971077E+02  0.00000000000E+00 0.  1.
         11    1    3    3    0    0  0.13429551276E+02 -0.14463751310E+02 -0.14000890862E+01  0.19786692476E+02  0.51100000000E-03 0. -1.
        -11    1    3    3    0    0  0.31847248979E+01 -0.43220066419E+01  0.44517199837E+01  0.69742401136E+01  0.51100000000E-03 0.  1.
        -12    1    3    3    0    0 -0.30682081854E+02 -0.97832604852E+01 -0.46712544328E+01  0.32541096333E+02  0.00000000000E+00 0.  1.
</event>
<event>
 7    1  0.6841384E-013  0.5930177E+02  0.7816164E-02  0.1266605E+00
        -11   -1    0    0    0    0  0.00000000000E+00  0.00000000000E+00  0.45593999997E+02  0.45594000000E+02  0.51100000000E-03 0.  1.
         11   -1    0    0    0    0 -0.00000000000E+00 -0.00000000000E+00 -0.45593999997E+02  0.45594000000E+02  0.51100000000E-03 0. -1.
    9900012    2    1    2    0    0 -0.28383157639E+02 -0.14530092863E+02 -0.65851240393E-01  0.59301771428E+02  0.49999685218E+02 0.  0.
        -12    1    1    2    0    0  0.28383157639E+02  0.14530092863E+02  0.65851240393E-01  0.31886228572E+02  0.00000000000E+00 0.  1.
         11    1    3    3    0    0 -0.11219757410E+02 -0.13982407490E+01 -0.20175492903E+00  0.11308348192E+02  0.51100000000E-03 0. -1.
        -11    1    3    3    0    0 -0.71434447990E+01  0.11577010586E+02 -0.12511883919E+02  0.18482511116E+02  0.51100000000E-03 0.  1.
         12    1    3    3    0    0 -0.10019955430E+02 -0.24708862700E+02  0.12647787607E+02  0.29510912120E+02  0.00000000000E+00 0. -1.
</event>
<event>
 7    1  0.6841384E-013  0.5930194E+02  0.7816164E-02  0.1266605E+00
        -11   -1    0    0    0    0  0.00000000000E+00  0.00000000000E+00  0.45593999997E+02  0.45594000000E+02  0.51100000000E-03 0. -1.
         11   -1    0    0    0    0 -0.00000000000E+00 -0.00000000000E+00 -0.45593999997E+02  0.45594000000E+02  0.51100000000E-03 0.  1.
    9900012    2    1    2    0    0  0.26007003648E+02 -0.18389830052E+02  0.14732742355E+01  0.59301943094E+02  0.49999998297E+02 0.  0.
        -12    1    1    2    0    0 -0.26007003648E+02  0.18389830052E+02 -0.14732742355E+01  0.31886056906E+02  0.00000000000E+00 0.  1.
         11    1    3    3    0    0  0.17225541920E+02  0.78639576763E+01 -0.67037746546E+00  0.18947573222E+02  0.51100000000E-03 0. -1.
        -11    1    3    3    0    0  0.14627881478E+02 -0.14271364617E+02 -0.96076359906E+01  0.22582148572E+02  0.51100000000E-03 0.  1.
         12    1    3    3    0    0 -0.58464197505E+01 -0.11982423111E+02  0.11751287692E+02  0.17772221300E+02  0.00000000000E+00 0. -1.
</event>
<event>
 7    1  0.6841384E-013  0.5930191E+02  0.7816164E-02  0.1266605E+00
        -11   -1    0    0    0    0  0.00000000000E+00  0.00000000000E+00  0.45593999997E+02  0.45594000000E+02  0.51100000000E-03 0.  1.
         11   -1    0    0    0    0 -0.00000000000E+00 -0.00000000000E+00 -0.45593999997E+02  0.45594000000E+02  0.51100000000E-03 0. -1.
    9900012    2    1    2    0    0 -0.99008701387E+01  0.41106073826E+01 -0.30029958077E+02  0.59301910483E+02  0.49999938823E+02 0.  0.
        -12    1    1    2    0    0  0.99008701387E+01 -0.41106073826E+01  0.30029958077E+02  0.31886089517E+02  0.00000000000E+00 0.  1.
         11    1    3    3    0    0 -0.11228115098E+02  0.24340454101E+02 -0.86746839090E+01  0.28174073466E+02  0.51100000000E-03 0.  1.
        -11    1    3    3    0    0 -0.41281698157E+01 -0.11521755411E+02 -0.13271835582E+02  0.18053649319E+02  0.51100000000E-03 0. -1.
        -12    1    3    3    0    0  0.54554147750E+01 -0.87080913073E+01 -0.80834385863E+01  0.13074187698E+02  0.00000000000E+00 0.  1.
</event>
<event>
 7    1  0.6841384E-013  0.5930197E+02  0.7816164E-02  0.1266605E+00
        -11   -1    0    0    0    0  0.00000000000E+00  0.00000000000E+00  0.45593999997E+02  0.45594000000E+02  0.51100000000E-03 0.  1.
         11   -1    0    0    0    0 -0.00000000000E+00 -0.00000000000E+00 -0.45593999997E+02  0.45594000000E+02  0.51100000000E-03 0. -1.
    9900012    2    1    2    0    0  0.43087194459E+00  0.20886343146E+02 -0.24089285799E+02  0.59301973735E+02  0.50000054179E+02 0.  0.
        -12    1    1    2    0    0 -0.43087194459E+00 -0.20886343146E+02  0.24089285799E+02  0.31886026265E+02  0.00000000000E+00 0.  1.
         11    1    3    3    0    0 -0.22206245186E+01 -0.76438089150E+01 -0.12502513109E+02  0.14821329977E+02  0.51100000000E-03 0. -1.
        -11    1    3    3    0    0 -0.39783868722E+01  0.24935908141E+01  0.93209133026E+01  0.10436713195E+02  0.51100000000E-03 0.  1.
         12    1    3    3    0    0  0.66298833354E+01  0.26036561247E+02 -0.20907685993E+02  0.34043930563E+02  0.00000000000E+00 0. -1.
</event>
<event>
 7    1  0.6841384E-013  0.5930193E+02  0.7816164E-02  0.1266605E+00
        -11   -1    0    0    0    0  0.00000000000E+00  0.00000000000E+00  0.45593999997E+02  0.45594000000E+02  0.51100000000E-03 0.  1.
         11   -1    0    0    0    0 -0.00000000000E+00 -0.00000000000E+00 -0.45593999997E+02  0.45594000000E+02  0.51100000000E-03 0. -1.
    9900012    2    1    2    0    0  0.50531340179E+01  0.23845341912E+02 -0.20556920805E+02  0.59301929573E+02  0.49999973637E+02 0.  0.
        -12    1    1    2    0    0 -0.50531340179E+01 -0.23845341912E+02  0.20556920805E+02  0.31886070427E+02  0.00000000000E+00 0.  1.
         11    1    3    3    0    0  0.18332217536E+02  0.47651198798E+01 -0.15282463143E+02  0.24337835714E+02  0.51100000000E-03 0. -1.
        -11    1    3    3    0    0  0.13243797365E+01  0.19238951619E+02  0.41947493989E+00  0.19289043537E+02  0.51100000000E-03 0.  1.
        -12    1    3    3    0    0 -0.14603463255E+02 -0.15872958656E+00 -0.56939326020E+01  0.15675050322E+02  0.00000000000E+00 0.  1.
</event>
<event>
 7    1  0.6841384E-013  0.5930195E+02  0.7816164E-02  0.1266605E+00
        -11   -1    0    0    0    0  0.00000000000E+00  0.00000000000E+00  0.45593999997E+02  0.45594000000E+02  0.51100000000E-03 0.  1.
         11   -1    0    0    0    0 -0.00000000000E+00 -0.00000000000E+00 -0.45593999997E+02  0.45594000000E+02  0.51100000000E-03 0. -1.
    9900012    2    1    2    0    0  0.62669128839E+01 -0.11651117020E+02 -0.29012024174E+02  0.59301948636E+02  0.50000008404E+02 0.  0.
        -12    1    1    2    0    0 -0.62669128839E+01  0.11651117020E+02  0.29012024174E+02  0.31886051364E+02  0.00000000000E+00 0.  1.
         11    1    3    3    0    0 -0.77464731590E+01 -0.11402465260E+01  0.53037615018E+01  0.94571610366E+01  0.51100000000E-03 0.  1.
        -11    1    3    3    0    0 -0.44939826487E+01 -0.12732371954E+02 -0.26281092812E+02  0.29546658275E+02  0.51100000000E-03 0. -1.
        -12    1    3    3    0    0  0.18507368692E+02  0.22215014596E+01 -0.80346928645E+01  0.20298129324E+02  0.00000000000E+00 0.  1.
</event>
<event>
 7    1  0.6841384E-013  0.5930197E+02  0.7816164E-02  0.1266605E+00
        -11   -1    0    0    0    0  0.00000000000E+00  0.00000000000E+00  0.45593999997E+02  0.45594000000E+02  0.51100000000E-03 0.  1.
         11   -1    0    0    0    0 -0.00000000000E+00 -0.00000000000E+00 -0.45593999997E+02  0.45594000000E+02  0.51100000000E-03 0. -1.
    9900012    2    1    2    0    0  0.13809469567E+02  0.13350612000E+02 -0.25451501157E+02  0.59301965414E+02  0.50000039004E+02 0.  0.
        -12    1    1    2    0    0 -0.13809469567E+02 -0.13350612000E+02  0.25451501157E+02  0.31886034586E+02  0.00000000000E+00 0.  1.
         11    1    3    3    0    0 -0.15327100825E+02  0.16098711130E+02 -0.63935954501E+01  0.23129344625E+02  0.51100000000E-03 0. -1.
        -11    1    3    3    0    0  0.17641744054E+02  0.28646689341E+01 -0.98118286127E+01  0.20388953930E+02  0.51100000000E-03 0.  1.
        -12    1    3    3    0    0  0.11494826338E+02 -0.56127680643E+01 -0.92460770939E+01  0.15783666859E+02  0.00000000000E+00 0.  1.
</event>
<event>
 7    1  0.6841384E-013  0.5930195E+02  0.7816164E-02  0.1266605E+00
        -11   -1    0    0    0    0  0.00000000000E+00  0.00000000000E+00  0.45593999997E+02  0.45594000000E+02  0.51100000000E-03 0. -1.
         11   -1    0    0    0    0 -0.00000000000E+00 -0.00000000000E+00 -0.45593999997E+02  0.45594000000E+02  0.51100000000E-03 0.  1.
    9900012    2    1    2    0    0  0.16009853077E+02  0.16652901151E+02  0.21979209958E+02  0.59301950030E+02  0.50000010947E+02 0.  0.
        -12    1    1    2    0    0 -0.16009853077E+02 -0.16652901151E+02 -0.21979209958E+02  0.31886049970E+02  0.00000000000E+00 0.  1.
         11    1    3    3    0    0  0.49446604541E+01 -0.35779232370E+01  0.11803254970E+02  0.13287890346E+02  0.51100000000E-03 0. -1.
        -11    1    3    3    0    0 -0.49323969035E+01  0.26722398660E+02  0.93225348195E+01  0.28728466459E+02  0.51100000000E-03 0.  1.
         12    1    3    3    0    0  0.15997589526E+02 -0.64915742721E+01  0.85342016862E+00  0.17285593226E+02  0.00000000000E+00 0. -1.
</event>
<event>
 7    1  0.7679207E-013  0.5930194E+02  0.7816164E-02  0.1266605E+00
        -11   -1    0    0    0    0  0.00000000000E+00  0.00000000000E+00  0.45593999997E+02  0.45594000000E+02  0.51100000000E-03 0.  1.
         11   -1    0    0    0    0 -0.00000000000E+00 -0.00000000000E+00 -0.45593999997E+02  0.45594000000E+02  0.51100000000E-03 0. -1.
    9900012    2    1    2    0    0 -0.79225630430E+01  0.30693751833E+02 -0.34420528276E+01  0.59301935106E+02  0.49999983729E+02 0.  0.
        -12    1    1    2    0    0  0.79225630430E+01 -0.30693751833E+02  0.34420528276E+01  0.31886064894E+02  0.00000000000E+00 0.  1.
         11    1    3    3    0    0 -0.13450264761E+02  0.26435886975E+01 -0.70187755721E+01  0.15400045264E+02  0.51100000000E-03 0. -1.
        -11    1    3    3    0    0  0.11982308074E+02 -0.12943824523E+01 -0.43748455528E+01  0.12821482230E+02  0.51100000000E-03 0.  1.
         12    1    3    3    0    0 -0.64546063562E+01  0.29344545587E+02  0.79515682974E+01  0.31080407612E+02  0.00000000000E+00 0. -1.
</event>
<event>
 7    1  0.6841384E-013  0.5930217E+02  0.7816164E-02  0.1266604E+00
        -11   -1    0    0    0    0  0.00000000000E+00  0.00000000000E+00  0.45593999997E+02  0.45594000000E+02  0.51100000000E-03 0. -1.
         11   -1    0    0    0    0 -0.00000000000E+00 -0.00000000000E+00 -0.45593999997E+02  0.45594000000E+02  0.51100000000E-03 0.  1.
    9900012    2    1    2    0    0  0.19930394218E+02  0.24837989129E+02 -0.15999114130E+01  0.59302171891E+02  0.50000415566E+02 0.  0.
        -12    1    1    2    0    0 -0.19930394218E+02 -0.24837989129E+02  0.15999114130E+01  0.31885828109E+02  0.00000000000E+00 0.  1.
         11    1    3    3    0    0 -0.57714790427E+00  0.16237908406E+02  0.14489967222E+02  0.21770666490E+02  0.51100000000E-03 0. -1.
        -11    1    3    3    0    0  0.65373294475E+01  0.13419373872E+01  0.69443459209E+01  0.96312726462E+01  0.51100000000E-03 0.  1.
        -12    1    3    3    0    0  0.13970212675E+02  0.72581433365E+01 -0.23034224555E+02  0.27900232754E+02  0.00000000000E+00 0.  1.
</event>
<event>
 7    1  0.6841384E-013  0.5930197E+02  0.7816164E-02  0.1266605E+00
        -11   -1    0    0    0    0  0.00000000000E+00  0.00000000000E+00  0.45593999997E+02  0.45594000000E+02  0.51100000000E-03 0.  1.
         11   -1    0    0    0    0 -0.00000000000E+00 -0.00000000000E+00 -0.45593999997E+02  0.45594000000E+02  0.51100000000E-03 0. -1.
    9900012    2    1    2    0    0 -0.23782327549E+02  0.34208805046E+01 -0.20962284919E+02  0.59301969891E+02  0.50000047168E+02 0.  0.
        -12    1    1    2    0    0  0.23782327549E+02 -0.34208805046E+01  0.20962284919E+02  0.31886030109E+02  0.00000000000E+00 0.  1.
         11    1    3    3    0    0 -0.13182030610E+02 -0.10850083832E+02 -0.11796782071E+02  0.20752212355E+02  0.51100000000E-03 0. -1.
        -11    1    3    3    0    0 -0.20713799845E+02  0.15343820846E+02 -0.15132032997E+01  0.25822163478E+02  0.51100000000E-03 0.  1.
         12    1    3    3    0    0  0.10113502906E+02 -0.10728565094E+01 -0.76522995484E+01  0.12727594057E+02  0.00000000000E+00 0. -1.
</event>
<event>
 7    1  0.6841384E-013  0.5930202E+02  0.7816164E-02  0.1266604E+00
        -11   -1    0    0    0    0  0.00000000000E+00  0.00000000000E+00  0.45593999997E+02  0.45594000000E+02  0.51100000000E-03 0.  1.
         11   -1    0    0    0    0 -0.00000000000E+00 -0.00000000000E+00 -0.45593999997E+02  0.45594000000E+02  0.51100000000E-03 0. -1.
    9900012    2    1    2    0    0 -0.66280843369E+01 -0.17042483660E+02 -0.26121595946E+02  0.59302023050E+02  0.50000144117E+02 0.  0.
        -12    1    1    2    0    0  0.66280843369E+01  0.17042483660E+02  0.26121595946E+02  0.31885976950E+02  0.00000000000E+00 0.  1.
         11    1    3    3    0    0  0.83188651133E+01  0.83988214388E+01  0.81713895496E+00  0.11849533099E+02  0.51100000000E-03 0. -1.
        -11    1    3    3    0    0 -0.12625133124E+02 -0.34117698668E+01 -0.67635033008E+00  0.13095480520E+02  0.51100000000E-03 0.  1.
         12    1    3    3    0    0 -0.23218163261E+01 -0.22029535232E+02 -0.26262384571E+02  0.34357009430E+02  0.00000000000E+00 0. -1.
</event>
<event>
 7    1  0.6841384E-013  0.5930194E+02  0.7816164E-02  0.1266605E+00
        -11   -1    0    0    0    0  0.00000000000E+00  0.00000000000E+00  0.45593999997E+02  0.45594000000E+02  0.51100000000E-03 0.  1.
         11   -1    0    0    0    0 -0.00000000000E+00 -0.00000000000E+00 -0.45593999997E+02  0.45594000000E+02  0.51100000000E-03 0. -1.
    9900012    2    1    2    0    0 -0.10696759078E+02  0.23123083121E+02 -0.19173496848E+02  0.59301943343E+02  0.49999998751E+02 0.  0.
        -12    1    1    2    0    0  0.10696759078E+02 -0.23123083121E+02  0.19173496848E+02  0.31886056657E+02  0.00000000000E+00 0.  1.
         11    1    3    3    0    0  0.28213506925E+01  0.40181707737E+01 -0.99898076245E+01  0.11131126301E+02  0.51100000000E-03 0. -1.
        -11    1    3    3    0    0  0.45382450892E+01  0.26702406188E+02 -0.91249479020E+01  0.28581092337E+02  0.51100000000E-03 0.  1.
        -12    1    3    3    0    0 -0.18056354859E+02 -0.75974938407E+01 -0.58741321218E-01  0.19589724705E+02  0.00000000000E+00 0.  1.
</event>
<event>
 7    1  0.6841384E-013  0.5930192E+02  0.7816164E-02  0.1266605E+00
        -11   -1    0    0    0    0  0.00000000000E+00  0.00000000000E+00  0.45593999997E+02  0.45594000000E+02  0.51100000000E-03 0.  1.
         11   -1    0    0    0    0 -0.00000000000E+00 -0.00000000000E+00 -0.45593999997E+02  0.45594000000E+02  0.51100000000E-03 0. -1.
    9900012    2    1    2    0    0  0.41161224942E+01  0.12028910839E+01 -0.31596398480E+02  0.59301924540E+02  0.49999964459E+02 0.  0.
        -12    1    1    2    0    0 -0.41161224942E+01 -0.12028910839E+01  0.31596398480E+02  0.31886075460E+02  0.00000000000E+00 0.  1.
         11    1    3    3    0    0 -0.56200961189E+01  0.33804333472E+01 -0.28749892162E+01  0.71608919315E+01  0.51100000000E-03 0. -1.
        -11    1    3    3    0    0 -0.12473284384E+02 -0.10357147863E+02 -0.18269791375E+01  0.16315366628E+02  0.51100000000E-03 0.  1.
         12    1    3    3    0    0  0.22209502997E+02  0.81796056000E+01 -0.26894430126E+02  0.35825665980E+02  0.00000000000E+00 0. -1.
</event>
<event>
 7    1  0.6841384E-013  0.5930195E+02  0.7816164E-02  0.1266605E+00
        -11   -1    0    0    0    0  0.00000000000E+00  0.00000000000E+00  0.45593999997E+02  0.45594000000E+02  0.51100000000E-03 0.  1.
         11   -1    0    0    0    0 -0.00000000000E+00 -0.00000000000E+00 -0.45593999997E+02  0.45594000000E+02  0.51100000000E-03 0. -1.
    9900012    2    1    2    0    0 -0.75367325133E+01  0.26337049763E+02 -0.16318008602E+02  0.59301953962E+02  0.50000018118E+02 0.  0.
        -12    1    1    2    0    0  0.75367325133E+01 -0.26337049763E+02  0.16318008602E+02  0.31886046038E+02  0.00000000000E+00 0.  1.
         11    1    3    3    0    0 -0.32285889817E+01  0.15555031372E+02 -0.29770954085E+02  0.33744518002E+02  0.51100000000E-03 0. -1.
        -11    1    3    3    0    0  0.37248108137E+01  0.30340114594E+01 -0.30091561477E+01  0.56687266750E+01  0.51100000000E-03 0.  1.
        -12    1    3    3    0    0 -0.80329543453E+01  0.77480069311E+01  0.16462101631E+02  0.19888709285E+02  0.00000000000E+00 0.  1.
</event>
<event>
 7    1  0.6841384E-013  0.5930173E+02  0.7816164E-02  0.1266606E+00
        -11   -1    0    0    0    0  0.00000000000E+00  0.00000000000E+00  0.45593999997E+02  0.45594000000E+02  0.51100000000E-03 0. -1.
         11   -1    0    0    0    0 -0.00000000000E+00 -0.00000000000E+00 -0.45593999997E+02  0.45594000000E+02  0.51100000000E-03 0.  1.
    9900012    2    1    2    0    0 -0.26531683221E+02  0.12529624466E+01  0.17641827501E+02  0.59301730118E+02  0.49999609879E+02 0.  0.
        -12    1    1    2    0    0  0.26531683221E+02 -0.12529624466E+01 -0.17641827501E+02  0.31886269882E+02  0.00000000000E+00 0.  1.
         11    1    3    3    0    0 -0.31500073032E+02  0.23559001137E+01  0.18177574926E+02  0.36444877511E+02  0.51100000000E-03 0. -1.
        -11    1    3    3    0    0 -0.80983272229E+01  0.32288982708E-01 -0.43563992944E+01  0.91957686716E+01  0.51100000000E-03 0.  1.
         12    1    3    3    0    0  0.13066717034E+02 -0.11352266498E+01  0.38206518694E+01  0.13661083936E+02  0.00000000000E+00 0. -1.
</event>
<event>
 7    1  0.6841384E-013  0.5930193E+02  0.7816164E-02  0.1266605E+00
        -11   -1    0    0    0    0  0.00000000000E+00  0.00000000000E+00  0.45593999997E+02  0.45594000000E+02  0.51100000000E-03 0.  1.
         11   -1    0    0    0    0 -0.00000000000E+00 -0.00000000000E+00 -0.45593999997E+02  0.45594000000E+02  0.51100000000E-03 0. -1.
    9900012    2    1    2    0    0  0.24417556136E+02  0.11374526754E+01  0.20474626983E+02  0.59301934135E+02  0.49999981958E+02 0.  0.
        -12    1    1    2    0    0 -0.24417556136E+02 -0.11374526754E+01 -0.20474626983E+02  0.31886065865E+02  0.00000000000E+00 0.  1.
         11    1    3    3    0    0  0.89062919158E+01  0.13160114273E+02  0.37823604245E+01  0.16334530725E+02  0.51100000000E-03 0. -1.
        -11    1    3    3    0    0 -0.80400028592E+01  0.48404663916E+01 -0.29209294324E+00  0.93892001477E+01  0.51100000000E-03 0.  1.
        -12    1    3    3    0    0  0.23551267080E+02 -0.16863127989E+02  0.16984359502E+02  0.33578203262E+02  0.00000000000E+00 0.  1.
</event>
<event>
 7    1  0.6841384E-013  0.5930179E+02  0.7816164E-02  0.1266605E+00
        -11   -1    0    0    0    0  0.00000000000E+00  0.00000000000E+00  0.45593999997E+02  0.45594000000E+02  0.51100000000E-03 0. -1.
         11   -1    0    0    0    0 -0.00000000000E+00 -0.00000000000E+00 -0.45593999997E+02  0.45594000000E+02  0.51100000000E-03 0.  1.
    9900012    2    1    2    0    0 -0.25791959972E+02  0.99363433162E+00  0.18722125686E+02  0.59301788268E+02  0.49999715932E+02 0.  0.
        -12    1    1    2    0    0  0.25791959972E+02 -0.99363433162E+00 -0.18722125686E+02  0.31886211732E+02  0.00000000000E+00 0.  1.
         11    1    3    3    0    0 -0.42800355681E+01  0.63774117793E+01  0.11931832734E+01  0.77726296742E+01  0.51100000000E-03 0. -1.
        -11    1    3    3    0    0 -0.26699792868E+02  0.76874218595E+01 -0.15496424923E+01  0.27827626312E+02  0.51100000000E-03 0.  1.
         12    1    3    3    0    0  0.51878684645E+01 -0.13071199307E+02  0.19078584905E+02  0.23701532282E+02  0.00000000000E+00 0. -1.
</event>
<event>
 7    1  0.6841384E-013  0.5930189E+02  0.7816164E-02  0.1266605E+00
        -11   -1    0    0    0    0  0.00000000000E+00  0.00000000000E+00  0.45593999997E+02  0.45594000000E+02  0.51100000000E-03 0. -1.
         11   -1    0    0    0    0 -0.00000000000E+00 -0.00000000000E+00 -0.45593999997E+02  0.45594000000E+02  0.51100000000E-03 0.  1.
    9900012    2    1    2    0    0 -0.66294671758E+01  0.31188332480E+02 -0.24892980590E+00  0.59301891991E+02  0.49999905097E+02 0.  0.
        -12    1    1    2    0    0  0.66294671758E+01 -0.31188332480E+02  0.24892980590E+00  0.31886108009E+02  0.00000000000E+00 0.  1.
         11    1    3    3    0    0 -0.16479443525E+02  0.15379284692E+02  0.17701350539E+02  0.28660639695E+02  0.51100000000E-03 0. -1.
        -11    1    3    3    0    0  0.79801853391E+01  0.57781210551E+01  0.16064951537E+00  0.98537226215E+01  0.51100000000E-03 0.  1.
        -12    1    3    3    0    0  0.18697910104E+01  0.10030926733E+02 -0.18110929860E+02  0.20787529674E+02  0.00000000000E+00 0.  1.
</event>
<event>
 7    1  0.6841384E-013  0.5930195E+02  0.7816164E-02  0.1266605E+00
        -11   -1    0    0    0    0  0.00000000000E+00  0.00000000000E+00  0.45593999997E+02  0.45594000000E+02  0.51100000000E-03 0.  1.
         11   -1    0    0    0    0 -0.00000000000E+00 -0.00000000000E+00 -0.45593999997E+02  0.45594000000E+02  0.51100000000E-03 0. -1.
    9900012    2    1    2    0    0 -0.27638078982E+02  0.12738992700E+02 -0.95170895129E+01  0.59301947600E+02  0.50000006515E+02 0.  0.
        -12    1    1    2    0    0  0.27638078982E+02 -0.12738992700E+02  0.95170895129E+01  0.31886052400E+02  0.00000000000E+00 0.  1.
         11    1    3    3    0    0 -0.26162041911E+02  0.19707801867E+02 -0.11934743548E+02  0.34860980984E+02  0.51100000000E-03 0. -1.
        -11    1    3    3    0    0 -0.10566742909E+02 -0.13345234583E+01  0.70637998941E+01  0.12780229958E+02  0.51100000000E-03 0.  1.
        -12    1    3    3    0    0  0.90907058371E+01 -0.56342857094E+01 -0.46461458585E+01  0.11660736658E+02  0.00000000000E+00 0.  1.
</event>
<event>
 7    1  0.6841384E-013  0.5930196E+02  0.7816164E-02  0.1266605E+00
        -11   -1    0    0    0    0  0.00000000000E+00  0.00000000000E+00  0.45593999997E+02  0.45594000000E+02  0.51100000000E-03 0. -1.
         11   -1    0    0    0    0 -0.00000000000E+00 -0.00000000000E+00 -0.45593999997E+02  0.45594000000E+02  0.51100000000E-03 0.  1.
    9900012    2    1    2    0    0 -0.26327254186E+02  0.84971428112E+01  0.15855399384E+02  0.59301961699E+02  0.50000032228E+02 0.  0.
        -12    1    1    2    0    0  0.26327254186E+02 -0.84971428112E+01 -0.15855399384E+02  0.31886038301E+02  0.00000000000E+00 0.  1.
         11    1    3    3    0    0 -0.17084906110E+02  0.66225822960E+01 -0.10868495779E+02  0.21304384850E+02  0.51100000000E-03 0. -1.
        -11    1    3    3    0    0 -0.13519083955E+01  0.10391192256E+02  0.19784324280E+01  0.10663898346E+02  0.51100000000E-03 0.  1.
        -12    1    3    3    0    0 -0.78904396802E+01 -0.85166317404E+01  0.24745462735E+02  0.27333678503E+02  0.00000000000E+00 0.  1.
</event>
<event>
 7    1  0.6841384E-013  0.5930194E+02  0.7816164E-02  0.1266605E+00
        -11   -1    0    0    0    0  0.00000000000E+00  0.00000000000E+00  0.45593999997E+02  0.45594000000E+02  0.51100000000E-03 0.  1.
         11   -1    0    0    0    0 -0.00000000000E+00 -0.00000000000E+00 -0.45593999997E+02  0.45594000000E+02  0.51100000000E-03 0. -1.
    9900012    2    1    2    0    0 -0.20327763448E+02  0.15497505799E+02 -0.19061213868E+02  0.59301944632E+02  0.50000001102E+02 0.  0.
        -12    1    1    2    0    0  0.20327763448E+02 -0.15497505799E+02  0.19061213868E+02  0.31886055368E+02  0.00000000000E+00 0.  1.
         11    1    3    3    0    0 -0.14457706975E+02 -0.24970379661E+00 -0.73748567003E+00  0.14478657684E+02  0.51100000000E-03 0. -1.
        -11    1    3    3    0    0 -0.65171663064E+01  0.20583676113E+02  0.40123508973E+01  0.21960422104E+02  0.51100000000E-03 0.  1.
         12    1    3    3    0    0  0.64710983282E+00 -0.48364665172E+01 -0.22336079096E+02  0.22862864844E+02  0.00000000000E+00 0. -1.
</event>
<event>
 7    1  0.6841384E-013  0.5930193E+02  0.7816164E-02  0.1266605E+00
        -11   -1    0    0    0    0  0.00000000000E+00  0.00000000000E+00  0.45593999997E+02  0.45594000000E+02  0.51100000000E-03 0.  1.
         11   -1    0    0    0    0 -0.00000000000E+00 -0.00000000000E+00 -0.45593999997E+02  0.45594000000E+02  0.51100000000E-03 0. -1.
    9900012    2    1    2    0    0 -0.27303547784E+02 -0.15163344897E+02 -0.64273391126E+01  0.59301930344E+02  0.49999975043E+02 0.  0.
        -12    1    1    2    0    0  0.27303547784E+02  0.15163344897E+02  0.64273391126E+01  0.31886069656E+02  0.00000000000E+00 0.  1.
         11    1    3    3    0    0 -0.27744430991E+02  0.75539848576E+01 -0.24401480182E+01  0.28857762575E+02  0.51100000000E-03 0. -1.
        -11    1    3    3    0    0 -0.74637721195E+01 -0.12876832713E+02  0.41192119852E+01  0.15443076850E+02  0.51100000000E-03 0.  1.
        -12    1    3    3    0    0  0.79046553259E+01 -0.98404970421E+01 -0.81064030796E+01  0.15001090918E+02  0.00000000000E+00 0.  1.
</event>
<event>
 7    1  0.6841384E-013  0.5930195E+02  0.7816164E-02  0.1266605E+00
        -11   -1    0    0    0    0  0.00000000000E+00  0.00000000000E+00  0.45593999997E+02  0.45594000000E+02  0.51100000000E-03 0. -1.
         11   -1    0    0    0    0 -0.00000000000E+00 -0.00000000000E+00 -0.45593999997E+02  0.45594000000E+02  0.51100000000E-03 0.  1.
    9900012    2    1    2    0    0  0.26260212614E+02  0.16119311348E+02  0.82030074594E+01  0.59301948249E+02  0.50000007699E+02 0.  0.
        -12    1    1    2    0    0 -0.26260212614E+02 -0.16119311348E+02 -0.82030074594E+01  0.31886051751E+02  0.00000000000E+00 0.  1.
         11    1    3    3    0    0  0.71936712945E+01  0.16083395654E+02  0.16441915045E+02  0.24098985312E+02  0.51100000000E-03 0. -1.
        -11    1    3    3    0    0  0.12948924999E+01  0.37576009812E+01  0.92036176477E+01  0.10025112956E+02  0.51100000000E-03 0.  1.
        -12    1    3    3    0    0  0.17771648820E+02 -0.37216852870E+01 -0.17442525234E+02  0.25177849981E+02  0.00000000000E+00 0.  1.
</event>
<event>
 7    1  0.6841384E-013  0.5930193E+02  0.7816164E-02  0.1266605E+00
        -11   -1    0    0    0    0  0.00000000000E+00  0.00000000000E+00  0.45593999997E+02  0.45594000000E+02  0.51100000000E-03 0.  1.
         11   -1    0    0    0    0 -0.00000000000E+00 -0.00000000000E+00 -0.45593999997E+02  0.45594000000E+02  0.51100000000E-03 0. -1.
    9900012    2    1    2    0    0  0.13210606963E+02  0.25527199351E+02  0.13804469912E+02  0.59301930430E+02  0.49999975201E+02 0.  0.
        -12    1    1    2    0    0 -0.13210606963E+02 -0.25527199351E+02 -0.13804469912E+02  0.31886069570E+02  0.00000000000E+00 0.  1.
         11    1    3    3    0    0  0.46578363451E+01 -0.53909127506E+01 -0.31903770847E+01  0.78061441125E+01  0.51100000000E-03 0.  1.
        -11    1    3    3    0    0  0.30184344241E+01  0.23566953841E+02 -0.78332540896E+01  0.25017436511E+02  0.51100000000E-03 0. -1.
        -12    1    3    3    0    0  0.55343361942E+01  0.73511582611E+01  0.24828101087E+02  0.26478349806E+02  0.00000000000E+00 0.  1.
</event>
<event>
 7    1  0.6841384E-013  0.5930194E+02  0.7816164E-02  0.1266605E+00
        -11   -1    0    0    0    0  0.00000000000E+00  0.00000000000E+00  0.45593999997E+02  0.45594000000E+02  0.51100000000E-03 0. -1.
         11   -1    0    0    0    0 -0.00000000000E+00 -0.00000000000E+00 -0.45593999997E+02  0.45594000000E+02  0.51100000000E-03 0.  1.
    9900012    2    1    2    0    0  0.28045384210E+02 -0.57407887387E+01 -0.14043522540E+02  0.59301941038E+02  0.49999994547E+02 0.  0.
        -12    1    1    2    0    0 -0.28045384210E+02  0.57407887387E+01  0.14043522540E+02  0.31886058962E+02  0.00000000000E+00 0.  1.
         11    1    3    3    0    0  0.16711954265E+02 -0.54481901997E+01  0.88459884712E+01  0.19678000511E+02  0.51100000000E-03 0. -1.
        -11    1    3    3    0    0  0.16935618139E+02 -0.35499257763E+01 -0.16086676180E+01  0.17378289517E+02  0.51100000000E-03 0.  1.
        -12    1    3    3    0    0 -0.56021881944E+01  0.32573272374E+01 -0.21280843394E+02  0.22245651010E+02  0.00000000000E+00 0.  1.
</event>
<event>
 7    1  0.6841384E-013  0.5930191E+02  0.7816164E-02  0.1266605E+00
        -11   -1    0    0    0    0  0.00000000000E+00  0.00000000000E+00  0.45593999997E+02  0.45594000000E+02  0.51100000000E-03 0. -1.
         11   -1    0    0    0    0 -0.00000000000E+00 -0.00000000000E+00 -0.45593999997E+02  0.45594000000E+02  0.51100000000E-03 0.  1.
    9900012    2    1    2    0    0  0.31212184019E+01 -0.30900973900E+02 -0.72187725407E+01  0.59301907902E+02  0.49999934116E+02 0.  0.
        -12    1    1    2    0    0 -0.31212184019E+01  0.30900973900E+02  0.72187725407E+01  0.31886092098E+02  0.00000000000E+00 0.  1.
         11    1    3    3    0    0  0.93654455772E+01 -0.11918147549E+02  0.40936080328E+01  0.15700682751E+02  0.51100000000E-03 0. -1.
        -11    1    3    3    0    0 -0.44054433843E+01 -0.28446207589E+02 -0.15943945021E+02  0.32905987916E+02  0.51100000000E-03 0.  1.
         12    1    3    3    0    0 -0.18387837909E+01  0.94633812381E+01  0.46315644479E+01  0.10695237235E+02  0.00000000000E+00 0. -1.
</event>
<event>
 7    1  0.6841384E-013  0.5930196E+02  0.7816164E-02  0.1266605E+00
        -11   -1    0    0    0    0  0.00000000000E+00  0.00000000000E+00  0.45593999997E+02  0.45594000000E+02  0.51100000000E-03 0. -1.
         11   -1    0    0    0    0 -0.00000000000E+00 -0.00000000000E+00 -0.45593999997E+02  0.45594000000E+02  0.51100000000E-03 0.  1.
    9900012    2    1    2    0    0 -0.25385567826E+02  0.18747775983E+02 -0.45622023980E+01  0.59301955264E+02  0.50000020492E+02 0.  0.
        -12    1    1    2    0    0  0.25385567826E+02 -0.18747775983E+02  0.45622023980E+01  0.31886044736E+02  0.00000000000E+00 0.  1.
         11    1    3    3    0    0  0.15281822133E+01  0.29836464685E+00 -0.63794788822E+00  0.16826586429E+01  0.51100000000E-03 0. -1.
        -11    1    3    3    0    0  0.80699814160E+01 -0.42685356056E+01 -0.12054570378E+02  0.15121430605E+02  0.51100000000E-03 0.  1.
         12    1    3    3    0    0 -0.34983731456E+02  0.22717946942E+02  0.81303158684E+01  0.42497866016E+02  0.00000000000E+00 0. -1.
</event>
<event>
 7    1  0.6841384E-013  0.5930195E+02  0.7816164E-02  0.1266605E+00
        -11   -1    0    0    0    0  0.00000000000E+00  0.00000000000E+00  0.45593999997E+02  0.45594000000E+02  0.51100000000E-03 0.  1.
         11   -1    0    0    0    0 -0.00000000000E+00 -0.00000000000E+00 -0.45593999997E+02  0.45594000000E+02  0.51100000000E-03 0. -1.
    9900012    2    1    2    0    0 -0.18262429708E+02  0.19706675320E+02 -0.17171221570E+02  0.59301949113E+02  0.50000009274E+02 0.  0.
        -12    1    1    2    0    0  0.18262429708E+02 -0.19706675320E+02  0.17171221570E+02  0.31886050887E+02  0.00000000000E+00 0.  1.
         11    1    3    3    0    0  0.83755693671E+01  0.96380494904E+01 -0.11850335014E+02  0.17420464988E+02  0.51100000000E-03 0. -1.
        -11    1    3    3    0    0 -0.17061973325E+02  0.19946648728E+02 -0.88112866928E+01  0.27687876456E+02  0.51100000000E-03 0.  1.
        -12    1    3    3    0    0 -0.95760257492E+01 -0.98780228983E+01  0.34904001370E+01  0.14193607668E+02  0.00000000000E+00 0.  1.
</event>
<event>
 7    1  0.6841384E-013  0.5930196E+02  0.7816164E-02  0.1266605E+00
        -11   -1    0    0    0    0  0.00000000000E+00  0.00000000000E+00  0.45593999997E+02  0.45594000000E+02  0.51100000000E-03 0.  1.
         11   -1    0    0    0    0 -0.00000000000E+00 -0.00000000000E+00 -0.45593999997E+02  0.45594000000E+02  0.51100000000E-03 0. -1.
    9900012    2    1    2    0    0  0.22043097069E+02  0.20096078396E+02  0.11268044351E+02  0.59301963577E+02  0.50000035653E+02 0.  0.
        -12    1    1    2    0    0 -0.22043097069E+02 -0.20096078396E+02 -0.11268044351E+02  0.31886036423E+02  0.00000000000E+00 0.  1.
         11    1    3    3    0    0 -0.77954152399E+01  0.95104249912E+01  0.11804838421E+01  0.12353551094E+02  0.51100000000E-03 0. -1.
        -11    1    3    3    0    0  0.27711936656E+01  0.30555329125E+00  0.16962122127E+02  0.17189719731E+02  0.51100000000E-03 0.  1.
         12    1    3    3    0    0  0.27067318643E+02  0.10280100113E+02 -0.68745616173E+01  0.29758692752E+02  0.00000000000E+00 0. -1.
</event>
<event>
 7    1  0.6841384E-013  0.5930196E+02  0.7816164E-02  0.1266605E+00
        -11   -1    0    0    0    0  0.00000000000E+00  0.00000000000E+00  0.45593999997E+02  0.45594000000E+02  0.51100000000E-03 0.  1.
         11   -1    0    0    0    0 -0.00000000000E+00 -0.00000000000E+00 -0.45593999997E+02  0.45594000000E+02  0.51100000000E-03 0. -1.
    9900012    2    1    2    0    0  0.14731856272E+02  0.28249335753E+02 -0.12912086073E+01  0.59301956354E+02  0.50000022480E+02 0.  0.
        -12    1    1    2    0    0 -0.14731856272E+02 -0.28249335753E+02  0.12912086073E+01  0.31886043646E+02  0.00000000000E+00 0.  1.
         11    1    3    3    0    0  0.15031481873E+01  0.58946641533E+01 -0.49344434537E+01  0.78329593649E+01  0.51100000000E-03 0. -1.
        -11    1    3    3    0    0 -0.14218865448E+02  0.85727361930E+01 -0.82417253084E+01  0.18536288107E+02  0.51100000000E-03 0.  1.
         12    1    3    3    0    0  0.27447573533E+02  0.13781935407E+02  0.11884960155E+02  0.32932708882E+02  0.00000000000E+00 0. -1.
</event>
<event>
 7    1  0.6841384E-013  0.5930195E+02  0.7816164E-02  0.1266605E+00
        -11   -1    0    0    0    0  0.00000000000E+00  0.00000000000E+00  0.45593999997E+02  0.45594000000E+02  0.51100000000E-03 0. -1.
         11   -1    0    0    0    0 -0.00000000000E+00 -0.00000000000E+00 -0.45593999997E+02  0.45594000000E+02  0.51100000000E-03 0.  1.
    9900012    2    1    2    0    0 -0.30508272229E+02  0.79735614120E+01  0.47315872125E+01  0.59301948605E+02  0.50000008348E+02 0.  0.
        -12    1    1    2    0    0  0.30508272229E+02 -0.79735614120E+01 -0.47315872125E+01  0.31886051395E+02  0.00000000000E+00 0.  1.
         11    1    3    3    0    0 -0.72774648567E+01 -0.27224133348E+01 -0.50148259449E+01  0.92477839845E+01  0.51100000000E-03 0.  1.
        -11    1    3    3    0    0 -0.57738681735E+01 -0.81277376373E+01  0.20049378678E+02  0.22391410372E+02  0.51100000000E-03 0. -1.
         12    1    3    3    0    0 -0.17456939199E+02  0.18823712384E+02 -0.10302965521E+02  0.27662754249E+02  0.00000000000E+00 0. -1.
</event>
<event>
 7    1  0.6841384E-013  0.5930193E+02  0.7816164E-02  0.1266605E+00
        -11   -1    0    0    0    0  0.00000000000E+00  0.00000000000E+00  0.45593999997E+02  0.45594000000E+02  0.51100000000E-03 0. -1.
         11   -1    0    0    0    0 -0.00000000000E+00 -0.00000000000E+00 -0.45593999997E+02  0.45594000000E+02  0.51100000000E-03 0.  1.
    9900012    2    1    2    0    0 -0.30269990937E+02  0.98673806608E+01  0.17560179947E+01  0.59301934836E+02  0.49999983237E+02 0.  0.
        -12    1    1    2    0    0  0.30269990937E+02 -0.98673806608E+01 -0.17560179947E+01  0.31886065164E+02  0.00000000000E+00 0.  1.
         11    1    3    3    0    0 -0.13784530317E+02 -0.12742908570E+01  0.42049144705E+01  0.14467840171E+02  0.51100000000E-03 0. -1.
        -11    1    3    3    0    0 -0.11258926313E+02  0.18419266451E+02  0.14261456048E+02  0.25873189351E+02  0.51100000000E-03 0.  1.
        -12    1    3    3    0    0 -0.52265343069E+01 -0.72775949328E+01 -0.16710352524E+02  0.18960905314E+02  0.00000000000E+00 0.  1.
</event>
<event>
 7    1  0.6841384E-013  0.5930198E+02  0.7816164E-02  0.1266605E+00
        -11   -1    0    0    0    0  0.00000000000E+00  0.00000000000E+00  0.45593999997E+02  0.45594000000E+02  0.51100000000E-03 0. -1.
         11   -1    0    0    0    0 -0.00000000000E+00 -0.00000000000E+00 -0.45593999997E+02  0.45594000000E+02  0.51100000000E-03 0.  1.
    9900012    2    1    2    0    0 -0.97600883181E+01  0.30326532531E+02  0.13267041787E+01  0.59301983578E+02  0.50000072129E+02 0.  0.
        -12    1    1    2    0    0  0.97600883181E+01 -0.30326532531E+02 -0.13267041787E+01  0.31886016422E+02  0.00000000000E+00 0.  1.
         11    1    3    3    0    0 -0.16788816751E+01  0.85467653724E+00 -0.52894748298E+01  0.56149496790E+01  0.51100000000E-03 0.  1.
        -11    1    3    3    0    0 -0.20038645340E+02 -0.14655792709E+01  0.31690014324E+01  0.20340545715E+02  0.51100000000E-03 0. -1.
         12    1    3    3    0    0  0.11957438697E+02  0.30937435264E+02  0.34471775761E+01  0.33346488183E+02  0.00000000000E+00 0. -1.
</event>
<event>
 7    1  0.6841384E-013  0.5930195E+02  0.7816164E-02  0.1266605E+00
        -11   -1    0    0    0    0  0.00000000000E+00  0.00000000000E+00  0.45593999997E+02  0.45594000000E+02  0.51100000000E-03 0.  1.
         11   -1    0    0    0    0 -0.00000000000E+00 -0.00000000000E+00 -0.45593999997E+02  0.45594000000E+02  0.51100000000E-03 0. -1.
    9900012    2    1    2    0    0  0.12935059120E+02  0.11416982811E+02 -0.26815240508E+02  0.59301947023E+02  0.50000005462E+02 0.  0.
        -12    1    1    2    0    0 -0.12935059120E+02 -0.11416982811E+02  0.26815240508E+02  0.31886052977E+02  0.00000000000E+00 0.  1.
         11    1    3    3    0    0 -0.36909427783E+01  0.13780275935E+02 -0.11020389413E+02  0.18026870125E+02  0.51100000000E-03 0. -1.
        -11    1    3    3    0    0  0.23014647266E+02 -0.33111808886E+01 -0.22222368555E+02  0.32163202143E+02  0.51100000000E-03 0.  1.
        -12    1    3    3    0    0 -0.63886453673E+01  0.94788776468E+00  0.64275174596E+01  0.91118747543E+01  0.00000000000E+00 0.  1.
</event>
<event>
 7    1  0.6841384E-013  0.5930201E+02  0.7816164E-02  0.1266605E+00
        -11   -1    0    0    0    0  0.00000000000E+00  0.00000000000E+00  0.45593999997E+02  0.45594000000E+02  0.51100000000E-03 0.  1.
         11   -1    0    0    0    0 -0.00000000000E+00 -0.00000000000E+00 -0.45593999997E+02  0.45594000000E+02  0.51100000000E-03 0. -1.
    9900012    2    1    2    0    0 -0.12028899415E+02 -0.88575376036E+01 -0.28170299426E+02  0.59302013058E+02  0.50000125894E+02 0.  0.
        -12    1    1    2    0    0  0.12028899415E+02  0.88575376036E+01  0.28170299426E+02  0.31885986942E+02  0.00000000000E+00 0.  1.
         11    1    3    3    0    0  0.26514407960E-01 -0.12127966836E+02 -0.65961839771E+01  0.13805720767E+02  0.51100000000E-03 0. -1.
        -11    1    3    3    0    0  0.14416964693E+00 -0.12203995387E+02  0.43291641577E+01  0.12949901577E+02  0.51100000000E-03 0.  1.
        -12    1    3    3    0    0 -0.12199583470E+02  0.15474424618E+02 -0.25903279607E+02  0.32546390714E+02  0.00000000000E+00 0.  1.
</event>
<event>
 7    1  0.6841384E-013  0.5930195E+02  0.7816164E-02  0.1266605E+00
        -11   -1    0    0    0    0  0.00000000000E+00  0.00000000000E+00  0.45593999997E+02  0.45594000000E+02  0.51100000000E-03 0. -1.
         11   -1    0    0    0    0 -0.00000000000E+00 -0.00000000000E+00 -0.45593999997E+02  0.45594000000E+02  0.51100000000E-03 0.  1.
    9900012    2    1    2    0    0 -0.15270612619E+02 -0.21380776210E+02  0.18066285998E+02  0.59301954606E+02  0.50000019292E+02 0.  0.
        -12    1    1    2    0    0  0.15270612619E+02  0.21380776210E+02 -0.18066285998E+02  0.31886045394E+02  0.00000000000E+00 0.  1.
         11    1    3    3    0    0  0.49989385198E+01 -0.15624043133E+01  0.36227777053E+01  0.63682817248E+01  0.51100000000E-03 0. -1.
        -11    1    3    3    0    0  0.76315534657E+00 -0.21548457758E+02 -0.71729358937E+01  0.22723763937E+02  0.51100000000E-03 0.  1.
         12    1    3    3    0    0 -0.21032706486E+02  0.17300858615E+01  0.21616444186E+02  0.30209908945E+02  0.00000000000E+00 0. -1.
</event>
<event>
 7    1  0.6841384E-013  0.5930193E+02  0.7816164E-02  0.1266605E+00
        -11   -1    0    0    0    0  0.00000000000E+00  0.00000000000E+00  0.45593999997E+02  0.45594000000E+02  0.51100000000E-03 0. -1.
         11   -1    0    0    0    0 -0.00000000000E+00 -0.00000000000E+00 -0.45593999997E+02  0.45594000000E+02  0.51100000000E-03 0.  1.
    9900012    2    1    2    0    0 -0.29550861628E+02 -0.94049904843E+01  0.74171668014E+01  0.59301927299E+02  0.49999969491E+02 0.  0.
        -12    1    1    2    0    0  0.29550861628E+02  0.94049904843E+01 -0.74171668014E+01  0.31886072701E+02  0.00000000000E+00 0.  1.
         11    1    3    3    0    0 -0.23095011023E+02 -0.17374826812E+01  0.15573701743E+02  0.27909470910E+02  0.51100000000E-03 0.  1.
        -11    1    3    3    0    0 -0.13998488782E+02 -0.28402705022E+01  0.52942657538E+01  0.15233321202E+02  0.51100000000E-03 0. -1.
        -12    1    3    3    0    0  0.75426381775E+01 -0.48272373010E+01 -0.13450800696E+02  0.16159135187E+02  0.00000000000E+00 0.  1.
</event>
<event>
 7    1  0.6841384E-013  0.5930194E+02  0.7816164E-02  0.1266605E+00
        -11   -1    0    0    0    0  0.00000000000E+00  0.00000000000E+00  0.45593999997E+02  0.45594000000E+02  0.51100000000E-03 0.  1.
         11   -1    0    0    0    0 -0.00000000000E+00 -0.00000000000E+00 -0.45593999997E+02  0.45594000000E+02  0.51100000000E-03 0. -1.
    9900012    2    1    2    0    0 -0.64464157746E+01 -0.29917856935E+02 -0.89490821368E+01  0.59301944882E+02  0.50000001557E+02 0.  0.
        -12    1    1    2    0    0  0.64464157746E+01  0.29917856935E+02  0.89490821368E+01  0.31886055118E+02  0.00000000000E+00 0.  1.
         11    1    3    3    0    0 -0.36970199378E+01 -0.10209904905E+02 -0.60431995766E+01  0.12427001890E+02  0.51100000000E-03 0. -1.
        -11    1    3    3    0    0 -0.22363774693E+02 -0.80847221078E+01  0.70729496561E+00  0.23790784277E+02  0.51100000000E-03 0.  1.
         12    1    3    3    0    0  0.19614378856E+02 -0.11623229922E+02 -0.36131775258E+01  0.23084158715E+02  0.00000000000E+00 0. -1.
</event>
<event>
 7    1  0.6841384E-013  0.5930213E+02  0.7816164E-02  0.1266604E+00
        -11   -1    0    0    0    0  0.00000000000E+00  0.00000000000E+00  0.45593999997E+02  0.45594000000E+02  0.51100000000E-03 0.  1.
         11   -1    0    0    0    0 -0.00000000000E+00 -0.00000000000E+00 -0.45593999997E+02  0.45594000000E+02  0.51100000000E-03 0. -1.
    9900012    2    1    2    0    0 -0.31148250324E+02  0.19038126332E+01  0.65475798313E+01  0.59302128482E+02  0.50000336399E+02 0.  0.
        -12    1    1    2    0    0  0.31148250324E+02 -0.19038126332E+01 -0.65475798313E+01  0.31885871518E+02  0.00000000000E+00 0.  1.
         11    1    3    3    0    0 -0.12394133719E+02  0.45760166677E+01  0.16554618078E+02  0.21180412158E+02  0.51100000000E-03 0. -1.
        -11    1    3    3    0    0 -0.11713436143E+02  0.38097184403E+01  0.10050846434E+02  0.15897737423E+02  0.51100000000E-03 0.  1.
         12    1    3    3    0    0 -0.70406804627E+01 -0.64819224747E+01 -0.20057884681E+02  0.22223978902E+02  0.00000000000E+00 0. -1.
</event>
<event>
 7    1  0.6841384E-013  0.5930191E+02  0.7816164E-02  0.1266605E+00
        -11   -1    0    0    0    0  0.00000000000E+00  0.00000000000E+00  0.45593999997E+02  0.45594000000E+02  0.51100000000E-03 0.  1.
         11   -1    0    0    0    0 -0.00000000000E+00 -0.00000000000E+00 -0.45593999997E+02  0.45594000000E+02  0.51100000000E-03 0. -1.
    9900012    2    1    2    0    0  0.24740610597E+02 -0.15294527663E+02 -0.13065316860E+02  0.59301907517E+02  0.49999933414E+02 0.  0.
        -12    1    1    2    0    0 -0.24740610597E+02  0.15294527663E+02  0.13065316860E+02  0.31886092483E+02  0.00000000000E+00 0.  1.
         11    1    3    3    0    0  0.25344898496E+02  0.76835065984E+01 -0.71626587759E+01  0.27435448500E+02  0.51100000000E-03 0. -1.
        -11    1    3    3    0    0  0.99214655966E+01 -0.89100425702E+01 -0.51039155548E+01  0.14278455534E+02  0.51100000000E-03 0.  1.
        -12    1    3    3    0    0 -0.10525753495E+02 -0.14067991692E+02 -0.79874252928E+00  0.17588003483E+02  0.00000000000E+00 0.  1.
</event>
<event>
 7    1  0.6841384E-013  0.5930195E+02  0.7816164E-02  0.1266605E+00
        -11   -1    0    0    0    0  0.00000000000E+00  0.00000000000E+00  0.45593999997E+02  0.45594000000E+02  0.51100000000E-03 0. -1.
         11   -1    0    0    0    0 -0.00000000000E+00 -0.00000000000E+00 -0.45593999997E+02  0.45594000000E+02  0.51100000000E-03 0.  1.
    9900012    2    1    2    0    0  0.76275177617E+01  0.17152129713E+02  0.25774900100E+02  0.59301952015E+02  0.50000014567E+02 0.  0.
        -12    1    1    2    0    0 -0.76275177617E+01 -0.17152129713E+02 -0.25774900100E+02  0.31886047985E+02  0.00000000000E+00 0.  1.
         11    1    3    3    0    0 -0.31652357110E+01 -0.49548688602E+01  0.69028953874E+01  0.90674917986E+01  0.51100000000E-03 0. -1.
        -11    1    3    3    0    0 -0.10608126520E+02 -0.33797122340E+01  0.11776685914E+02  0.16206330073E+02  0.51100000000E-03 0.  1.
        -12    1    3    3    0    0  0.21400879992E+02  0.25486710808E+02  0.70953187989E+01  0.34028130144E+02  0.00000000000E+00 0.  1.
</event>
<event>
 7    1  0.6841384E-013  0.5930194E+02  0.7816164E-02  0.1266605E+00
        -11   -1    0    0    0    0  0.00000000000E+00  0.00000000000E+00  0.45593999997E+02  0.45594000000E+02  0.51100000000E-03 0.  1.
         11   -1    0    0    0    0 -0.00000000000E+00 -0.00000000000E+00 -0.45593999997E+02  0.45594000000E+02  0.51100000000E-03 0. -1.
    9900012    2    1    2    0    0 -0.21245562866E+02 -0.13165099659E+02 -0.19799668378E+02  0.59301942570E+02  0.49999997342E+02 0.  0.
        -12    1    1    2    0    0  0.21245562866E+02  0.13165099659E+02  0.19799668378E+02  0.31886057430E+02  0.00000000000E+00 0.  1.
         11    1    3    3    0    0 -0.16789142870E+02  0.81022258986E+01 -0.31751451175E+01  0.18910392106E+02  0.51100000000E-03 0. -1.
        -11    1    3    3    0    0 -0.88197006463E+01  0.29522419407E+01  0.20192385577E+01  0.95173618498E+01  0.51100000000E-03 0.  1.
         12    1    3    3    0    0  0.43632806504E+01 -0.24219567498E+02 -0.18643761819E+02  0.30874188614E+02  0.00000000000E+00 0. -1.
</event>
<event>
 7    1  0.6841384E-013  0.5930193E+02  0.7816164E-02  0.1266605E+00
        -11   -1    0    0    0    0  0.00000000000E+00  0.00000000000E+00  0.45593999997E+02  0.45594000000E+02  0.51100000000E-03 0. -1.
         11   -1    0    0    0    0 -0.00000000000E+00 -0.00000000000E+00 -0.45593999997E+02  0.45594000000E+02  0.51100000000E-03 0.  1.
    9900012    2    1    2    0    0 -0.30593679888E+02 -0.89641738588E+01  0.62574848000E+00  0.59301933714E+02  0.49999981190E+02 0.  0.
        -12    1    1    2    0    0  0.30593679888E+02  0.89641738588E+01 -0.62574848000E+00  0.31886066286E+02  0.00000000000E+00 0.  1.
         11    1    3    3    0    0 -0.40338096428E+01  0.13789677539E+02  0.20876067120E+01  0.14518434107E+02  0.51100000000E-03 0. -1.
        -11    1    3    3    0    0 -0.19441039184E+02  0.14528491546E+01  0.21029461384E+00  0.19496384263E+02  0.51100000000E-03 0.  1.
         12    1    3    3    0    0 -0.71188310604E+01 -0.24206700552E+02 -0.16721528458E+01  0.25287115344E+02  0.00000000000E+00 0. -1.
</event>
<event>
 7    1  0.6841384E-013  0.5930194E+02  0.7816164E-02  0.1266605E+00
        -11   -1    0    0    0    0  0.00000000000E+00  0.00000000000E+00  0.45593999997E+02  0.45594000000E+02  0.51100000000E-03 0.  1.
         11   -1    0    0    0    0 -0.00000000000E+00 -0.00000000000E+00 -0.45593999997E+02  0.45594000000E+02  0.51100000000E-03 0. -1.
    9900012    2    1    2    0    0 -0.23758181974E+02 -0.13169423161E+02 -0.16698388954E+02  0.59301935477E+02  0.49999984406E+02 0.  0.
        -12    1    1    2    0    0  0.23758181974E+02  0.13169423161E+02  0.16698388954E+02  0.31886064523E+02  0.00000000000E+00 0.  1.
         11    1    3    3    0    0  0.11338660061E+02 -0.11657362299E+02  0.53906556631E+01  0.17132380935E+02  0.51100000000E-03 0. -1.
        -11    1    3    3    0    0 -0.15045355067E+02 -0.22215347647E+01 -0.13531423249E+02  0.20356751735E+02  0.51100000000E-03 0.  1.
        -12    1    3    3    0    0 -0.20051486968E+02  0.70947390211E+00 -0.85576213678E+01  0.21812802807E+02  0.00000000000E+00 0.  1.
</event>
<event>
 7    1  0.6841384E-013  0.5930194E+02  0.7816164E-02  0.1266605E+00
        -11   -1    0    0    0    0  0.00000000000E+00  0.00000000000E+00  0.45593999997E+02  0.45594000000E+02  0.51100000000E-03 0.  1.
         11   -1    0    0    0    0 -0.00000000000E+00 -0.00000000000E+00 -0.45593999997E+02  0.45594000000E+02  0.51100000000E-03 0. -1.
    9900012    2    1    2    0    0 -0.31472270128E+02  0.17489749729E+00 -0.51172410766E+01  0.59301944546E+02  0.50000000945E+02 0.  0.
        -12    1    1    2    0    0  0.31472270128E+02 -0.17489749729E+00  0.51172410766E+01  0.31886055454E+02  0.00000000000E+00 0.  1.
         11    1    3    3    0    0 -0.24336057128E+01 -0.44200522059E+01  0.72325395233E+01  0.88186692015E+01  0.51100000000E-03 0. -1.
        -11    1    3    3    0    0 -0.60809070383E+01 -0.12803118596E+02  0.69740362797E+01  0.15796659725E+02  0.51100000000E-03 0.  1.
         12    1    3    3    0    0 -0.22957757377E+02  0.17398068299E+02 -0.19323816880E+02  0.34686615619E+02  0.00000000000E+00 0. -1.
</event>
<event>
 7    1  0.6841384E-013  0.5930209E+02  0.7816164E-02  0.1266604E+00
        -11   -1    0    0    0    0  0.00000000000E+00  0.00000000000E+00  0.45593999997E+02  0.45594000000E+02  0.51100000000E-03 0.  1.
         11   -1    0    0    0    0 -0.00000000000E+00 -0.00000000000E+00 -0.45593999997E+02  0.45594000000E+02  0.51100000000E-03 0. -1.
    9900012    2    1    2    0    0  0.65569082641E+01 -0.26724692673E+02 -0.16109284047E+02  0.59302089680E+02  0.50000265634E+02 0.  0.
        -12    1    1    2    0    0 -0.65569082641E+01  0.26724692673E+02  0.16109284047E+02  0.31885910320E+02  0.00000000000E+00 0.  1.
         11    1    3    3    0    0 -0.13550249860E+02 -0.21126918787E+02 -0.10056797462E+02  0.27038771128E+02  0.51100000000E-03 0. -1.
        -11    1    3    3    0    0 -0.61304332036E+00  0.51094202036E+01  0.43378052066E+01  0.67304198384E+01  0.51100000000E-03 0.  1.
        -12    1    3    3    0    0  0.20720201444E+02 -0.10707194090E+02 -0.10390291791E+02  0.25532898713E+02  0.00000000000E+00 0.  1.
</event>
<event>
 7    1  0.6841384E-013  0.5930195E+02  0.7816164E-02  0.1266605E+00
        -11   -1    0    0    0    0  0.00000000000E+00  0.00000000000E+00  0.45593999997E+02  0.45594000000E+02  0.51100000000E-03 0.  1.
         11   -1    0    0    0    0 -0.00000000000E+00 -0.00000000000E+00 -0.45593999997E+02  0.45594000000E+02  0.51100000000E-03 0. -1.
    9900012    2    1    2    0    0  0.28394397011E+02  0.13845835540E+02 -0.43325547787E+01  0.59301953297E+02  0.50000016905E+02 0.  0.
        -12    1    1    2    0    0 -0.28394397011E+02 -0.13845835540E+02  0.43325547787E+01  0.31886046703E+02  0.00000000000E+00 0.  1.
         11    1    3    3    0    0  0.14746601552E+02  0.91017607789E+01 -0.18142378466E+02  0.25088846192E+02  0.51100000000E-03 0. -1.
        -11    1    3    3    0    0  0.11801309954E+02  0.14035879206E+02  0.11131295278E+01  0.18371605246E+02  0.51100000000E-03 0.  1.
         12    1    3    3    0    0  0.18464855057E+01 -0.92918044451E+01  0.12696694159E+02  0.15841501859E+02  0.00000000000E+00 0. -1.
</event>
<event>
 7    1  0.6841384E-013  0.5930196E+02  0.7816164E-02  0.1266605E+00
        -11   -1    0    0    0    0  0.00000000000E+00  0.00000000000E+00  0.45593999997E+02  0.45594000000E+02  0.51100000000E-03 0. -1.
         11   -1    0    0    0    0 -0.00000000000E+00 -0.00000000000E+00 -0.45593999997E+02  0.45594000000E+02  0.51100000000E-03 0.  1.
    9900012    2    1    2    0    0  0.23638807345E+02  0.20748551542E+02 -0.52367727338E+01  0.59301962421E+02  0.50000033546E+02 0.  0.
        -12    1    1    2    0    0 -0.23638807345E+02 -0.20748551542E+02  0.52367727338E+01  0.31886037579E+02  0.00000000000E+00 0.  1.
         11    1    3    3    0    0 -0.41326185027E+01  0.24264682258E+02  0.67941303262E+01  0.25534555957E+02  0.51100000000E-03 0. -1.
        -11    1    3    3    0    0  0.10080720213E+02  0.51863595254E+01 -0.73282273516E+01  0.13498968906E+02  0.51100000000E-03 0.  1.
        -12    1    3    3    0    0  0.17690705635E+02 -0.87024902412E+01 -0.47026757084E+01  0.20268437559E+02  0.00000000000E+00 0.  1.
</event>
<event>
 7    1  0.6841384E-013  0.5930193E+02  0.7816164E-02  0.1266605E+00
        -11   -1    0    0    0    0  0.00000000000E+00  0.00000000000E+00  0.45593999997E+02  0.45594000000E+02  0.51100000000E-03 0. -1.
         11   -1    0    0    0    0 -0.00000000000E+00 -0.00000000000E+00 -0.45593999997E+02  0.45594000000E+02  0.51100000000E-03 0.  1.
    9900012    2    1    2    0    0  0.27310261853E+02 -0.16049357145E+02  0.36454122459E+01  0.59301932546E+02  0.49999979060E+02 0.  0.
        -12    1    1    2    0    0 -0.27310261853E+02  0.16049357145E+02 -0.36454122459E+01  0.31886067454E+02  0.00000000000E+00 0.  1.
         11    1    3    3    0    0  0.17656388653E+02 -0.75371820455E+01  0.45478290897E+01  0.19729164279E+02  0.51100000000E-03 0. -1.
        -11    1    3    3    0    0 -0.76283691760E+01 -0.15506107751E+02 -0.87198933475E+01  0.19356340928E+02  0.51100000000E-03 0.  1.
         12    1    3    3    0    0  0.17282242375E+02  0.69939326516E+01  0.78174765037E+01  0.20216427339E+02  0.00000000000E+00 0. -1.
</event>
<event>
 7    1  0.6841384E-013  0.5930195E+02  0.7816164E-02  0.1266605E+00
        -11   -1    0    0    0    0  0.00000000000E+00  0.00000000000E+00  0.45593999997E+02  0.45594000000E+02  0.51100000000E-03 0.  1.
         11   -1    0    0    0    0 -0.00000000000E+00 -0.00000000000E+00 -0.45593999997E+02  0.45594000000E+02  0.51100000000E-03 0. -1.
    9900012    2    1    2    0    0  0.18641278553E+02  0.21952393324E+02  0.13686330705E+02  0.59301945259E+02  0.50000002246E+02 0.  0.
        -12    1    1    2    0    0 -0.18641278553E+02 -0.21952393324E+02 -0.13686330705E+02  0.31886054741E+02  0.00000000000E+00 0.  1.
         11    1    3    3    0    0  0.73183950001E+01  0.64051981240E+01  0.34395684026E+01  0.10315817924E+02  0.51100000000E-03 0. -1.
        -11    1    3    3    0    0  0.17150546577E+02  0.27676178634E+02  0.13327758593E+02  0.35181547167E+02  0.51100000000E-03 0.  1.
        -12    1    3    3    0    0 -0.58276630238E+01 -0.12128983434E+02 -0.30809962906E+01  0.13804580168E+02  0.00000000000E+00 0.  1.
</event>
<event>
 7    1  0.6841384E-013  0.5930194E+02  0.7816164E-02  0.1266605E+00
        -11   -1    0    0    0    0  0.00000000000E+00  0.00000000000E+00  0.45593999997E+02  0.45594000000E+02  0.51100000000E-03 0.  1.
         11   -1    0    0    0    0 -0.00000000000E+00 -0.00000000000E+00 -0.45593999997E+02  0.45594000000E+02  0.51100000000E-03 0. -1.
    9900012    2    1    2    0    0 -0.22914770669E+02 -0.34128121129E+01 -0.21908606133E+02  0.59301936837E+02  0.49999986886E+02 0.  0.
        -12    1    1    2    0    0  0.22914770669E+02  0.34128121129E+01  0.21908606133E+02  0.31886063163E+02  0.00000000000E+00 0.  1.
         11    1    3    3    0    0  0.31168394988E+01 -0.22427913767E+01  0.50190051620E+01  0.63194315170E+01  0.51100000000E-03 0. -1.
        -11    1    3    3    0    0 -0.17544285636E+02  0.13409177300E+02 -0.28484269519E+02  0.36041109925E+02  0.51100000000E-03 0.  1.
         12    1    3    3    0    0 -0.84873245318E+01 -0.14579198037E+02  0.15566582238E+01  0.16941395395E+02  0.00000000000E+00 0. -1.
</event>
<event>
 7    1  0.6841384E-013  0.5930181E+02  0.7816164E-02  0.1266605E+00
        -11   -1    0    0    0    0  0.00000000000E+00  0.00000000000E+00  0.45593999997E+02  0.45594000000E+02  0.51100000000E-03 0.  1.
         11   -1    0    0    0    0 -0.00000000000E+00 -0.00000000000E+00 -0.45593999997E+02  0.45594000000E+02  0.51100000000E-03 0. -1.
    9900012    2    1    2    0    0  0.97581182794E+01  0.39893619500E+01 -0.30093078292E+02  0.59301807969E+02  0.49999751861E+02 0.  0.
        -12    1    1    2    0    0 -0.97581182794E+01 -0.39893619500E+01  0.30093078292E+02  0.31886192031E+02  0.00000000000E+00 0.  1.
         11    1    3    3    0    0  0.11362386057E+02 -0.30239846965E+01 -0.18419073506E+02  0.21852015226E+02  0.51100000000E-03 0. -1.
        -11    1    3    3    0    0  0.21333909719E+01 -0.16801318401E+01 -0.22733100025E+02  0.22894716357E+02  0.51100000000E-03 0.  1.
         12    1    3    3    0    0 -0.37376587492E+01  0.86934784866E+01  0.11059095239E+02  0.14555076387E+02  0.00000000000E+00 0. -1.
</event>
<event>
 7    1  0.6841384E-013  0.5930197E+02  0.7816164E-02  0.1266605E+00
        -11   -1    0    0    0    0  0.00000000000E+00  0.00000000000E+00  0.45593999997E+02  0.45594000000E+02  0.51100000000E-03 0.  1.
         11   -1    0    0    0    0 -0.00000000000E+00 -0.00000000000E+00 -0.45593999997E+02  0.45594000000E+02  0.51100000000E-03 0. -1.
    9900012    2    1    2    0    0  0.30527872207E+02  0.78255307128E+00 -0.91736393832E+01  0.59301968100E+02  0.50000043902E+02 0.  0.
        -12    1    1    2    0    0 -0.30527872207E+02 -0.78255307128E+00  0.91736393832E+01  0.31886031900E+02  0.00000000000E+00 0.  1.
         11    1    3    3    0    0  0.12616432356E+02  0.87129174452E+01 -0.38590431700E+01  0.15810803593E+02  0.51100000000E-03 0. -1.
        -11    1    3    3    0    0  0.23691087558E+02  0.62398254362E+01 -0.11400695643E+02  0.27021822895E+02  0.51100000000E-03 0.  1.
         12    1    3    3    0    0 -0.57796477072E+01 -0.14170189810E+02  0.60860994293E+01  0.16469341612E+02  0.00000000000E+00 0. -1.
</event>
<event>
 7    1  0.6841384E-013  0.5930206E+02  0.7816164E-02  0.1266604E+00
        -11   -1    0    0    0    0  0.00000000000E+00  0.00000000000E+00  0.45593999997E+02  0.45594000000E+02  0.51100000000E-03 0.  1.
         11   -1    0    0    0    0 -0.00000000000E+00 -0.00000000000E+00 -0.45593999997E+02  0.45594000000E+02  0.51100000000E-03 0. -1.
    9900012    2    1    2    0    0  0.12620394874E+02 -0.24147477476E+02 -0.16563160326E+02  0.59302057718E+02  0.50000207344E+02 0.  0.
        -12    1    1    2    0    0 -0.12620394874E+02  0.24147477476E+02  0.16563160326E+02  0.31885942282E+02  0.00000000000E+00 0.  1.
         11    1    3    3    0    0 -0.35150154460E+01  0.48996471948E+01 -0.88364731566E+01  0.10697903268E+02  0.51100000000E-03 0. -1.
        -11    1    3    3    0    0 -0.64694105893E+01  0.39482817907E+01  0.10645032333E+01  0.76534547667E+01  0.51100000000E-03 0.  1.
        -12    1    3    3    0    0  0.22604820909E+02 -0.32995406461E+02 -0.87911904026E+01  0.40950699684E+02  0.00000000000E+00 0.  1.
</event>
<event>
 7    1  0.6841384E-013  0.5930194E+02  0.7816164E-02  0.1266605E+00
        -11   -1    0    0    0    0  0.00000000000E+00  0.00000000000E+00  0.45593999997E+02  0.45594000000E+02  0.51100000000E-03 0.  1.
         11   -1    0    0    0    0 -0.00000000000E+00 -0.00000000000E+00 -0.45593999997E+02  0.45594000000E+02  0.51100000000E-03 0. -1.
    9900012    2    1    2    0    0  0.32228215739E+01  0.12306074553E+02 -0.29238581875E+02  0.59301941607E+02  0.49999995585E+02 0.  0.
        -12    1    1    2    0    0 -0.32228215739E+01 -0.12306074553E+02  0.29238581875E+02  0.31886058393E+02  0.00000000000E+00 0.  1.
         11    1    3    3    0    0 -0.50207117096E+01  0.12848613057E+02 -0.36968086504E+02  0.39458000756E+02  0.51100000000E-03 0. -1.
        -11    1    3    3    0    0  0.63874595395E+01 -0.41533176240E+01 -0.31402001168E+01  0.82407853806E+01  0.51100000000E-03 0.  1.
        -12    1    3    3    0    0  0.18560737440E+01  0.36107791200E+01  0.10869704747E+02  0.11603155471E+02  0.00000000000E+00 0.  1.
</event>
<event>
 7    1  0.6841384E-013  0.5930195E+02  0.7816164E-02  0.1266605E+00
        -11   -1    0    0    0    0  0.00000000000E+00  0.00000000000E+00  0.45593999997E+02  0.45594000000E+02  0.51100000000E-03 0. -1.
         11   -1    0    0    0    0 -0.00000000000E+00 -0.00000000000E+00 -0.45593999997E+02  0.45594000000E+02  0.51100000000E-03 0.  1.
    9900012    2    1    2    0    0  0.21598242363E+02  0.23257521387E+02  0.30534419004E+01  0.59301954750E+02  0.50000019555E+02 0.  0.
        -12    1    1    2    0    0 -0.21598242363E+02 -0.23257521387E+02 -0.30534419004E+01  0.31886045250E+02  0.00000000000E+00 0.  1.
         11    1    3    3    0    0  0.11755241930E+02 -0.18480221220E+00  0.74917291190E+01  0.13940798763E+02  0.51100000000E-03 0. -1.
        -11    1    3    3    0    0  0.23376363844E+02  0.14171012245E+02  0.27030637635E+01  0.27469592800E+02  0.51100000000E-03 0.  1.
        -12    1    3    3    0    0 -0.13533363411E+02  0.92713113546E+01 -0.71413509822E+01  0.17891563188E+02  0.00000000000E+00 0.  1.
</event>
<event>
 7    1  0.6841384E-013  0.5930196E+02  0.7816164E-02  0.1266605E+00
        -11   -1    0    0    0    0  0.00000000000E+00  0.00000000000E+00  0.45593999997E+02  0.45594000000E+02  0.51100000000E-03 0. -1.
         11   -1    0    0    0    0 -0.00000000000E+00 -0.00000000000E+00 -0.45593999997E+02  0.45594000000E+02  0.51100000000E-03 0.  1.
    9900012    2    1    2    0    0 -0.52958871946E+01  0.35983963616E+01  0.31236588608E+02  0.59301963159E+02  0.50000034891E+02 0.  0.
        -12    1    1    2    0    0  0.52958871946E+01 -0.35983963616E+01 -0.31236588608E+02  0.31886036841E+02  0.00000000000E+00 0.  1.
         11    1    3    3    0    0  0.42696176476E+01 -0.14487107436E+02 -0.48362264823E+00  0.15110916843E+02  0.51100000000E-03 0. -1.
        -11    1    3    3    0    0 -0.74367891594E+01 -0.29042956405E+01  0.29435506968E+01  0.85091278716E+01  0.51100000000E-03 0.  1.
         12    1    3    3    0    0 -0.21287156827E+01  0.20989799438E+02  0.28776660560E+02  0.35681918444E+02  0.00000000000E+00 0. -1.
</event>
<event>
 7    1  0.6841384E-013  0.5930194E+02  0.7816164E-02  0.1266605E+00
        -11   -1    0    0    0    0  0.00000000000E+00  0.00000000000E+00  0.45593999997E+02  0.45594000000E+02  0.51100000000E-03 0.  1.
         11   -1    0    0    0    0 -0.00000000000E+00 -0.00000000000E+00 -0.45593999997E+02  0.45594000000E+02  0.51100000000E-03 0. -1.
    9900012    2    1    2    0    0  0.81205281480E+01  0.21626458776E+02 -0.21978942771E+02  0.59301943143E+02  0.49999998386E+02 0.  0.
        -12    1    1    2    0    0 -0.81205281480E+01 -0.21626458776E+02  0.21978942771E+02  0.31886056857E+02  0.00000000000E+00 0.  1.
         11    1    3    3    0    0  0.36036490664E+01  0.18054500125E+02 -0.28391711103E+02  0.33838447378E+02  0.51100000000E-03 0. -1.
        -11    1    3    3    0    0 -0.24281854440E+01  0.11781820029E+02  0.82057295255E+01  0.14561640191E+02  0.51100000000E-03 0.  1.
         12    1    3    3    0    0  0.69450645256E+01 -0.82098613779E+01 -0.17929611933E+01  0.10901855574E+02  0.00000000000E+00 0. -1.
</event>
<event>
 7    1  0.6841384E-013  0.5930193E+02  0.7816164E-02  0.1266605E+00
        -11   -1    0    0    0    0  0.00000000000E+00  0.00000000000E+00  0.45593999997E+02  0.45594000000E+02  0.51100000000E-03 0.  1.
         11   -1    0    0    0    0 -0.00000000000E+00 -0.00000000000E+00 -0.45593999997E+02  0.45594000000E+02  0.51100000000E-03 0. -1.
    9900012    2    1    2    0    0  0.18134418391E+02 -0.26035009894E+02 -0.31690326070E+01  0.59301927206E+02  0.49999969321E+02 0.  0.
        -12    1    1    2    0    0 -0.18134418391E+02  0.26035009894E+02  0.31690326070E+01  0.31886072794E+02  0.00000000000E+00 0.  1.
         11    1    3    3    0    0  0.12999172492E+02 -0.10569900670E+02 -0.78231438563E+01  0.18490615611E+02  0.51100000000E-03 0. -1.
        -11    1    3    3    0    0  0.18030622086E+02 -0.10777326345E+02 -0.76755633996E+01  0.22364444319E+02  0.51100000000E-03 0.  1.
        -12    1    3    3    0    0 -0.12895376186E+02 -0.46877828799E+01  0.12329674649E+02  0.18446867275E+02  0.00000000000E+00 0.  1.
</event>
<event>
 7    1  0.6841384E-013  0.5930193E+02  0.7816164E-02  0.1266605E+00
        -11   -1    0    0    0    0  0.00000000000E+00  0.00000000000E+00  0.45593999997E+02  0.45594000000E+02  0.51100000000E-03 0.  1.
         11   -1    0    0    0    0 -0.00000000000E+00 -0.00000000000E+00 -0.45593999997E+02  0.45594000000E+02  0.51100000000E-03 0. -1.
    9900012    2    1    2    0    0  0.13423403895E+02  0.20456333785E+02  0.20446814464E+02  0.59301928028E+02  0.49999970821E+02 0.  0.
        -12    1    1    2    0    0 -0.13423403895E+02 -0.20456333785E+02 -0.20446814464E+02  0.31886071972E+02  0.00000000000E+00 0.  1.
         11    1    3    3    0    0 -0.30608507625E+00  0.64764795071E+01 -0.47926610047E+01  0.80627585010E+01  0.51100000000E-03 0. -1.
        -11    1    3    3    0    0 -0.42054402448E+01  0.68703806935E+00 -0.92333957485E+01  0.10169235284E+02  0.51100000000E-03 0.  1.
        -12    1    3    3    0    0  0.17934929216E+02  0.13292816208E+02  0.34472871217E+02  0.41069934243E+02  0.00000000000E+00 0.  1.
</event>
<event>
 7    1  0.6841384E-013  0.5930193E+02  0.7816164E-02  0.1266605E+00
        -11   -1    0    0    0    0  0.00000000000E+00  0.00000000000E+00  0.45593999997E+02  0.45594000000E+02  0.51100000000E-03 0.  1.
         11   -1    0    0    0    0 -0.00000000000E+00 -0.00000000000E+00 -0.45593999997E+02  0.45594000000E+02  0.51100000000E-03 0. -1.
    9900012    2    1    2    0    0 -0.26506961247E+02  0.17551104030E+02 -0.24619836319E+01  0.59301927639E+02  0.49999970111E+02 0.  0.
        -12    1    1    2    0    0  0.26506961247E+02 -0.17551104030E+02  0.24619836319E+01  0.31886072361E+02  0.00000000000E+00 0.  1.
         11    1    3    3    0    0 -0.75329602181E+01  0.20618211491E+02 -0.18834348137E+02  0.28923844916E+02  0.51100000000E-03 0. -1.
        -11    1    3    3    0    0 -0.14223976791E+02  0.46506854334E+01  0.48759772319E+01  0.15739299380E+02  0.51100000000E-03 0.  1.
        -12    1    3    3    0    0 -0.47500242375E+01 -0.77177928949E+01  0.11496387273E+02  0.14638783342E+02  0.00000000000E+00 0.  1.
</event>
<event>
 7    1  0.6841384E-013  0.5930193E+02  0.7816164E-02  0.1266605E+00
        -11   -1    0    0    0    0  0.00000000000E+00  0.00000000000E+00  0.45593999997E+02  0.45594000000E+02  0.51100000000E-03 0.  1.
         11   -1    0    0    0    0 -0.00000000000E+00 -0.00000000000E+00 -0.45593999997E+02  0.45594000000E+02  0.51100000000E-03 0. -1.
    9900012    2    1    2    0    0  0.11012269613E+02  0.24982196873E+02  0.16472440863E+02  0.59301928579E+02  0.49999971826E+02 0.  0.
        -12    1    1    2    0    0 -0.11012269613E+02 -0.24982196873E+02 -0.16472440863E+02  0.31886071421E+02  0.00000000000E+00 0.  1.
         11    1    3    3    0    0  0.11903366941E+02  0.14163594263E+02  0.11576471216E+02  0.21824578646E+02  0.51100000000E-03 0. -1.
        -11    1    3    3    0    0  0.54950108639E+01 -0.63659019961E+01  0.14514391179E+02  0.16774605932E+02  0.51100000000E-03 0.  1.
         12    1    3    3    0    0 -0.63861081920E+01  0.17184504607E+02 -0.96184215323E+01  0.20702744001E+02  0.00000000000E+00 0. -1.
</event>
<event>
 7    1  0.6841384E-013  0.5930194E+02  0.7816164E-02  0.1266605E+00
        -11   -1    0    0    0    0  0.00000000000E+00  0.00000000000E+00  0.45593999997E+02  0.45594000000E+02  0.51100000000E-03 0.  1.
         11   -1    0    0    0    0 -0.00000000000E+00 -0.00000000000E+00 -0.45593999997E+02  0.45594000000E+02  0.51100000000E-03 0. -1.
    9900012    2    1    2    0    0 -0.52024772131E+01 -0.25532090274E+02 -0.18378454848E+02  0.59301937127E+02  0.49999987416E+02 0.  0.
        -12    1    1    2    0    0  0.52024772131E+01  0.25532090274E+02  0.18378454848E+02  0.31886062873E+02  0.00000000000E+00 0.  1.
         11    1    3    3    0    0  0.12376292005E+01 -0.15327178262E+02 -0.80001268542E+01  0.17333670974E+02  0.51100000000E-03 0. -1.
        -11    1    3    3    0    0 -0.22245107959E+02 -0.10374716992E+02 -0.37562666747E+01  0.24831212623E+02  0.51100000000E-03 0.  1.
        -12    1    3    3    0    0  0.15805001545E+02  0.16980497990E+00 -0.66220613194E+01  0.17137053530E+02  0.00000000000E+00 0.  1.
</event>
<event>
 7    1  0.6841384E-013  0.5930194E+02  0.7816164E-02  0.1266605E+00
        -11   -1    0    0    0    0  0.00000000000E+00  0.00000000000E+00  0.45593999997E+02  0.45594000000E+02  0.51100000000E-03 0.  1.
         11   -1    0    0    0    0 -0.00000000000E+00 -0.00000000000E+00 -0.45593999997E+02  0.45594000000E+02  0.51100000000E-03 0. -1.
    9900012    2    1    2    0    0 -0.24326526619E+02  0.13392593627E+02 -0.15670978483E+02  0.59301936775E+02  0.49999986772E+02 0.  0.
        -12    1    1    2    0    0  0.24326526619E+02 -0.13392593627E+02  0.15670978483E+02  0.31886063225E+02  0.00000000000E+00 0.  1.
         11    1    3    3    0    0 -0.13715840338E+02  0.82621960357E+01  0.83304714241E+00  0.16033780818E+02  0.51100000000E-03 0. -1.
        -11    1    3    3    0    0 -0.12682673346E+02 -0.54756087328E+01  0.83672306416E+01  0.16150635996E+02  0.51100000000E-03 0.  1.
         12    1    3    3    0    0  0.20719870650E+01  0.10606006324E+02 -0.24871256267E+02  0.27117519961E+02  0.00000000000E+00 0. -1.
</event>
<event>
 7    1  0.6841384E-013  0.5930194E+02  0.7816164E-02  0.1266605E+00
        -11   -1    0    0    0    0  0.00000000000E+00  0.00000000000E+00  0.45593999997E+02  0.45594000000E+02  0.51100000000E-03 0. -1.
         11   -1    0    0    0    0 -0.00000000000E+00 -0.00000000000E+00 -0.45593999997E+02  0.45594000000E+02  0.51100000000E-03 0.  1.
    9900012    2    1    2    0    0 -0.20374137398E+02  0.23947164347E+02  0.53055191700E+01  0.59301942096E+02  0.49999996478E+02 0.  0.
        -12    1    1    2    0    0  0.20374137398E+02 -0.23947164347E+02 -0.53055191700E+01  0.31886057904E+02  0.00000000000E+00 0.  1.
         11    1    3    3    0    0  0.29606669958E+01  0.93311893029E+01 -0.98569663263E+00  0.98391178964E+01  0.51100000000E-03 0. -1.
        -11    1    3    3    0    0 -0.16771236401E+02  0.16536938782E+02 -0.14443790500E+02  0.27629111441E+02  0.51100000000E-03 0.  1.
        -12    1    3    3    0    0 -0.65635679920E+01 -0.19209637383E+01  0.20735006303E+02  0.21833712759E+02  0.00000000000E+00 0.  1.
</event>
<event>
 7    1  0.6841384E-013  0.5930194E+02  0.7816164E-02  0.1266605E+00
        -11   -1    0    0    0    0  0.00000000000E+00  0.00000000000E+00  0.45593999997E+02  0.45594000000E+02  0.51100000000E-03 0.  1.
         11   -1    0    0    0    0 -0.00000000000E+00 -0.00000000000E+00 -0.45593999997E+02  0.45594000000E+02  0.51100000000E-03 0. -1.
    9900012    2    1    2    0    0 -0.20410388742E+02 -0.15587154347E+02 -0.18899136682E+02  0.59301941659E+02  0.49999995680E+02 0.  0.
        -12    1    1    2    0    0  0.20410388742E+02  0.15587154347E+02  0.18899136682E+02  0.31886058341E+02  0.00000000000E+00 0.  1.
         11    1    3    3    0    0 -0.12742890643E+02 -0.24279073756E+02 -0.17758537777E+02  0.32668338627E+02  0.51100000000E-03 0. -1.
        -11    1    3    3    0    0 -0.28514165032E+01 -0.69550926336E+01  0.51319314409E+01  0.91016817233E+01  0.51100000000E-03 0.  1.
        -12    1    3    3    0    0 -0.48160815959E+01  0.15647012043E+02 -0.62725303456E+01  0.17531921308E+02  0.00000000000E+00 0.  1.
</event>
<event>
 7    1  0.6841384E-013  0.5930199E+02  0.7816164E-02  0.1266605E+00
        -11   -1    0    0    0    0  0.00000000000E+00  0.00000000000E+00  0.45593999997E+02  0.45594000000E+02  0.51100000000E-03 0. -1.
         11   -1    0    0    0    0 -0.00000000000E+00 -0.00000000000E+00 -0.45593999997E+02  0.45594000000E+02  0.51100000000E-03 0.  1.
    9900012    2    1    2    0    0 -0.23162790843E+02  0.20969870289E+02 -0.63614080750E+01  0.59301986572E+02  0.50000077591E+02 0.  0.
        -12    1    1    2    0    0  0.23162790843E+02 -0.20969870289E+02  0.63614080750E+01  0.31886013428E+02  0.00000000000E+00 0.  1.
         11    1    3    3    0    0 -0.21543242621E+01 -0.52991477720E+01 -0.52214637803E+01  0.77450477343E+01  0.51100000000E-03 0. -1.
        -11    1    3    3    0    0  0.55282362339E+01  0.10541032613E+02 -0.13789980263E+02  0.18216429955E+02  0.51100000000E-03 0.  1.
         12    1    3    3    0    0 -0.26536702815E+02  0.15727985448E+02  0.12650035968E+02  0.33340508883E+02  0.00000000000E+00 0. -1.
</event>
<event>
 7    1  0.6841384E-013  0.5930194E+02  0.7816164E-02  0.1266605E+00
        -11   -1    0    0    0    0  0.00000000000E+00  0.00000000000E+00  0.45593999997E+02  0.45594000000E+02  0.51100000000E-03 0.  1.
         11   -1    0    0    0    0 -0.00000000000E+00 -0.00000000000E+00 -0.45593999997E+02  0.45594000000E+02  0.51100000000E-03 0. -1.
    9900012    2    1    2    0    0  0.26706666629E+02  0.11058337711E+02 -0.13460600684E+02  0.59301942763E+02  0.49999997693E+02 0.  0.
        -12    1    1    2    0    0 -0.26706666629E+02 -0.11058337711E+02  0.13460600684E+02  0.31886057237E+02  0.00000000000E+00 0.  1.
         11    1    3    3    0    0  0.23833314383E+02  0.13947796591E+02 -0.10261540712E+02  0.29459584557E+02  0.51100000000E-03 0. -1.
        -11    1    3    3    0    0  0.40668700625E+01  0.12204264743E+02  0.34306806659E+01  0.13313642631E+02  0.51100000000E-03 0.  1.
        -12    1    3    3    0    0 -0.11935178167E+01 -0.15093723623E+02 -0.66297406378E+01  0.16528715574E+02  0.00000000000E+00 0.  1.
</event>
<event>
 7    1  0.6841384E-013  0.5930195E+02  0.7816164E-02  0.1266605E+00
        -11   -1    0    0    0    0  0.00000000000E+00  0.00000000000E+00  0.45593999997E+02  0.45594000000E+02  0.51100000000E-03 0. -1.
         11   -1    0    0    0    0 -0.00000000000E+00 -0.00000000000E+00 -0.45593999997E+02  0.45594000000E+02  0.51100000000E-03 0.  1.
    9900012    2    1    2    0    0 -0.23053515462E+02 -0.20130231023E+01  0.21936350295E+02  0.59301948168E+02  0.50000007552E+02 0.  0.
        -12    1    1    2    0    0  0.23053515462E+02  0.20130231023E+01 -0.21936350295E+02  0.31886051832E+02  0.00000000000E+00 0.  1.
         11    1    3    3    0    0 -0.10173909505E+02  0.54483414790E+01  0.22318646076E+02  0.25125979034E+02  0.51100000000E-03 0. -1.
        -11    1    3    3    0    0 -0.22347182346E+02 -0.15678776018E+01  0.28058711853E+01  0.22577150226E+02  0.51100000000E-03 0.  1.
         12    1    3    3    0    0  0.94675763887E+01 -0.58934869795E+01 -0.31881669671E+01  0.11598818908E+02  0.00000000000E+00 0. -1.
</event>
<event>
 7    1  0.6841384E-013  0.5930193E+02  0.7816164E-02  0.1266605E+00
        -11   -1    0    0    0    0  0.00000000000E+00  0.00000000000E+00  0.45593999997E+02  0.45594000000E+02  0.51100000000E-03 0.  1.
         11   -1    0    0    0    0 -0.00000000000E+00 -0.00000000000E+00 -0.45593999997E+02  0.45594000000E+02  0.51100000000E-03 0. -1.
    9900012    2    1    2    0    0 -0.23380760066E+02 -0.12567014052E+01 -0.21644449559E+02  0.59301930371E+02  0.49999975093E+02 0.  0.
        -12    1    1    2    0    0  0.23380760066E+02  0.12567014052E+01  0.21644449559E+02  0.31886069629E+02  0.00000000000E+00 0.  1.
         11    1    3    3    0    0 -0.46647248848E+01 -0.72330203181E+01 -0.20130197908E+02  0.21892946564E+02  0.51100000000E-03 0. -1.
        -11    1    3    3    0    0 -0.23944980832E+01 -0.17565025036E+01 -0.14731937820E+02  0.15028270503E+02  0.51100000000E-03 0.  1.
        -12    1    3    3    0    0 -0.16321537098E+02  0.77328214165E+01  0.13217686169E+02  0.22380713304E+02  0.00000000000E+00 0.  1.
</event>
<event>
 7    1  0.6841384E-013  0.5930195E+02  0.7816164E-02  0.1266605E+00
        -11   -1    0    0    0    0  0.00000000000E+00  0.00000000000E+00  0.45593999997E+02  0.45594000000E+02  0.51100000000E-03 0. -1.
         11   -1    0    0    0    0 -0.00000000000E+00 -0.00000000000E+00 -0.45593999997E+02  0.45594000000E+02  0.51100000000E-03 0.  1.
    9900012    2    1    2    0    0  0.17890938738E+02 -0.21211677099E+02 -0.15706671961E+02  0.59301945393E+02  0.50000002490E+02 0.  0.
        -12    1    1    2    0    0 -0.17890938738E+02  0.21211677099E+02  0.15706671961E+02  0.31886054607E+02  0.00000000000E+00 0.  1.
         11    1    3    3    0    0  0.23319412322E+01 -0.26302586728E+02 -0.84046820911E+01  0.27711057357E+02  0.51100000000E-03 0. -1.
        -11    1    3    3    0    0 -0.44948913332E+01 -0.43593656565E+00 -0.96527732960E+01  0.10656928326E+02  0.51100000000E-03 0.  1.
         12    1    3    3    0    0  0.20053888839E+02  0.55268461947E+01  0.23507834261E+01  0.20933959710E+02  0.00000000000E+00 0. -1.
</event>
<event>
 7    1  0.6841384E-013  0.5930194E+02  0.7816164E-02  0.1266605E+00
        -11   -1    0    0    0    0  0.00000000000E+00  0.00000000000E+00  0.45593999997E+02  0.45594000000E+02  0.51100000000E-03 0. -1.
         11   -1    0    0    0    0 -0.00000000000E+00 -0.00000000000E+00 -0.45593999997E+02  0.45594000000E+02  0.51100000000E-03 0.  1.
    9900012    2    1    2    0    0 -0.16748768910E+01  0.31620552992E+02  0.37491470801E+01  0.59301942107E+02  0.49999996498E+02 0.  0.
        -12    1    1    2    0    0  0.16748768910E+01 -0.31620552992E+02 -0.37491470801E+01  0.31886057893E+02  0.00000000000E+00 0.  1.
         11    1    3    3    0    0 -0.79861478380E+01  0.63366678163E+00 -0.12388212293E+02  0.14752894460E+02  0.51100000000E-03 0. -1.
        -11    1    3    3    0    0  0.72581797624E+01 -0.26003646473E+01  0.13019226714E+01  0.78190838763E+01  0.51100000000E-03 0.  1.
         12    1    3    3    0    0 -0.94690881541E+00  0.33587250857E+02  0.14835436702E+02  0.36729963771E+02  0.00000000000E+00 0. -1.
</event>
<event>
 7    1  0.6841384E-013  0.5930193E+02  0.7816164E-02  0.1266605E+00
        -11   -1    0    0    0    0  0.00000000000E+00  0.00000000000E+00  0.45593999997E+02  0.45594000000E+02  0.51100000000E-03 0.  1.
         11   -1    0    0    0    0 -0.00000000000E+00 -0.00000000000E+00 -0.45593999997E+02  0.45594000000E+02  0.51100000000E-03 0. -1.
    9900012    2    1    2    0    0 -0.19432832589E+02  0.15851121441E+02  0.19693353829E+02  0.59301933789E+02  0.49999981328E+02 0.  0.
        -12    1    1    2    0    0  0.19432832589E+02 -0.15851121441E+02 -0.19693353829E+02  0.31886066211E+02  0.00000000000E+00 0.  1.
         11    1    3    3    0    0 -0.10497228505E+02 -0.12901449826E+02 -0.14840921846E+01  0.16698555140E+02  0.51100000000E-03 0. -1.
        -11    1    3    3    0    0 -0.43728839136E+01  0.13687248010E+02 -0.20811826755E+01  0.14518753163E+02  0.51100000000E-03 0.  1.
        -12    1    3    3    0    0 -0.45627201703E+01  0.15065323257E+02  0.23258628689E+02  0.28084625486E+02  0.00000000000E+00 0.  1.
</event>
<event>
 7    1  0.6841384E-013  0.5930191E+02  0.7816164E-02  0.1266605E+00
        -11   -1    0    0    0    0  0.00000000000E+00  0.00000000000E+00  0.45593999997E+02  0.45594000000E+02  0.51100000000E-03 0.  1.
         11   -1    0    0    0    0 -0.00000000000E+00 -0.00000000000E+00 -0.45593999997E+02  0.45594000000E+02  0.51100000000E-03 0. -1.
    9900012    2    1    2    0    0  0.17297287353E+02  0.90956852274E+01 -0.25195136164E+02  0.59301913287E+02  0.49999943937E+02 0.  0.
        -12    1    1    2    0    0 -0.17297287353E+02 -0.90956852274E+01  0.25195136164E+02  0.31886086713E+02  0.00000000000E+00 0.  1.
         11    1    3    3    0    0  0.22775130813E+01 -0.45338711800E+01 -0.24246706889E+01  0.56233514849E+01  0.51100000000E-03 0. -1.
        -11    1    3    3    0    0  0.14624804961E+02 -0.14354306161E+02 -0.76910083661E+01  0.21887956402E+02  0.51100000000E-03 0.  1.
        -12    1    3    3    0    0  0.39496931084E+00  0.27983862569E+02 -0.15079457109E+02  0.31790605400E+02  0.00000000000E+00 0.  1.
</event>
<event>
 7    1  0.6841384E-013  0.5930193E+02  0.7816164E-02  0.1266605E+00
        -11   -1    0    0    0    0  0.00000000000E+00  0.00000000000E+00  0.45593999997E+02  0.45594000000E+02  0.51100000000E-03 0. -1.
         11   -1    0    0    0    0 -0.00000000000E+00 -0.00000000000E+00 -0.45593999997E+02  0.45594000000E+02  0.51100000000E-03 0.  1.
    9900012    2    1    2    0    0 -0.29448169871E+02 -0.12218573279E+02 -0.48276037072E+00  0.59301932520E+02  0.49999979013E+02 0.  0.
        -12    1    1    2    0    0  0.29448169871E+02  0.12218573279E+02  0.48276037072E+00  0.31886067480E+02  0.00000000000E+00 0.  1.
         11    1    3    3    0    0  0.32595561920E+01 -0.11190159013E+02  0.52885747631E+01  0.12798960450E+02  0.51100000000E-03 0. -1.
        -11    1    3    3    0    0  0.66864107180E+01 -0.54992327838E+00 -0.18231075484E+00  0.67114634302E+01  0.51100000000E-03 0.  1.
         12    1    3    3    0    0 -0.39394136781E+02 -0.47849098713E+00 -0.55890243790E+01  0.39791508640E+02  0.00000000000E+00 0. -1.
</event>
<event>
 7    1  0.6841384E-013  0.5930195E+02  0.7816164E-02  0.1266605E+00
        -11   -1    0    0    0    0  0.00000000000E+00  0.00000000000E+00  0.45593999997E+02  0.45594000000E+02  0.51100000000E-03 0. -1.
         11   -1    0    0    0    0 -0.00000000000E+00 -0.00000000000E+00 -0.45593999997E+02  0.45594000000E+02  0.51100000000E-03 0.  1.
    9900012    2    1    2    0    0 -0.26011847460E+02 -0.17753890348E+02  0.49903364763E+01  0.59301948364E+02  0.50000007909E+02 0.  0.
        -12    1    1    2    0    0  0.26011847460E+02  0.17753890348E+02 -0.49903364763E+01  0.31886051636E+02  0.00000000000E+00 0.  1.
         11    1    3    3    0    0  0.59816029501E+01  0.54941371189E+01  0.74048286623E+01  0.10990750853E+02  0.51100000000E-03 0. -1.
        -11    1    3    3    0    0 -0.89057564727E-01 -0.17349126472E+01  0.82097559800E+01  0.83915401838E+01  0.51100000000E-03 0.  1.
        -12    1    3    3    0    0 -0.31904392845E+02 -0.21513114820E+02 -0.10624248166E+02  0.39919657328E+02  0.00000000000E+00 0.  1.
</event>
<event>
 7    1  0.6841384E-013  0.5930189E+02  0.7816164E-02  0.1266605E+00
        -11   -1    0    0    0    0  0.00000000000E+00  0.00000000000E+00  0.45593999997E+02  0.45594000000E+02  0.51100000000E-03 0. -1.
         11   -1    0    0    0    0 -0.00000000000E+00 -0.00000000000E+00 -0.45593999997E+02  0.45594000000E+02  0.51100000000E-03 0.  1.
    9900012    2    1    2    0    0  0.20205525358E+02  0.12820485153E+02 -0.21073583421E+02  0.59301889972E+02  0.49999901415E+02 0.  0.
        -12    1    1    2    0    0 -0.20205525358E+02 -0.12820485153E+02  0.21073583421E+02  0.31886110028E+02  0.00000000000E+00 0.  1.
         11    1    3    3    0    0 -0.56639489716E+01  0.48889390463E+01  0.12767241116E+02  0.14798124507E+02  0.51100000000E-03 0. -1.
        -11    1    3    3    0    0  0.52874593722E+01  0.52907776798E+01 -0.50932797957E+01  0.90493676247E+01  0.51100000000E-03 0.  1.
        -12    1    3    3    0    0  0.20582014957E+02  0.26407684264E+01 -0.28747544741E+02  0.35454397840E+02  0.00000000000E+00 0.  1.
</event>
<event>
 7    1  0.6841384E-013  0.5930197E+02  0.7816164E-02  0.1266605E+00
        -11   -1    0    0    0    0  0.00000000000E+00  0.00000000000E+00  0.45593999997E+02  0.45594000000E+02  0.51100000000E-03 0.  1.
         11   -1    0    0    0    0 -0.00000000000E+00 -0.00000000000E+00 -0.45593999997E+02  0.45594000000E+02  0.51100000000E-03 0. -1.
    9900012    2    1    2    0    0 -0.18895641185E+02 -0.21690416265E+02 -0.13754984936E+02  0.59301968197E+02  0.50000044079E+02 0.  0.
        -12    1    1    2    0    0  0.18895641185E+02  0.21690416265E+02  0.13754984936E+02  0.31886031803E+02  0.00000000000E+00 0.  1.
         11    1    3    3    0    0 -0.82121713086E+01 -0.24826974158E+00 -0.45320660335E+01  0.93830175455E+01  0.51100000000E-03 0. -1.
        -11    1    3    3    0    0 -0.15174843279E+02  0.71323059873E+01 -0.12350612683E+02  0.20825064013E+02  0.51100000000E-03 0.  1.
         12    1    3    3    0    0  0.44913734027E+01 -0.28574452511E+02  0.31276937808E+01  0.29093886638E+02  0.00000000000E+00 0. -1.
</event>
<event>
 7    1  0.6841384E-013  0.5930196E+02  0.7816164E-02  0.1266605E+00
        -11   -1    0    0    0    0  0.00000000000E+00  0.00000000000E+00  0.45593999997E+02  0.45594000000E+02  0.51100000000E-03 0. -1.
         11   -1    0    0    0    0 -0.00000000000E+00 -0.00000000000E+00 -0.45593999997E+02  0.45594000000E+02  0.51100000000E-03 0.  1.
    9900012    2    1    2    0    0  0.16573219192E+01  0.47760057473E+01  0.31482737893E+02  0.59301957096E+02  0.50000023834E+02 0.  0.
        -12    1    1    2    0    0 -0.16573219192E+01 -0.47760057473E+01 -0.31482737893E+02  0.31886042904E+02  0.00000000000E+00 0.  1.
         11    1    3    3    0    0  0.52449476979E+01 -0.10130389597E+02  0.46730104699E+01  0.12327663885E+02  0.51100000000E-03 0. -1.
        -11    1    3    3    0    0  0.12293523363E+01 -0.63565053672E+01  0.24159671198E+02  0.25012120668E+02  0.51100000000E-03 0.  1.
        -12    1    3    3    0    0 -0.48169781151E+01  0.21262900712E+02  0.26500562249E+01  0.21962172544E+02  0.00000000000E+00 0.  1.
</event>
<event>
 7    1  0.6841384E-013  0.5930195E+02  0.7816164E-02  0.1266605E+00
        -11   -1    0    0    0    0  0.00000000000E+00  0.00000000000E+00  0.45593999997E+02  0.45594000000E+02  0.51100000000E-03 0.  1.
         11   -1    0    0    0    0 -0.00000000000E+00 -0.00000000000E+00 -0.45593999997E+02  0.45594000000E+02  0.51100000000E-03 0. -1.
    9900012    2    1    2    0    0 -0.29382973737E+02  0.12373235860E+02  0.51416255236E+00  0.59301945455E+02  0.50000002604E+02 0.  0.
        -12    1    1    2    0    0  0.29382973737E+02 -0.12373235860E+02 -0.51416255236E+00  0.31886054545E+02  0.00000000000E+00 0.  1.
         11    1    3    3    0    0 -0.27302779436E+02  0.19959088670E+02  0.16762729914E+02  0.37746471357E+02  0.51100000000E-03 0. -1.
        -11    1    3    3    0    0  0.21085777811E+01  0.24155177855E+01 -0.26269272662E+01  0.41450661701E+01  0.51100000000E-03 0.  1.
        -12    1    3    3    0    0 -0.41887720822E+01 -0.10001370596E+02 -0.13621640095E+02  0.17410407928E+02  0.00000000000E+00 0.  1.
</event>
<event>
 7    1  0.6841384E-013  0.5930195E+02  0.7816164E-02  0.1266605E+00
        -11   -1    0    0    0    0  0.00000000000E+00  0.00000000000E+00  0.45593999997E+02  0.45594000000E+02  0.51100000000E-03 0.  1.
         11   -1    0    0    0    0 -0.00000000000E+00 -0.00000000000E+00 -0.45593999997E+02  0.45594000000E+02  0.51100000000E-03 0. -1.
    9900012    2    1    2    0    0  0.15722623177E+02  0.22742713004E+02 -0.15883577277E+02  0.59301954440E+02  0.50000018989E+02 0.  0.
        -12    1    1    2    0    0 -0.15722623177E+02 -0.22742713004E+02  0.15883577277E+02  0.31886045560E+02  0.00000000000E+00 0.  1.
         11    1    3    3    0    0  0.19274972081E+01  0.18806103662E+02 -0.19110429552E+02  0.26881095557E+02  0.51100000000E-03 0. -1.
        -11    1    3    3    0    0 -0.32741392450E+01 -0.89885468027E+01 -0.31652038670E+01  0.10076332527E+02  0.51100000000E-03 0.  1.
         12    1    3    3    0    0  0.17069265214E+02  0.12925156144E+02  0.63920561419E+01  0.22344526355E+02  0.00000000000E+00 0. -1.
</event>
<event>
 7    1  0.6841384E-013  0.5930182E+02  0.7816164E-02  0.1266605E+00
        -11   -1    0    0    0    0  0.00000000000E+00  0.00000000000E+00  0.45593999997E+02  0.45594000000E+02  0.51100000000E-03 0. -1.
         11   -1    0    0    0    0 -0.00000000000E+00 -0.00000000000E+00 -0.45593999997E+02  0.45594000000E+02  0.51100000000E-03 0.  1.
    9900012    2    1    2    0    0  0.29559199984E+02  0.60177876304E+01 -0.10332890779E+02  0.59301816416E+02  0.49999767267E+02 0.  0.
        -12    1    1    2    0    0 -0.29559199984E+02 -0.60177876304E+01  0.10332890779E+02  0.31886183584E+02  0.00000000000E+00 0.  1.
         11    1    3    3    0    0  0.31910627945E+02  0.44396829705E+01 -0.10549406772E+02  0.33901164349E+02  0.51100000000E-03 0. -1.
        -11    1    3    3    0    0 -0.67281510213E+00  0.13412331046E+02 -0.36069450757E+00  0.13434039044E+02  0.51100000000E-03 0.  1.
         12    1    3    3    0    0 -0.16786128582E+01 -0.11834226386E+02  0.57721049998E+00  0.11966613023E+02  0.00000000000E+00 0. -1.
</event>
<event>
 7    1  0.6841384E-013  0.5930195E+02  0.7816164E-02  0.1266605E+00
        -11   -1    0    0    0    0  0.00000000000E+00  0.00000000000E+00  0.45593999997E+02  0.45594000000E+02  0.51100000000E-03 0.  1.
         11   -1    0    0    0    0 -0.00000000000E+00 -0.00000000000E+00 -0.45593999997E+02  0.45594000000E+02  0.51100000000E-03 0. -1.
    9900012    2    1    2    0    0 -0.24628677521E+02  0.33206640435E+00 -0.20249406142E+02  0.59301945468E+02  0.50000002627E+02 0.  0.
        -12    1    1    2    0    0  0.24628677521E+02 -0.33206640435E+00  0.20249406142E+02  0.31886054532E+02  0.00000000000E+00 0.  1.
         11    1    3    3    0    0 -0.53303000174E+01 -0.49949797250E+01 -0.18391341767E+02  0.19788970993E+02  0.51100000000E-03 0. -1.
        -11    1    3    3    0    0 -0.87333215725E+01  0.19520714149E+02  0.17429901831E+01  0.21456169314E+02  0.51100000000E-03 0.  1.
         12    1    3    3    0    0 -0.10565055931E+02 -0.14193668020E+02 -0.36010545581E+01  0.18056805161E+02  0.00000000000E+00 0. -1.
</event>
<event>
 7    1  0.6841384E-013  0.5930228E+02  0.7816164E-02  0.1266604E+00
        -11   -1    0    0    0    0  0.00000000000E+00  0.00000000000E+00  0.45593999997E+02  0.45594000000E+02  0.51100000000E-03 0. -1.
         11   -1    0    0    0    0 -0.00000000000E+00 -0.00000000000E+00 -0.45593999997E+02  0.45594000000E+02  0.51100000000E-03 0.  1.
    9900012    2    1    2    0    0  0.24759307088E+02 -0.14227204173E+02  0.14186693460E+02  0.59302283803E+02  0.50000619665E+02 0.  0.
        -12    1    1    2    0    0 -0.24759307088E+02  0.14227204173E+02 -0.14186693460E+02  0.31885716197E+02  0.00000000000E+00 0.  1.
         11    1    3    3    0    0  0.12098117985E+02 -0.90642396594E+01 -0.34237191039E+01  0.15499895230E+02  0.51100000000E-03 0. -1.
        -11    1    3    3    0    0  0.76748434855E+01 -0.19036619318E+02  0.20241047225E+02  0.28827002803E+02  0.51100000000E-03 0.  1.
        -12    1    3    3    0    0  0.49863456169E+01  0.13873654804E+02 -0.26306346606E+01  0.14975385770E+02  0.00000000000E+00 0.  1.
</event>
<event>
 7    1  0.6841384E-013  0.5930167E+02  0.7816164E-02  0.1266606E+00
        -11   -1    0    0    0    0  0.00000000000E+00  0.00000000000E+00  0.45593999997E+02  0.45594000000E+02  0.51100000000E-03 0.  1.
         11   -1    0    0    0    0 -0.00000000000E+00 -0.00000000000E+00 -0.45593999997E+02  0.45594000000E+02  0.51100000000E-03 0. -1.
    9900012    2    1    2    0    0  0.18236565987E+02 -0.21271823838E+02 -0.15220873706E+02  0.59301673388E+02  0.49999506416E+02 0.  0.
        -12    1    1    2    0    0 -0.18236565987E+02  0.21271823838E+02  0.15220873706E+02  0.31886326612E+02  0.00000000000E+00 0.  1.
         11    1    3    3    0    0  0.13648205770E+02  0.26357524326E+00 -0.73708731918E+01  0.15513631571E+02  0.51100000000E-03 0. -1.
        -11    1    3    3    0    0  0.12937154847E+02 -0.16356142027E+02  0.10217028070E+02  0.23222424947E+02  0.51100000000E-03 0.  1.
        -12    1    3    3    0    0 -0.83487946306E+01 -0.51792570542E+01 -0.18067028584E+02  0.20565616871E+02  0.00000000000E+00 0.  1.
</event>
<event>
 7    1  0.6841384E-013  0.5930195E+02  0.7816164E-02  0.1266605E+00
        -11   -1    0    0    0    0  0.00000000000E+00  0.00000000000E+00  0.45593999997E+02  0.45594000000E+02  0.51100000000E-03 0. -1.
         11   -1    0    0    0    0 -0.00000000000E+00 -0.00000000000E+00 -0.45593999997E+02  0.45594000000E+02  0.51100000000E-03 0.  1.
    9900012    2    1    2    0    0 -0.19885460539E+02  0.14593587704E+02  0.20206821432E+02  0.59301953282E+02  0.50000016877E+02 0.  0.
        -12    1    1    2    0    0  0.19885460539E+02 -0.14593587704E+02 -0.20206821432E+02  0.31886046718E+02  0.00000000000E+00 0.  1.
         11    1    3    3    0    0 -0.24949453515E+02  0.11639119793E+02  0.19553053928E+02  0.33767828749E+02  0.51100000000E-03 0. -1.
        -11    1    3    3    0    0 -0.38972961331E+01  0.11573062856E+02 -0.30007496864E+01  0.12574943338E+02  0.51100000000E-03 0.  1.
        -12    1    3    3    0    0  0.89612891087E+01 -0.86185949457E+01  0.36545171903E+01  0.12959181194E+02  0.00000000000E+00 0.  1.
</event>
<event>
 7    1  0.6841384E-013  0.5930192E+02  0.7816164E-02  0.1266605E+00
        -11   -1    0    0    0    0  0.00000000000E+00  0.00000000000E+00  0.45593999997E+02  0.45594000000E+02  0.51100000000E-03 0.  1.
         11   -1    0    0    0    0 -0.00000000000E+00 -0.00000000000E+00 -0.45593999997E+02  0.45594000000E+02  0.51100000000E-03 0. -1.
    9900012    2    1    2    0    0 -0.27236808819E+02 -0.10101093748E+02 -0.13147088562E+02  0.59301924870E+02  0.49999965061E+02 0.  0.
        -12    1    1    2    0    0  0.27236808819E+02  0.10101093748E+02  0.13147088562E+02  0.31886075130E+02  0.00000000000E+00 0.  1.
         11    1    3    3    0    0 -0.27384476999E+02 -0.12968609621E+02 -0.23074040098E+02  0.38085505677E+02  0.51100000000E-03 0. -1.
        -11    1    3    3    0    0  0.75487196862E-01 -0.74369038183E+01  0.85297687407E+00  0.74860407779E+01  0.51100000000E-03 0.  1.
        -12    1    3    3    0    0  0.72180983209E-01  0.10304419691E+02  0.90739746612E+01  0.13730378415E+02  0.00000000000E+00 0.  1.
</event>
<event>
 7    1  0.6841384E-013  0.5930193E+02  0.7816164E-02  0.1266605E+00
        -11   -1    0    0    0    0  0.00000000000E+00  0.00000000000E+00  0.45593999997E+02  0.45594000000E+02  0.51100000000E-03 0. -1.
         11   -1    0    0    0    0 -0.00000000000E+00 -0.00000000000E+00 -0.45593999997E+02  0.45594000000E+02  0.51100000000E-03 0.  1.
    9900012    2    1    2    0    0 -0.17546235480E+02  0.22498082542E+02 -0.14236826399E+02  0.59301932142E+02  0.49999978322E+02 0.  0.
        -12    1    1    2    0    0  0.17546235480E+02 -0.22498082542E+02  0.14236826399E+02  0.31886067858E+02  0.00000000000E+00 0.  1.
         11    1    3    3    0    0  0.12740270743E+01  0.13992417960E+02  0.81457769832E+01  0.16240830898E+02  0.51100000000E-03 0. -1.
        -11    1    3    3    0    0  0.23556889048E+01  0.10447163703E+02  0.17990400637E+01  0.10859514034E+02  0.51100000000E-03 0.  1.
        -12    1    3    3    0    0 -0.21175951459E+02 -0.19414991210E+01 -0.24181643446E+02  0.32201587209E+02  0.00000000000E+00 0.  1.
</event>
<event>
 7    1  0.6841384E-013  0.5930194E+02  0.7816164E-02  0.1266605E+00
        -11   -1    0    0    0    0  0.00000000000E+00  0.00000000000E+00  0.45593999997E+02  0.45594000000E+02  0.51100000000E-03 0.  1.
         11   -1    0    0    0    0 -0.00000000000E+00 -0.00000000000E+00 -0.45593999997E+02  0.45594000000E+02  0.51100000000E-03 0. -1.
    9900012    2    1    2    0    0 -0.40977040171E+00 -0.29205044261E+02  0.12791334094E+02  0.59301941134E+02  0.49999994723E+02 0.  0.
        -12    1    1    2    0    0  0.40977040171E+00  0.29205044261E+02 -0.12791334094E+02  0.31886058866E+02  0.00000000000E+00 0.  1.
         11    1    3    3    0    0 -0.12646113643E+02 -0.19054829779E+02  0.24774917833E+02  0.33716572811E+02  0.51100000000E-03 0. -1.
        -11    1    3    3    0    0 -0.38133024182E+01 -0.89654844061E+00 -0.98098750864E+00  0.40382435776E+01  0.51100000000E-03 0.  1.
         12    1    3    3    0    0  0.16049645660E+02 -0.92536660417E+01 -0.11002596231E+02  0.21547124746E+02  0.00000000000E+00 0. -1.
</event>
<event>
 7    1  0.6841384E-013  0.5930194E+02  0.7816164E-02  0.1266605E+00
        -11   -1    0    0    0    0  0.00000000000E+00  0.00000000000E+00  0.45593999997E+02  0.45594000000E+02  0.51100000000E-03 0. -1.
         11   -1    0    0    0    0 -0.00000000000E+00 -0.00000000000E+00 -0.45593999997E+02  0.45594000000E+02  0.51100000000E-03 0.  1.
    9900012    2    1    2    0    0  0.28717461630E+02 -0.81007334283E+00  0.13833722515E+02  0.59301941919E+02  0.49999996154E+02 0.  0.
        -12    1    1    2    0    0 -0.28717461630E+02  0.81007334283E+00 -0.13833722515E+02  0.31886058081E+02  0.00000000000E+00 0.  1.
         11    1    3    3    0    0  0.15433351893E+02  0.14371205198E+02 -0.17330198455E+01  0.21159471817E+02  0.51100000000E-03 0.  1.
        -11    1    3    3    0    0  0.16965595772E+02 -0.12970050402E+02  0.21836343913E+02  0.30543077171E+02  0.51100000000E-03 0. -1.
         12    1    3    3    0    0 -0.36814860348E+01 -0.22112281386E+01 -0.62696015523E+01  0.75993929317E+01  0.00000000000E+00 0. -1.
</event>
<event>
 7    1  0.6841384E-013  0.5930194E+02  0.7816164E-02  0.1266605E+00
        -11   -1    0    0    0    0  0.00000000000E+00  0.00000000000E+00  0.45593999997E+02  0.45594000000E+02  0.51100000000E-03 0.  1.
         11   -1    0    0    0    0 -0.00000000000E+00 -0.00000000000E+00 -0.45593999997E+02  0.45594000000E+02  0.51100000000E-03 0. -1.
    9900012    2    1    2    0    0  0.16421703868E+02 -0.18303341370E+02 -0.20298666768E+02  0.59301944493E+02  0.50000000848E+02 0.  0.
        -12    1    1    2    0    0 -0.16421703868E+02  0.18303341370E+02  0.20298666768E+02  0.31886055507E+02  0.00000000000E+00 0.  1.
         11    1    3    3    0    0 -0.62653656579E+01 -0.14243930250E+02 -0.32093026606E+01  0.15888485757E+02  0.51100000000E-03 0. -1.
        -11    1    3    3    0    0 -0.68188280711E+01  0.53851555353E+01 -0.57677659163E+01  0.10428971202E+02  0.51100000000E-03 0.  1.
         12    1    3    3    0    0  0.29505897597E+02 -0.94445666545E+01 -0.11321598192E+02  0.32984487535E+02  0.00000000000E+00 0. -1.
</event>
<event>
 7    1  0.6841384E-013  0.5930166E+02  0.7816164E-02  0.1266606E+00
        -11   -1    0    0    0    0  0.00000000000E+00  0.00000000000E+00  0.45593999997E+02  0.45594000000E+02  0.51100000000E-03 0. -1.
         11   -1    0    0    0    0 -0.00000000000E+00 -0.00000000000E+00 -0.45593999997E+02  0.45594000000E+02  0.51100000000E-03 0.  1.
    9900012    2    1    2    0    0  0.11965718797E+02  0.29550399991E+02  0.57783357810E+00  0.59301663466E+02  0.49999488320E+02 0.  0.
        -12    1    1    2    0    0 -0.11965718797E+02 -0.29550399991E+02 -0.57783357810E+00  0.31886336534E+02  0.00000000000E+00 0.  1.
         11    1    3    3    0    0 -0.50989519542E+01 -0.20048063469E+01  0.22364463279E+01  0.59177911385E+01  0.51100000000E-03 0. -1.
        -11    1    3    3    0    0 -0.11959540586E+02  0.28678624907E+01  0.17957850130E+01  0.12429001986E+02  0.51100000000E-03 0.  1.
         12    1    3    3    0    0  0.29024211338E+02  0.28687343847E+02 -0.34543977628E+01  0.40954870341E+02  0.00000000000E+00 0. -1.
</event>
<event>
 7    1  0.6841384E-013  0.5930194E+02  0.7816164E-02  0.1266605E+00
        -11   -1    0    0    0    0  0.00000000000E+00  0.00000000000E+00  0.45593999997E+02  0.45594000000E+02  0.51100000000E-03 0.  1.
         11   -1    0    0    0    0 -0.00000000000E+00 -0.00000000000E+00 -0.45593999997E+02  0.45594000000E+02  0.51100000000E-03 0. -1.
    9900012    2    1    2    0    0 -0.31861773468E+02 -0.11038092722E-01 -0.12441120653E+01  0.59301944345E+02  0.50000000579E+02 0.  0.
        -12    1    1    2    0    0  0.31861773468E+02  0.11038092722E-01  0.12441120653E+01  0.31886055655E+02  0.00000000000E+00 0.  1.
         11    1    3    3    0    0  0.59265894129E+01 -0.21424016560E+01  0.15349350419E+00  0.63038010312E+01  0.51100000000E-03 0. -1.
        -11    1    3    3    0    0 -0.22019532739E+02 -0.54864741103E+01  0.16423652099E+02  0.28012453815E+02  0.51100000000E-03 0.  1.
         12    1    3    3    0    0 -0.15768830142E+02  0.76178376735E+01 -0.17821257668E+02  0.24985689499E+02  0.00000000000E+00 0. -1.
</event>
<event>
 7    1  0.6841384E-013  0.5930193E+02  0.7816164E-02  0.1266605E+00
        -11   -1    0    0    0    0  0.00000000000E+00  0.00000000000E+00  0.45593999997E+02  0.45594000000E+02  0.51100000000E-03 0.  1.
         11   -1    0    0    0    0 -0.00000000000E+00 -0.00000000000E+00 -0.45593999997E+02  0.45594000000E+02  0.51100000000E-03 0. -1.
    9900012    2    1    2    0    0 -0.26056889273E+02  0.43676558175E+01 -0.17851708723E+02  0.59301930937E+02  0.49999976126E+02 0.  0.
        -12    1    1    2    0    0  0.26056889273E+02 -0.43676558175E+01  0.17851708723E+02  0.31886069063E+02  0.00000000000E+00 0.  1.
         11    1    3    3    0    0 -0.14063933734E+02 -0.21095613092E+00 -0.15775940099E+02  0.21135728538E+02  0.51100000000E-03 0. -1.
        -11    1    3    3    0    0 -0.18408922188E+02  0.14157548697E+01  0.12247459998E+02  0.22156106487E+02  0.51100000000E-03 0.  1.
         12    1    3    3    0    0  0.64159666492E+01  0.31628570787E+01 -0.14323228623E+02  0.16010095912E+02  0.00000000000E+00 0. -1.
</event>
<event>
 7    1  0.6841384E-013  0.5930201E+02  0.7816164E-02  0.1266605E+00
        -11   -1    0    0    0    0  0.00000000000E+00  0.00000000000E+00  0.45593999997E+02  0.45594000000E+02  0.51100000000E-03 0.  1.
         11   -1    0    0    0    0 -0.00000000000E+00 -0.00000000000E+00 -0.45593999997E+02  0.45594000000E+02  0.51100000000E-03 0. -1.
    9900012    2    1    2    0    0  0.10590236031E+02 -0.16379241629E+01 -0.30031322498E+02  0.59302012078E+02  0.50000124108E+02 0.  0.
        -12    1    1    2    0    0 -0.10590236031E+02  0.16379241629E+01  0.30031322498E+02  0.31885987922E+02  0.00000000000E+00 0.  1.
         11    1    3    3    0    0  0.77430729768E+01 -0.90918221914E+01  0.21825848333E+01  0.12140020045E+02  0.51100000000E-03 0. -1.
        -11    1    3    3    0    0  0.38334673435E+01  0.94725168074E+01  0.39298950354E+01  0.10948430106E+02  0.51100000000E-03 0.  1.
         12    1    3    3    0    0 -0.98630428889E+00 -0.20186187788E+01 -0.36143802367E+02  0.36213561927E+02  0.00000000000E+00 0. -1.
</event>
<event>
 7    1  0.6841384E-013  0.5930198E+02  0.7816164E-02  0.1266605E+00
        -11   -1    0    0    0    0  0.00000000000E+00  0.00000000000E+00  0.45593999997E+02  0.45594000000E+02  0.51100000000E-03 0. -1.
         11   -1    0    0    0    0 -0.00000000000E+00 -0.00000000000E+00 -0.45593999997E+02  0.45594000000E+02  0.51100000000E-03 0.  1.
    9900012    2    1    2    0    0  0.25917988215E+02 -0.18253793476E+02  0.34315311115E+01  0.59301976492E+02  0.50000059207E+02 0.  0.
        -12    1    1    2    0    0 -0.25917988215E+02  0.18253793476E+02 -0.34315311115E+01  0.31886023508E+02  0.00000000000E+00 0.  1.
         11    1    3    3    0    0  0.38993100590E+01 -0.11548756233E+01  0.86703124827E+01  0.95766735065E+01  0.51100000000E-03 0. -1.
        -11    1    3    3    0    0  0.56392712223E+01  0.52388902900E+01  0.14016293920E+02  0.15990742538E+02  0.51100000000E-03 0.  1.
         12    1    3    3    0    0  0.16379406934E+02 -0.22337808143E+02 -0.19255075292E+02  0.33734560448E+02  0.00000000000E+00 0. -1.
</event>
<event>
 7    1  0.6841384E-013  0.5930198E+02  0.7816164E-02  0.1266605E+00
        -11   -1    0    0    0    0  0.00000000000E+00  0.00000000000E+00  0.45593999997E+02  0.45594000000E+02  0.51100000000E-03 0.  1.
         11   -1    0    0    0    0 -0.00000000000E+00 -0.00000000000E+00 -0.45593999997E+02  0.45594000000E+02  0.51100000000E-03 0. -1.
    9900012    2    1    2    0    0 -0.31662774876E+02 -0.19901077734E+01  0.31978724254E+01  0.59301980652E+02  0.50000066794E+02 0.  0.
        -12    1    1    2    0    0  0.31662774876E+02  0.19901077734E+01 -0.31978724254E+01  0.31886019348E+02  0.00000000000E+00 0.  1.
         11    1    3    3    0    0 -0.21892251309E+01 -0.14922833153E+02  0.29075215594E+01  0.15360251881E+02  0.51100000000E-03 0. -1.
        -11    1    3    3    0    0 -0.44073492483E+01 -0.93595278049E+01 -0.82638364420E+00  0.10378265670E+02  0.51100000000E-03 0.  1.
        -12    1    3    3    0    0 -0.25066200497E+02  0.22292253184E+02  0.11167345102E+01  0.33563463101E+02  0.00000000000E+00 0.  1.
</event>
<event>
 7    1  0.6841384E-013  0.5930194E+02  0.7816164E-02  0.1266605E+00
        -11   -1    0    0    0    0  0.00000000000E+00  0.00000000000E+00  0.45593999997E+02  0.45594000000E+02  0.51100000000E-03 0. -1.
         11   -1    0    0    0    0 -0.00000000000E+00 -0.00000000000E+00 -0.45593999997E+02  0.45594000000E+02  0.51100000000E-03 0.  1.
    9900012    2    1    2    0    0 -0.22177288038E+01 -0.19889058257E+02  0.24823941275E+02  0.59301936903E+02  0.49999987007E+02 0.  0.
        -12    1    1    2    0    0  0.22177288038E+01  0.19889058257E+02 -0.24823941275E+02  0.31886063097E+02  0.00000000000E+00 0.  1.
         11    1    3    3    0    0  0.62785335810E+01  0.39609711824E+01  0.99945650705E+01  0.12449924010E+02  0.51100000000E-03 0.  1.
        -11    1    3    3    0    0  0.74077081463E+01 -0.19262722871E+02 -0.47863686450E+01  0.21185748923E+02  0.51100000000E-03 0. -1.
         12    1    3    3    0    0 -0.15903970531E+02 -0.45873065686E+01  0.19615744849E+02  0.25666263970E+02  0.00000000000E+00 0. -1.
</event>
<event>
 7    1  0.6841384E-013  0.5930194E+02  0.7816164E-02  0.1266605E+00
        -11   -1    0    0    0    0  0.00000000000E+00  0.00000000000E+00  0.45593999997E+02  0.45594000000E+02  0.51100000000E-03 0.  1.
         11   -1    0    0    0    0 -0.00000000000E+00 -0.00000000000E+00 -0.45593999997E+02  0.45594000000E+02  0.51100000000E-03 0. -1.
    9900012    2    1    2    0    0 -0.58138209931E+01 -0.56345482168E+01 -0.30841083707E+02  0.59301935766E+02  0.49999984932E+02 0.  0.
        -12    1    1    2    0    0  0.58138209931E+01  0.56345482168E+01  0.30841083707E+02  0.31886064234E+02  0.00000000000E+00 0.  1.
         11    1    3    3    0    0  0.44808925366E+01  0.17023448699E+01  0.24120205282E+01  0.53660245313E+01  0.51100000000E-03 0. -1.
        -11    1    3    3    0    0 -0.29946153215E+01  0.29500964802E+01  0.89499973425E+01  0.98880353386E+01  0.51100000000E-03 0.  1.
         12    1    3    3    0    0 -0.73000982081E+01 -0.10286989567E+02 -0.42203101577E+02  0.44047875896E+02  0.00000000000E+00 0. -1.
</event>
<event>
 7    1  0.6841384E-013  0.5930197E+02  0.7816164E-02  0.1266605E+00
        -11   -1    0    0    0    0  0.00000000000E+00  0.00000000000E+00  0.45593999997E+02  0.45594000000E+02  0.51100000000E-03 0.  1.
         11   -1    0    0    0    0 -0.00000000000E+00 -0.00000000000E+00 -0.45593999997E+02  0.45594000000E+02  0.51100000000E-03 0. -1.
    9900012    2    1    2    0    0 -0.24868991357E+02  0.18156953276E+02 -0.82811387043E+01  0.59301969491E+02  0.50000046438E+02 0.  0.
        -12    1    1    2    0    0  0.24868991357E+02 -0.18156953276E+02  0.82811387043E+01  0.31886030509E+02  0.00000000000E+00 0.  1.
         11    1    3    3    0    0 -0.22357472902E+02  0.62113970808E+01  0.48288285567E+01  0.23701384638E+02  0.51100000000E-03 0. -1.
        -11    1    3    3    0    0 -0.10775343151E+02  0.18365511465E+02 -0.13352145954E+02  0.25133241599E+02  0.51100000000E-03 0.  1.
        -12    1    3    3    0    0  0.82638246965E+01 -0.64199552697E+01  0.24217869333E+00  0.10467343254E+02  0.00000000000E+00 0.  1.
</event>
<event>
 7    1  0.6841384E-013  0.5930195E+02  0.7816164E-02  0.1266605E+00
        -11   -1    0    0    0    0  0.00000000000E+00  0.00000000000E+00  0.45593999997E+02  0.45594000000E+02  0.51100000000E-03 0.  1.
         11   -1    0    0    0    0 -0.00000000000E+00 -0.00000000000E+00 -0.45593999997E+02  0.45594000000E+02  0.51100000000E-03 0. -1.
    9900012    2    1    2    0    0  0.24881590134E+02  0.75881877370E+01 -0.18440338685E+02  0.59301949578E+02  0.50000010122E+02 0.  0.
        -12    1    1    2    0    0 -0.24881590134E+02 -0.75881877370E+01  0.18440338685E+02  0.31886050422E+02  0.00000000000E+00 0.  1.
         11    1    3    3    0    0  0.13517819096E+02  0.14219715604E+02 -0.15990967409E+02  0.25310922225E+02  0.51100000000E-03 0. -1.
        -11    1    3    3    0    0  0.97939849165E+01  0.10449943549E+02 -0.74224632587E+01  0.16131225056E+02  0.51100000000E-03 0.  1.
        -12    1    3    3    0    0  0.15697861217E+01 -0.17081471416E+02  0.49730919835E+01  0.17859802296E+02  0.00000000000E+00 0.  1.
</event>
<event>
 7    1  0.6841384E-013  0.5930193E+02  0.7816164E-02  0.1266605E+00
        -11   -1    0    0    0    0  0.00000000000E+00  0.00000000000E+00  0.45593999997E+02  0.45594000000E+02  0.51100000000E-03 0.  1.
         11   -1    0    0    0    0 -0.00000000000E+00 -0.00000000000E+00 -0.45593999997E+02  0.45594000000E+02  0.51100000000E-03 0. -1.
    9900012    2    1    2    0    0  0.23816281626E+02  0.20697375977E+02  0.45961697747E+01  0.59301930637E+02  0.49999975579E+02 0.  0.
        -12    1    1    2    0    0 -0.23816281626E+02 -0.20697375977E+02 -0.45961697747E+01  0.31886069363E+02  0.00000000000E+00 0.  1.
         11    1    3    3    0    0  0.97697087820E+01 -0.54135673663E+00  0.39781522173E+01  0.10562479450E+02  0.51100000000E-03 0. -1.
        -11    1    3    3    0    0  0.76552241346E+01  0.99990795701E+01  0.21068033007E+02  0.24544776712E+02  0.51100000000E-03 0.  1.
         12    1    3    3    0    0  0.63913487094E+01  0.11239653143E+02 -0.20450015449E+02  0.24194674476E+02  0.00000000000E+00 0. -1.
</event>
<event>
 7    1  0.6841384E-013  0.5930206E+02  0.7816164E-02  0.1266604E+00
        -11   -1    0    0    0    0  0.00000000000E+00  0.00000000000E+00  0.45593999997E+02  0.45594000000E+02  0.51100000000E-03 0. -1.
         11   -1    0    0    0    0 -0.00000000000E+00 -0.00000000000E+00 -0.45593999997E+02  0.45594000000E+02  0.51100000000E-03 0.  1.
    9900012    2    1    2    0    0 -0.58440999185E+01  0.67357288500E+00  0.31338570203E+02  0.59302059734E+02  0.50000211020E+02 0.  0.
        -12    1    1    2    0    0  0.58440999185E+01 -0.67357288500E+00 -0.31338570203E+02  0.31885940266E+02  0.00000000000E+00 0.  1.
         11    1    3    3    0    0 -0.83951487816E+01  0.24400105790E+01  0.12799785563E+01  0.88357523764E+01  0.51100000000E-03 0. -1.
        -11    1    3    3    0    0  0.80380149010E+01 -0.10636683849E+01 -0.83631896167E+01  0.11648348158E+02  0.51100000000E-03 0.  1.
         12    1    3    3    0    0 -0.54869660378E+01 -0.70276930913E+00  0.38421781263E+02  0.38817959200E+02  0.00000000000E+00 0. -1.
</event>
<event>
 7    1  0.6841384E-013  0.5930194E+02  0.7816164E-02  0.1266605E+00
        -11   -1    0    0    0    0  0.00000000000E+00  0.00000000000E+00  0.45593999997E+02  0.45594000000E+02  0.51100000000E-03 0. -1.
         11   -1    0    0    0    0 -0.00000000000E+00 -0.00000000000E+00 -0.45593999997E+02  0.45594000000E+02  0.51100000000E-03 0.  1.
    9900012    2    1    2    0    0 -0.19768546228E+02 -0.76330916122E+01 -0.23825640436E+02  0.59301942706E+02  0.49999997590E+02 0.  0.
        -12    1    1    2    0    0  0.19768546228E+02  0.76330916122E+01  0.23825640436E+02  0.31886057294E+02  0.00000000000E+00 0.  1.
         11    1    3    3    0    0 -0.35494476668E+01  0.39170544680E+01 -0.16065518924E+02  0.16912799680E+02  0.51100000000E-03 0. -1.
        -11    1    3    3    0    0 -0.26487732355E+02 -0.14605603907E+02 -0.91125621394E+01  0.31590543202E+02  0.51100000000E-03 0.  1.
         12    1    3    3    0    0  0.10268633794E+02  0.30554578264E+01  0.13524406275E+01  0.10798599825E+02  0.00000000000E+00 0. -1.
</event>
<event>
 7    1  0.6841384E-013  0.5930196E+02  0.7816164E-02  0.1266605E+00
        -11   -1    0    0    0    0  0.00000000000E+00  0.00000000000E+00  0.45593999997E+02  0.45594000000E+02  0.51100000000E-03 0.  1.
         11   -1    0    0    0    0 -0.00000000000E+00 -0.00000000000E+00 -0.45593999997E+02  0.45594000000E+02  0.51100000000E-03 0. -1.
    9900012    2    1    2    0    0  0.90126819446E+01  0.10310512860E+02 -0.28795567791E+02  0.59301955471E+02  0.50000020870E+02 0.  0.
        -12    1    1    2    0    0 -0.90126819446E+01 -0.10310512860E+02  0.28795567791E+02  0.31886044529E+02  0.00000000000E+00 0.  1.
         11    1    3    3    0    0 -0.55068138577E+01  0.17979631013E+02 -0.13333966621E+02  0.23051828481E+02  0.51100000000E-03 0. -1.
        -11    1    3    3    0    0  0.34450148249E+01 -0.74977849307E+01  0.72485885798E+01  0.10983029758E+02  0.51100000000E-03 0.  1.
        -12    1    3    3    0    0  0.11074480977E+02 -0.17133322279E+00 -0.22710189751E+02  0.25267097231E+02  0.00000000000E+00 0.  1.
</event>
<event>
 7    1  0.6841384E-013  0.5930196E+02  0.7816164E-02  0.1266605E+00
        -11   -1    0    0    0    0  0.00000000000E+00  0.00000000000E+00  0.45593999997E+02  0.45594000000E+02  0.51100000000E-03 0.  1.
         11   -1    0    0    0    0 -0.00000000000E+00 -0.00000000000E+00 -0.45593999997E+02  0.45594000000E+02  0.51100000000E-03 0. -1.
    9900012    2    1    2    0    0 -0.86236474893E+01  0.14609411934E+02 -0.26998463417E+02  0.59301964813E+02  0.50000037907E+02 0.  0.
        -12    1    1    2    0    0  0.86236474893E+01 -0.14609411934E+02  0.26998463417E+02  0.31886035187E+02  0.00000000000E+00 0.  1.
         11    1    3    3    0    0 -0.20666689638E+02  0.14058194791E+02 -0.19156119174E+02  0.31491297265E+02  0.51100000000E-03 0. -1.
        -11    1    3    3    0    0  0.66303448173E+00  0.49032250129E+01  0.70226078445E+01  0.85905908673E+01  0.51100000000E-03 0.  1.
         12    1    3    3    0    0  0.11380007667E+02 -0.43520078699E+01 -0.14864952088E+02  0.19220076680E+02  0.00000000000E+00 0. -1.
</event>
<event>
 7    1  0.6841384E-013  0.5930185E+02  0.7816164E-02  0.1266605E+00
        -11   -1    0    0    0    0  0.00000000000E+00  0.00000000000E+00  0.45593999997E+02  0.45594000000E+02  0.51100000000E-03 0.  1.
         11   -1    0    0    0    0 -0.00000000000E+00 -0.00000000000E+00 -0.45593999997E+02  0.45594000000E+02  0.51100000000E-03 0. -1.
    9900012    2    1    2    0    0  0.17432066180E+02 -0.25041710791E+02  0.92608115718E+01  0.59301845612E+02  0.49999820514E+02 0.  0.
        -12    1    1    2    0    0 -0.17432066180E+02  0.25041710791E+02 -0.92608115718E+01  0.31886154388E+02  0.00000000000E+00 0.  1.
         11    1    3    3    0    0 -0.19671973622E+01 -0.10048375825E+02 -0.97554314211E+01  0.14142424285E+02  0.51100000000E-03 0. -1.
        -11    1    3    3    0    0  0.89433927395E+01  0.42278173395E+01 -0.62764358016E+01  0.11715475226E+02  0.51100000000E-03 0.  1.
         12    1    3    3    0    0  0.10455870803E+02 -0.19221152306E+02  0.25292678794E+02  0.33443946101E+02  0.00000000000E+00 0. -1.
</event>
<event>
 7    1  0.6841384E-013  0.5930202E+02  0.7816164E-02  0.1266604E+00
        -11   -1    0    0    0    0  0.00000000000E+00  0.00000000000E+00  0.45593999997E+02  0.45594000000E+02  0.51100000000E-03 0. -1.
         11   -1    0    0    0    0 -0.00000000000E+00 -0.00000000000E+00 -0.45593999997E+02  0.45594000000E+02  0.51100000000E-03 0.  1.
    9900012    2    1    2    0    0 -0.31436446109E+00 -0.67892460614E+01  0.31153214293E+02  0.59302024276E+02  0.50000146353E+02 0.  0.
        -12    1    1    2    0    0  0.31436446109E+00  0.67892460614E+01 -0.31153214293E+02  0.31885975724E+02  0.00000000000E+00 0.  1.
         11    1    3    3    0    0 -0.25138961477E+01  0.15531519574E+01  0.18407572256E+02  0.18643247342E+02  0.51100000000E-03 0. -1.
        -11    1    3    3    0    0  0.12365510963E+02 -0.10402379813E+02  0.21631355213E+02  0.27000572137E+02  0.51100000000E-03 0.  1.
        -12    1    3    3    0    0 -0.10165979276E+02  0.20599817943E+01 -0.88857131751E+01  0.13658204796E+02  0.00000000000E+00 0.  1.
</event>
<event>
 7    1  0.6841384E-013  0.5930195E+02  0.7816164E-02  0.1266605E+00
        -11   -1    0    0    0    0  0.00000000000E+00  0.00000000000E+00  0.45593999997E+02  0.45594000000E+02  0.51100000000E-03 0.  1.
         11   -1    0    0    0    0 -0.00000000000E+00 -0.00000000000E+00 -0.45593999997E+02  0.45594000000E+02  0.51100000000E-03 0. -1.
    9900012    2    1    2    0    0  0.26483558480E+02  0.16063649037E+02 -0.75697170578E+01  0.59301948089E+02  0.50000007407E+02 0.  0.
        -12    1    1    2    0    0 -0.26483558480E+02 -0.16063649037E+02  0.75697170578E+01  0.31886051911E+02  0.00000000000E+00 0.  1.
         11    1    3    3    0    0  0.82214677750E+01  0.16279176971E+02  0.86625971718E+01  0.20190213601E+02  0.51100000000E-03 0. -1.
        -11    1    3    3    0    0  0.29113907358E+01  0.46242094111E+01  0.82001575153E+01  0.98540393865E+01  0.51100000000E-03 0.  1.
         12    1    3    3    0    0  0.15350699969E+02 -0.48397373452E+01 -0.24432471745E+02  0.29257695102E+02  0.00000000000E+00 0. -1.
</event>
<event>
 7    1  0.6841384E-013  0.5930194E+02  0.7816164E-02  0.1266605E+00
        -11   -1    0    0    0    0  0.00000000000E+00  0.00000000000E+00  0.45593999997E+02  0.45594000000E+02  0.51100000000E-03 0.  1.
         11   -1    0    0    0    0 -0.00000000000E+00 -0.00000000000E+00 -0.45593999997E+02  0.45594000000E+02  0.51100000000E-03 0. -1.
    9900012    2    1    2    0    0  0.16563789159E+02 -0.19349412796E+02 -0.19182329699E+02  0.59301942553E+02  0.49999997310E+02 0.  0.
        -12    1    1    2    0    0 -0.16563789159E+02  0.19349412796E+02  0.19182329699E+02  0.31886057447E+02  0.00000000000E+00 0.  1.
         11    1    3    3    0    0  0.72853146001E+01 -0.13808242364E+01  0.52145656887E+01  0.90649975167E+01  0.51100000000E-03 0.  1.
        -11    1    3    3    0    0  0.98724715879E+01 -0.73025540596E+01  0.89665555029E+01  0.15205002759E+02  0.51100000000E-03 0. -1.
        -12    1    3    3    0    0 -0.59399702898E+00 -0.10666034500E+02 -0.33363450890E+02  0.35031942277E+02  0.00000000000E+00 0.  1.
</event>
<event>
 7    1  0.6841384E-013  0.5930193E+02  0.7816164E-02  0.1266605E+00
        -11   -1    0    0    0    0  0.00000000000E+00  0.00000000000E+00  0.45593999997E+02  0.45594000000E+02  0.51100000000E-03 0. -1.
         11   -1    0    0    0    0 -0.00000000000E+00 -0.00000000000E+00 -0.45593999997E+02  0.45594000000E+02  0.51100000000E-03 0.  1.
    9900012    2    1    2    0    0 -0.26321042881E+02 -0.17997492347E+02 -0.11961888164E+00  0.59301931917E+02  0.49999977912E+02 0.  0.
        -12    1    1    2    0    0  0.26321042881E+02  0.17997492347E+02  0.11961888164E+00  0.31886068083E+02  0.00000000000E+00 0.  1.
         11    1    3    3    0    0  0.34854776297E+01 -0.70767710739E+01  0.26292473474E+01  0.83151779906E+01  0.51100000000E-03 0. -1.
        -11    1    3    3    0    0 -0.65607873102E+01  0.87843520632E+01 -0.14626849626E+02  0.18279866015E+02  0.51100000000E-03 0.  1.
         12    1    3    3    0    0 -0.23245733201E+02 -0.19705073336E+02  0.11877983397E+02  0.32706887911E+02  0.00000000000E+00 0. -1.
</event>
<event>
 7    1  0.6841384E-013  0.5930194E+02  0.7816164E-02  0.1266605E+00
        -11   -1    0    0    0    0  0.00000000000E+00  0.00000000000E+00  0.45593999997E+02  0.45594000000E+02  0.51100000000E-03 0. -1.
         11   -1    0    0    0    0 -0.00000000000E+00 -0.00000000000E+00 -0.45593999997E+02  0.45594000000E+02  0.51100000000E-03 0.  1.
    9900012    2    1    2    0    0 -0.18718179340E+02  0.12313657529E+02  0.22687544018E+02  0.59301936381E+02  0.49999986054E+02 0.  0.
        -12    1    1    2    0    0  0.18718179340E+02 -0.12313657529E+02 -0.22687544018E+02  0.31886063619E+02  0.00000000000E+00 0.  1.
         11    1    3    3    0    0  0.74378263315E+01  0.24637399068E+01 -0.68649965538E+01  0.10417267051E+02  0.51100000000E-03 0. -1.
        -11    1    3    3    0    0 -0.21376635432E+01  0.32398971581E+01 -0.49740535029E+01  0.63093381214E+01  0.51100000000E-03 0.  1.
         12    1    3    3    0    0 -0.24018342128E+02  0.66100204640E+01  0.34526594075E+02  0.42575331209E+02  0.00000000000E+00 0. -1.
</event>
<event>
 7    1  0.6841384E-013  0.5930197E+02  0.7816164E-02  0.1266605E+00
        -11   -1    0    0    0    0  0.00000000000E+00  0.00000000000E+00  0.45593999997E+02  0.45594000000E+02  0.51100000000E-03 0. -1.
         11   -1    0    0    0    0 -0.00000000000E+00 -0.00000000000E+00 -0.45593999997E+02  0.45594000000E+02  0.51100000000E-03 0.  1.
    9900012    2    1    2    0    0 -0.11866253833E+02 -0.11892636415E+02  0.27101221053E+02  0.59301969148E+02  0.50000045813E+02 0.  0.
        -12    1    1    2    0    0  0.11866253833E+02  0.11892636415E+02 -0.27101221053E+02  0.31886030852E+02  0.00000000000E+00 0.  1.
         11    1    3    3    0    0  0.16542195527E+01  0.30443272561E+01 -0.28238373881E+01  0.44697235514E+01  0.51100000000E-03 0.  1.
        -11    1    3    3    0    0  0.12672803221E+02  0.10093737147E+01  0.17761688195E+02  0.21842535214E+02  0.51100000000E-03 0. -1.
        -12    1    3    3    0    0 -0.26193276606E+02 -0.15946337386E+02  0.12163370246E+02  0.32989710383E+02  0.00000000000E+00 0.  1.
</event>
<event>
 7    1  0.6841384E-013  0.5930194E+02  0.7816164E-02  0.1266605E+00
        -11   -1    0    0    0    0  0.00000000000E+00  0.00000000000E+00  0.45593999997E+02  0.45594000000E+02  0.51100000000E-03 0. -1.
         11   -1    0    0    0    0 -0.00000000000E+00 -0.00000000000E+00 -0.45593999997E+02  0.45594000000E+02  0.51100000000E-03 0.  1.
    9900012    2    1    2    0    0 -0.67123061092E+01  0.30744824757E+02  0.51402086275E+01  0.59301936471E+02  0.49999986218E+02 0.  0.
        -12    1    1    2    0    0  0.67123061092E+01 -0.30744824757E+02 -0.51402086275E+01  0.31886063529E+02  0.00000000000E+00 0.  1.
         11    1    3    3    0    0 -0.69075723817E+01 -0.20735861053E+01 -0.12211626208E+02  0.14182317528E+02  0.51100000000E-03 0.  1.
        -11    1    3    3    0    0 -0.10047673728E+01  0.45573120169E+01  0.16146501944E+02  0.16807384555E+02  0.51100000000E-03 0. -1.
         12    1    3    3    0    0  0.12000336453E+01  0.28261098845E+02  0.12053328919E+01  0.28312234389E+02  0.00000000000E+00 0. -1.
</event>
<event>
 7    1  0.6841384E-013  0.5930192E+02  0.7816164E-02  0.1266605E+00
        -11   -1    0    0    0    0  0.00000000000E+00  0.00000000000E+00  0.45593999997E+02  0.45594000000E+02  0.51100000000E-03 0.  1.
         11   -1    0    0    0    0 -0.00000000000E+00 -0.00000000000E+00 -0.45593999997E+02  0.45594000000E+02  0.51100000000E-03 0. -1.
    9900012    2    1    2    0    0  0.10126075394E+02 -0.54292447459E+01 -0.29744036243E+02  0.59301924772E+02  0.49999964882E+02 0.  0.
        -12    1    1    2    0    0 -0.10126075394E+02  0.54292447459E+01  0.29744036243E+02  0.31886075228E+02  0.00000000000E+00 0.  1.
         11    1    3    3    0    0 -0.19967411361E-02 -0.18439455643E+01  0.13169462425E+01  0.22659406210E+01  0.51100000000E-03 0. -1.
        -11    1    3    3    0    0 -0.51804995803E+01  0.11961788647E+02  0.57477997353E+01  0.14246373770E+02  0.51100000000E-03 0.  1.
         12    1    3    3    0    0  0.15308571716E+02 -0.15547087829E+02 -0.36808782221E+02  0.42789610381E+02  0.00000000000E+00 0. -1.
</event>
<event>
 7    1  0.6841384E-013  0.5930194E+02  0.7816164E-02  0.1266605E+00
        -11   -1    0    0    0    0  0.00000000000E+00  0.00000000000E+00  0.45593999997E+02  0.45594000000E+02  0.51100000000E-03 0. -1.
         11   -1    0    0    0    0 -0.00000000000E+00 -0.00000000000E+00 -0.45593999997E+02  0.45594000000E+02  0.51100000000E-03 0.  1.
    9900012    2    1    2    0    0  0.24396837967E+02 -0.11994688652E+02 -0.16662607830E+02  0.59301941004E+02  0.49999994485E+02 0.  0.
        -12    1    1    2    0    0 -0.24396837967E+02  0.11994688652E+02  0.16662607830E+02  0.31886058996E+02  0.00000000000E+00 0.  1.
         11    1    3    3    0    0  0.13328832920E+02 -0.16840149262E+02 -0.39767844475E+00  0.21480376221E+02  0.51100000000E-03 0. -1.
        -11    1    3    3    0    0  0.18115319919E+01 -0.13347645303E+02 -0.87856598298E+01  0.16081949577E+02  0.51100000000E-03 0.  1.
        -12    1    3    3    0    0  0.92564730548E+01  0.18193105914E+02 -0.74792695554E+01  0.21739615205E+02  0.00000000000E+00 0.  1.
</event>
<event>
 7    1  0.6841384E-013  0.5930181E+02  0.7816164E-02  0.1266605E+00
        -11   -1    0    0    0    0  0.00000000000E+00  0.00000000000E+00  0.45593999997E+02  0.45594000000E+02  0.51100000000E-03 0.  1.
         11   -1    0    0    0    0 -0.00000000000E+00 -0.00000000000E+00 -0.45593999997E+02  0.45594000000E+02  0.51100000000E-03 0. -1.
    9900012    2    1    2    0    0 -0.10091155416E+02  0.26648324126E+02 -0.14309591957E+02  0.59301811480E+02  0.49999758265E+02 0.  0.
        -12    1    1    2    0    0  0.10091155416E+02 -0.26648324126E+02  0.14309591957E+02  0.31886188520E+02  0.00000000000E+00 0.  1.
         11    1    3    3    0    0  0.75607085579E+00  0.22213299394E+02 -0.24272733859E+02  0.32911516561E+02  0.51100000000E-03 0. -1.
        -11    1    3    3    0    0  0.15146001920E+01  0.10270639124E+02  0.66354344333E+01  0.12321080803E+02  0.51100000000E-03 0.  1.
        -12    1    3    3    0    0 -0.12361826464E+02 -0.58356143927E+01  0.33277074687E+01  0.14069214117E+02  0.00000000000E+00 0.  1.
</event>
<event>
 7    1  0.6841384E-013  0.5930194E+02  0.7816164E-02  0.1266605E+00
        -11   -1    0    0    0    0  0.00000000000E+00  0.00000000000E+00  0.45593999997E+02  0.45594000000E+02  0.51100000000E-03 0.  1.
         11   -1    0    0    0    0 -0.00000000000E+00 -0.00000000000E+00 -0.45593999997E+02  0.45594000000E+02  0.51100000000E-03 0. -1.
    9900012    2    1    2    0    0 -0.25020962076E+02 -0.14027306335E+01 -0.19715588838E+02  0.59301942864E+02  0.49999997878E+02 0.  0.
        -12    1    1    2    0    0  0.25020962076E+02  0.14027306335E+01  0.19715588838E+02  0.31886057136E+02  0.00000000000E+00 0.  1.
         11    1    3    3    0    0  0.14751456179E+01  0.78500049094E+01  0.11488317275E+00  0.79882307225E+01  0.51100000000E-03 0. -1.
        -11    1    3    3    0    0 -0.33612624504E+01  0.13723900405E+02 -0.23696303606E+01  0.14326851569E+02  0.51100000000E-03 0.  1.
         12    1    3    3    0    0 -0.23134845243E+02 -0.22976635948E+02 -0.17460841650E+02  0.36986860573E+02  0.00000000000E+00 0. -1.
</event>
<event>
 7    1  0.6841384E-013  0.5930191E+02  0.7816164E-02  0.1266605E+00
        -11   -1    0    0    0    0  0.00000000000E+00  0.00000000000E+00  0.45593999997E+02  0.45594000000E+02  0.51100000000E-03 0. -1.
         11   -1    0    0    0    0 -0.00000000000E+00 -0.00000000000E+00 -0.45593999997E+02  0.45594000000E+02  0.51100000000E-03 0.  1.
    9900012    2    1    2    0    0  0.86101479827E+01 -0.10317210380E+02  0.28916137256E+02  0.59301914130E+02  0.49999945473E+02 0.  0.
        -12    1    1    2    0    0 -0.86101479827E+01  0.10317210380E+02 -0.28916137256E+02  0.31886085870E+02  0.00000000000E+00 0.  1.
         11    1    3    3    0    0  0.18919420661E+02 -0.89329917046E+01  0.11466257013E+02  0.23858287220E+02  0.51100000000E-03 0. -1.
        -11    1    3    3    0    0  0.81983799144E+01 -0.75403154461E+01  0.44012212264E+01  0.11976666431E+02  0.51100000000E-03 0.  1.
        -12    1    3    3    0    0 -0.18507652593E+02  0.61560967709E+01  0.13048659017E+02  0.23466960478E+02  0.00000000000E+00 0.  1.
</event>
<event>
 7    1  0.6841384E-013  0.5930194E+02  0.7816164E-02  0.1266605E+00
        -11   -1    0    0    0    0  0.00000000000E+00  0.00000000000E+00  0.45593999997E+02  0.45594000000E+02  0.51100000000E-03 0.  1.
         11   -1    0    0    0    0 -0.00000000000E+00 -0.00000000000E+00 -0.45593999997E+02  0.45594000000E+02  0.51100000000E-03 0. -1.
    9900012    2    1    2    0    0  0.16316057982E+02 -0.98277074398E+01 -0.25571924017E+02  0.59301939104E+02  0.49999991019E+02 0.  0.
        -12    1    1    2    0    0 -0.16316057982E+02  0.98277074398E+01  0.25571924017E+02  0.31886060896E+02  0.00000000000E+00 0.  1.
         11    1    3    3    0    0  0.14757311245E+02  0.78764460124E+01 -0.27432227231E+02  0.32130106256E+02  0.51100000000E-03 0. -1.
        -11    1    3    3    0    0  0.62588646341E+01  0.10961092570E+01  0.42525564635E+01  0.76458536965E+01  0.51100000000E-03 0.  1.
        -12    1    3    3    0    0 -0.47001178969E+01 -0.18800262709E+02 -0.23922532494E+01  0.19525979151E+02  0.00000000000E+00 0.  1.
</event>
<event>
 7    1  0.6841384E-013  0.5930212E+02  0.7816164E-02  0.1266604E+00
        -11   -1    0    0    0    0  0.00000000000E+00  0.00000000000E+00  0.45593999997E+02  0.45594000000E+02  0.51100000000E-03 0.  1.
         11   -1    0    0    0    0 -0.00000000000E+00 -0.00000000000E+00 -0.45593999997E+02  0.45594000000E+02  0.51100000000E-03 0. -1.
    9900012    2    1    2    0    0 -0.78463248424E+00  0.31592220064E+02 -0.42455996970E+01  0.59302123291E+02  0.50000326932E+02 0.  0.
        -12    1    1    2    0    0  0.78463248424E+00 -0.31592220064E+02  0.42455996970E+01  0.31885876709E+02  0.00000000000E+00 0.  1.
         11    1    3    3    0    0  0.58984143535E+01  0.15657726774E+01 -0.18256699173E+02  0.19249675345E+02  0.51100000000E-03 0.  1.
        -11    1    3    3    0    0 -0.39720002473E+01  0.21018870753E+02 -0.19982888908E+01  0.21484014347E+02  0.51100000000E-03 0. -1.
        -12    1    3    3    0    0 -0.27110465905E+01  0.90075766338E+01  0.16009388366E+02  0.18568433598E+02  0.00000000000E+00 0.  1.
</event>
<event>
 7    1  0.6841384E-013  0.5930213E+02  0.7816164E-02  0.1266604E+00
        -11   -1    0    0    0    0  0.00000000000E+00  0.00000000000E+00  0.45593999997E+02  0.45594000000E+02  0.51100000000E-03 0.  1.
         11   -1    0    0    0    0 -0.00000000000E+00 -0.00000000000E+00 -0.45593999997E+02  0.45594000000E+02  0.51100000000E-03 0. -1.
    9900012    2    1    2    0    0  0.31010654362E+02 -0.20883099766E+01 -0.71194707343E+01  0.59302131876E+02  0.50000342589E+02 0.  0.
        -12    1    1    2    0    0 -0.31010654362E+02  0.20883099766E+01  0.71194707343E+01  0.31885868124E+02  0.00000000000E+00 0.  1.
         11    1    3    3    0    0  0.19868116852E+02 -0.41744471795E+01 -0.21221949510E+02  0.29369017992E+02  0.51100000000E-03 0.  1.
        -11    1    3    3    0    0  0.16656506193E+02 -0.13168721206E+01  0.28519995473E+01  0.16950140189E+02  0.51100000000E-03 0. -1.
        -12    1    3    3    0    0 -0.55139686841E+01  0.34030093235E+01  0.11250479229E+02  0.12982973695E+02  0.00000000000E+00 0.  1.
</event>
<event>
 7    1  0.6841384E-013  0.5930192E+02  0.7816164E-02  0.1266605E+00
        -11   -1    0    0    0    0  0.00000000000E+00  0.00000000000E+00  0.45593999997E+02  0.45594000000E+02  0.51100000000E-03 0.  1.
         11   -1    0    0    0    0 -0.00000000000E+00 -0.00000000000E+00 -0.45593999997E+02  0.45594000000E+02  0.51100000000E-03 0. -1.
    9900012    2    1    2    0    0 -0.14197820570E+02 -0.27246560505E+02  0.85304727369E+01  0.59301919441E+02  0.49999955160E+02 0.  0.
        -12    1    1    2    0    0  0.14197820570E+02  0.27246560505E+02 -0.85304727369E+01  0.31886080559E+02  0.00000000000E+00 0.  1.
         11    1    3    3    0    0 -0.36404072808E+00 -0.75648136559E+01 -0.33376552221E+01  0.82764046508E+01  0.51100000000E-03 0. -1.
        -11    1    3    3    0    0  0.13461878781E+02 -0.37775894405E+00  0.11313982755E+02  0.17588947898E+02  0.51100000000E-03 0.  1.
         12    1    3    3    0    0 -0.27295658622E+02 -0.19303987905E+02  0.55414520414E+00  0.33436566892E+02  0.00000000000E+00 0. -1.
</event>
<event>
 7    1  0.6841384E-013  0.5930196E+02  0.7816164E-02  0.1266605E+00
        -11   -1    0    0    0    0  0.00000000000E+00  0.00000000000E+00  0.45593999997E+02  0.45594000000E+02  0.51100000000E-03 0. -1.
         11   -1    0    0    0    0 -0.00000000000E+00 -0.00000000000E+00 -0.45593999997E+02  0.45594000000E+02  0.51100000000E-03 0.  1.
    9900012    2    1    2    0    0  0.28838641694E+02  0.10998425422E+02 -0.80054214643E+01  0.59301962470E+02  0.50000033634E+02 0.  0.
        -12    1    1    2    0    0 -0.28838641694E+02 -0.10998425422E+02  0.80054214643E+01  0.31886037530E+02  0.00000000000E+00 0.  1.
         11    1    3    3    0    0  0.13630153589E+02 -0.15620329729E+02  0.88236814074E+01  0.22530715514E+02  0.51100000000E-03 0. -1.
        -11    1    3    3    0    0 -0.13689506950E+01  0.24878623042E+01  0.29431048558E+00  0.28548386598E+01  0.51100000000E-03 0.  1.
        -12    1    3    3    0    0  0.16577438800E+02  0.24130892847E+02 -0.17123413357E+02  0.33916408297E+02  0.00000000000E+00 0.  1.
</event>
<event>
 7    1  0.6841384E-013  0.5930204E+02  0.7816164E-02  0.1266604E+00
        -11   -1    0    0    0    0  0.00000000000E+00  0.00000000000E+00  0.45593999997E+02  0.45594000000E+02  0.51100000000E-03 0.  1.
         11   -1    0    0    0    0 -0.00000000000E+00 -0.00000000000E+00 -0.45593999997E+02  0.45594000000E+02  0.51100000000E-03 0. -1.
    9900012    2    1    2    0    0 -0.23907889746E+02 -0.36550317552E+01 -0.20779031172E+02  0.59302037796E+02  0.50000171010E+02 0.  0.
        -12    1    1    2    0    0  0.23907889746E+02  0.36550317552E+01  0.20779031172E+02  0.31885962204E+02  0.00000000000E+00 0.  1.
         11    1    3    3    0    0  0.62878868354E-01 -0.10407456674E+02 -0.20292594120E+02  0.22805887059E+02  0.51100000000E-03 0. -1.
        -11    1    3    3    0    0 -0.37700712537E+01  0.81407556239E+01 -0.10579888628E+02  0.13871531387E+02  0.51100000000E-03 0.  1.
        -12    1    3    3    0    0 -0.20200697361E+02 -0.13883307055E+01  0.10093451576E+02  0.22624619350E+02  0.00000000000E+00 0.  1.
</event>
<event>
 7    1  0.6841384E-013  0.5930194E+02  0.7816164E-02  0.1266605E+00
        -11   -1    0    0    0    0  0.00000000000E+00  0.00000000000E+00  0.45593999997E+02  0.45594000000E+02  0.51100000000E-03 0. -1.
         11   -1    0    0    0    0 -0.00000000000E+00 -0.00000000000E+00 -0.45593999997E+02  0.45594000000E+02  0.51100000000E-03 0.  1.
    9900012    2    1    2    0    0 -0.23684942268E+02  0.11862789899E+02  0.17748757116E+02  0.59301942646E+02  0.49999997479E+02 0.  0.
        -12    1    1    2    0    0  0.23684942268E+02 -0.11862789899E+02 -0.17748757116E+02  0.31886057354E+02  0.00000000000E+00 0.  1.
         11    1    3    3    0    0 -0.12147340300E+02 -0.52136331986E+01  0.11558178807E+02  0.17559366307E+02  0.51100000000E-03 0. -1.
        -11    1    3    3    0    0 -0.18574034769E+02 -0.38606466646E+01  0.50189646551E+01  0.19623694013E+02  0.51100000000E-03 0.  1.
        -12    1    3    3    0    0  0.70364328002E+01  0.20937069762E+02  0.11716136536E+01  0.22118882325E+02  0.00000000000E+00 0.  1.
</event>
<event>
 7    1  0.6841384E-013  0.5930193E+02  0.7816164E-02  0.1266605E+00
        -11   -1    0    0    0    0  0.00000000000E+00  0.00000000000E+00  0.45593999997E+02  0.45594000000E+02  0.51100000000E-03 0.  1.
         11   -1    0    0    0    0 -0.00000000000E+00 -0.00000000000E+00 -0.45593999997E+02  0.45594000000E+02  0.51100000000E-03 0. -1.
    9900012    2    1    2    0    0  0.50202794123E+01  0.31262742053E+02 -0.37628969868E+01  0.59301927182E+02  0.49999969277E+02 0.  0.
        -12    1    1    2    0    0 -0.50202794123E+01 -0.31262742053E+02  0.37628969868E+01  0.31886072818E+02  0.00000000000E+00 0.  1.
         11    1    3    3    0    0 -0.16052465184E+02  0.65060722106E+01  0.40910701412E+01  0.17797400632E+02  0.51100000000E-03 0.  1.
        -11    1    3    3    0    0 -0.31762185862E+01  0.13272557518E+02 -0.49484890359E+01  0.14516772767E+02  0.51100000000E-03 0. -1.
        -12    1    3    3    0    0  0.24248963182E+02  0.11484112324E+02 -0.29054780922E+01  0.26987753783E+02  0.00000000000E+00 0.  1.
</event>
<event>
 7    1  0.6841384E-013  0.5930202E+02  0.7816164E-02  0.1266605E+00
        -11   -1    0    0    0    0  0.00000000000E+00  0.00000000000E+00  0.45593999997E+02  0.45594000000E+02  0.51100000000E-03 0.  1.
         11   -1    0    0    0    0 -0.00000000000E+00 -0.00000000000E+00 -0.45593999997E+02  0.45594000000E+02  0.51100000000E-03 0. -1.
    9900012    2    1    2    0    0  0.22563211483E+02 -0.19611781976E+02  0.11090331170E+02  0.59302016399E+02  0.50000131988E+02 0.  0.
        -12    1    1    2    0    0 -0.22563211483E+02  0.19611781976E+02 -0.11090331170E+02  0.31885983601E+02  0.00000000000E+00 0.  1.
         11    1    3    3    0    0  0.11654496690E+02  0.25492868015E+01  0.25401240707E+01  0.12197474609E+02  0.51100000000E-03 0. -1.
        -11    1    3    3    0    0  0.76062657516E+01  0.10061648455E+02 -0.25413887139E+01  0.12866650891E+02  0.51100000000E-03 0.  1.
        -12    1    3    3    0    0  0.33024490418E+01 -0.32222717232E+02  0.11091595813E+02  0.34237890899E+02  0.00000000000E+00 0.  1.
</event>
<event>
 7    1  0.6841384E-013  0.5930195E+02  0.7816164E-02  0.1266605E+00
        -11   -1    0    0    0    0  0.00000000000E+00  0.00000000000E+00  0.45593999997E+02  0.45594000000E+02  0.51100000000E-03 0. -1.
         11   -1    0    0    0    0 -0.00000000000E+00 -0.00000000000E+00 -0.45593999997E+02  0.45594000000E+02  0.51100000000E-03 0.  1.
    9900012    2    1    2    0    0 -0.18245034923E+02  0.42474045566E+01  0.25803075382E+02  0.59301945932E+02  0.50000003473E+02 0.  0.
        -12    1    1    2    0    0  0.18245034923E+02 -0.42474045566E+01 -0.25803075382E+02  0.31886054068E+02  0.00000000000E+00 0.  1.
         11    1    3    3    0    0 -0.14250396986E+01  0.43633229332E+00 -0.77165680709E+01  0.78591696168E+01  0.51100000000E-03 0.  1.
        -11    1    3    3    0    0 -0.99316785263E+01 -0.14200959125E+02  0.24858927369E+02  0.30302999004E+02  0.51100000000E-03 0. -1.
         12    1    3    3    0    0 -0.68883166985E+01  0.18012031389E+02  0.86607160846E+01  0.21139777312E+02  0.00000000000E+00 0. -1.
</event>
<event>
 7    1  0.6841384E-013  0.5930191E+02  0.7816164E-02  0.1266605E+00
        -11   -1    0    0    0    0  0.00000000000E+00  0.00000000000E+00  0.45593999997E+02  0.45594000000E+02  0.51100000000E-03 0.  1.
         11   -1    0    0    0    0 -0.00000000000E+00 -0.00000000000E+00 -0.45593999997E+02  0.45594000000E+02  0.51100000000E-03 0. -1.
    9900012    2    1    2    0    0  0.21650430337E+02  0.11420720262E+02 -0.20434016185E+02  0.59301905813E+02  0.49999930305E+02 0.  0.
        -12    1    1    2    0    0 -0.21650430337E+02 -0.11420720262E+02  0.20434016185E+02  0.31886094187E+02  0.00000000000E+00 0.  1.
         11    1    3    3    0    0 -0.53834487999E+01 -0.33632848877E+01  0.24726271823E+01  0.68122750723E+01  0.51100000000E-03 0. -1.
        -11    1    3    3    0    0 -0.36616280217E+01 -0.81282936820E+01 -0.47229921213E+01  0.10088772611E+02  0.51100000000E-03 0.  1.
        -12    1    3    3    0    0  0.30695507159E+02  0.22912298831E+02 -0.18183651246E+02  0.42400858130E+02  0.00000000000E+00 0.  1.
</event>
<event>
 7    1  0.6841384E-013  0.5930196E+02  0.7816164E-02  0.1266605E+00
        -11   -1    0    0    0    0  0.00000000000E+00  0.00000000000E+00  0.45593999997E+02  0.45594000000E+02  0.51100000000E-03 0.  1.
         11   -1    0    0    0    0 -0.00000000000E+00 -0.00000000000E+00 -0.45593999997E+02  0.45594000000E+02  0.51100000000E-03 0. -1.
    9900012    2    1    2    0    0 -0.23943573625E+02  0.11359330253E+02 -0.17731064461E+02  0.59301956836E+02  0.50000023359E+02 0.  0.
        -12    1    1    2    0    0  0.23943573625E+02 -0.11359330253E+02  0.17731064461E+02  0.31886043164E+02  0.00000000000E+00 0.  1.
         11    1    3    3    0    0 -0.69125645519E+01  0.20063809082E+02 -0.30157831480E+01  0.21434433322E+02  0.51100000000E-03 0. -1.
        -11    1    3    3    0    0 -0.19299870660E+02  0.57781156387E+01 -0.98231454870E+01  0.22413518585E+02  0.51100000000E-03 0.  1.
        -12    1    3    3    0    0  0.22688615868E+01 -0.14482594468E+02 -0.48921358262E+01  0.15454004930E+02  0.00000000000E+00 0.  1.
</event>
<event>
 7    1  0.6841384E-013  0.5930197E+02  0.7816164E-02  0.1266605E+00
        -11   -1    0    0    0    0  0.00000000000E+00  0.00000000000E+00  0.45593999997E+02  0.45594000000E+02  0.51100000000E-03 0.  1.
         11   -1    0    0    0    0 -0.00000000000E+00 -0.00000000000E+00 -0.45593999997E+02  0.45594000000E+02  0.51100000000E-03 0. -1.
    9900012    2    1    2    0    0 -0.58764575966E+01 -0.17792241557E+02  0.25799660147E+02  0.59301967365E+02  0.50000042562E+02 0.  0.
        -12    1    1    2    0    0  0.58764575966E+01  0.17792241557E+02 -0.25799660147E+02  0.31886032635E+02  0.00000000000E+00 0.  1.
         11    1    3    3    0    0  0.78624227518E+01 -0.78595300574E+01 -0.58942242096E+01  0.12582995810E+02  0.51100000000E-03 0. -1.
        -11    1    3    3    0    0 -0.79929537126E+01 -0.17357844624E+02  0.70865904714E+01  0.20381409269E+02  0.51100000000E-03 0.  1.
        -12    1    3    3    0    0 -0.57459266358E+01  0.74251331246E+01  0.24607293885E+02  0.26337562286E+02  0.00000000000E+00 0.  1.
</event>
<event>
 7    1  0.7416628E-013  0.5930195E+02  0.7816164E-02  0.1266605E+00
        -11   -1    0    0    0    0  0.00000000000E+00  0.00000000000E+00  0.45593999997E+02  0.45594000000E+02  0.51100000000E-03 0. -1.
         11   -1    0    0    0    0 -0.00000000000E+00 -0.00000000000E+00 -0.45593999997E+02  0.45594000000E+02  0.51100000000E-03 0.  1.
    9900012    2    1    2    0    0 -0.10296539411E+02  0.12566568430E+02  0.27436888916E+02  0.59301949142E+02  0.50000009327E+02 0.  0.
        -12    1    1    2    0    0  0.10296539411E+02 -0.12566568430E+02 -0.27436888916E+02  0.31886050858E+02  0.00000000000E+00 0.  1.
         11    1    3    3    0    0 -0.11091951466E+02  0.10327240212E+02  0.25214124135E+02  0.29418282307E+02  0.51100000000E-03 0. -1.
        -11    1    3    3    0    0 -0.87336899286E+01 -0.98937595318E+01  0.51758981657E+01  0.14175815304E+02  0.51100000000E-03 0.  1.
        -12    1    3    3    0    0  0.95291019830E+01  0.12133087749E+02 -0.29531333851E+01  0.15707851531E+02  0.00000000000E+00 0.  1.
</event>
<event>
 7    1  0.6841384E-013  0.5930196E+02  0.7816164E-02  0.1266605E+00
        -11   -1    0    0    0    0  0.00000000000E+00  0.00000000000E+00  0.45593999997E+02  0.45594000000E+02  0.51100000000E-03 0.  1.
         11   -1    0    0    0    0 -0.00000000000E+00 -0.00000000000E+00 -0.45593999997E+02  0.45594000000E+02  0.51100000000E-03 0. -1.
    9900012    2    1    2    0    0 -0.31553995543E+02 -0.25553279561E+01 -0.38124886592E+01  0.59301962217E+02  0.50000033173E+02 0.  0.
        -12    1    1    2    0    0  0.31553995543E+02  0.25553279561E+01  0.38124886592E+01  0.31886037783E+02  0.00000000000E+00 0.  1.
         11    1    3    3    0    0 -0.11917044092E+02 -0.28949566079E+01 -0.12024798343E+02  0.17175345385E+02  0.51100000000E-03 0. -1.
        -11    1    3    3    0    0 -0.25051023021E+02  0.67301580891E+01 -0.50640994977E+01  0.26429034910E+02  0.51100000000E-03 0.  1.
         12    1    3    3    0    0  0.54140715699E+01 -0.63905294373E+01  0.13276409181E+02  0.15697581922E+02  0.00000000000E+00 0. -1.
</event>
<event>
 7    1  0.6841384E-013  0.5930195E+02  0.7816164E-02  0.1266605E+00
        -11   -1    0    0    0    0  0.00000000000E+00  0.00000000000E+00  0.45593999997E+02  0.45594000000E+02  0.51100000000E-03 0. -1.
         11   -1    0    0    0    0 -0.00000000000E+00 -0.00000000000E+00 -0.45593999997E+02  0.45594000000E+02  0.51100000000E-03 0.  1.
    9900012    2    1    2    0    0 -0.13480161923E+02  0.28113314706E+02  0.66818513184E+01  0.59301947151E+02  0.50000005697E+02 0.  0.
        -12    1    1    2    0    0  0.13480161923E+02 -0.28113314706E+02 -0.66818513184E+01  0.31886052849E+02  0.00000000000E+00 0.  1.
         11    1    3    3    0    0  0.59466700863E+00  0.17828023028E+02 -0.65226965668E+01  0.18993093606E+02  0.51100000000E-03 0. -1.
        -11    1    3    3    0    0 -0.51683047335E+01  0.48196271446E+01 -0.11492839203E+02  0.13491683840E+02  0.51100000000E-03 0.  1.
         12    1    3    3    0    0 -0.89065241986E+01  0.54656645326E+01  0.24697387088E+02  0.26817169706E+02  0.00000000000E+00 0. -1.
</event>
<event>
 7    1  0.6841384E-013  0.5930194E+02  0.7816164E-02  0.1266605E+00
        -11   -1    0    0    0    0  0.00000000000E+00  0.00000000000E+00  0.45593999997E+02  0.45594000000E+02  0.51100000000E-03 0.  1.
         11   -1    0    0    0    0 -0.00000000000E+00 -0.00000000000E+00 -0.45593999997E+02  0.45594000000E+02  0.51100000000E-03 0. -1.
    9900012    2    1    2    0    0  0.23834219383E+02 -0.24445837161E+01 -0.21039842598E+02  0.59301937532E+02  0.49999988153E+02 0.  0.
        -12    1    1    2    0    0 -0.23834219383E+02  0.24445837161E+01  0.21039842598E+02  0.31886062468E+02  0.00000000000E+00 0.  1.
         11    1    3    3    0    0  0.36712952270E+01  0.37282983150E+01  0.65179188748E+01  0.83583421615E+01  0.51100000000E-03 0. -1.
        -11    1    3    3    0    0  0.28009694671E+02  0.53795139903E+01 -0.21517829196E+02  0.35728128133E+02  0.51100000000E-03 0.  1.
         12    1    3    3    0    0 -0.78467705146E+01 -0.11552396021E+02 -0.60399322777E+01  0.15215467238E+02  0.00000000000E+00 0. -1.
</event>
<event>
 7    1  0.6841384E-013  0.5930188E+02  0.7816164E-02  0.1266605E+00
        -11   -1    0    0    0    0  0.00000000000E+00  0.00000000000E+00  0.45593999997E+02  0.45594000000E+02  0.51100000000E-03 0. -1.
         11   -1    0    0    0    0 -0.00000000000E+00 -0.00000000000E+00 -0.45593999997E+02  0.45594000000E+02  0.51100000000E-03 0.  1.
    9900012    2    1    2    0    0  0.23271165178E+02 -0.17157857840E+02  0.13445649614E+02  0.59301879071E+02  0.49999881534E+02 0.  0.
        -12    1    1    2    0    0 -0.23271165178E+02  0.17157857840E+02 -0.13445649614E+02  0.31886120929E+02  0.00000000000E+00 0.  1.
         11    1    3    3    0    0 -0.51604607827E+01  0.10344868133E+02  0.15314894746E+01  0.11661565609E+02  0.51100000000E-03 0.  1.
        -11    1    3    3    0    0 -0.30663640589E+01 -0.27487158202E+01  0.58032898787E+01  0.71159118094E+01  0.51100000000E-03 0. -1.
         12    1    3    3    0    0  0.31497990019E+02 -0.24754010153E+02  0.61108702609E+01  0.40524401652E+02  0.00000000000E+00 0. -1.
</event>
<event>
 7    1  0.6841384E-013  0.5930194E+02  0.7816164E-02  0.1266605E+00
        -11   -1    0    0    0    0  0.00000000000E+00  0.00000000000E+00  0.45593999997E+02  0.45594000000E+02  0.51100000000E-03 0. -1.
         11   -1    0    0    0    0 -0.00000000000E+00 -0.00000000000E+00 -0.45593999997E+02  0.45594000000E+02  0.51100000000E-03 0.  1.
    9900012    2    1    2    0    0  0.22142364483E+02 -0.13786382644E+02 -0.18340445722E+02  0.59301943477E+02  0.49999998996E+02 0.  0.
        -12    1    1    2    0    0 -0.22142364483E+02  0.13786382644E+02  0.18340445722E+02  0.31886056523E+02  0.00000000000E+00 0.  1.
         11    1    3    3    0    0  0.44056138619E+01 -0.19092769979E+02  0.10697150556E+02  0.22324254282E+02  0.51100000000E-03 0. -1.
        -11    1    3    3    0    0  0.30983033297E+00 -0.30448761696E+01 -0.17044800749E+01  0.35032154245E+01  0.51100000000E-03 0.  1.
        -12    1    3    3    0    0  0.17426920288E+02  0.83512635047E+01 -0.27333116203E+02  0.33474473771E+02  0.00000000000E+00 0.  1.
</event>
<event>
 7    1  0.6841384E-013  0.5930194E+02  0.7816164E-02  0.1266605E+00
        -11   -1    0    0    0    0  0.00000000000E+00  0.00000000000E+00  0.45593999997E+02  0.45594000000E+02  0.51100000000E-03 0. -1.
         11   -1    0    0    0    0 -0.00000000000E+00 -0.00000000000E+00 -0.45593999997E+02  0.45594000000E+02  0.51100000000E-03 0.  1.
    9900012    2    1    2    0    0 -0.19170509449E+02 -0.16393047095E+02 -0.19505901525E+02  0.59301943174E+02  0.49999998444E+02 0.  0.
        -12    1    1    2    0    0  0.19170509449E+02  0.16393047095E+02  0.19505901525E+02  0.31886056826E+02  0.00000000000E+00 0.  1.
         11    1    3    3    0    0  0.33497479389E+01 -0.12549540985E+02 -0.16505648710E+01  0.13093363007E+02  0.51100000000E-03 0. -1.
        -11    1    3    3    0    0  0.12925847432E+00 -0.21582776179E+01 -0.22851388890E+02  0.22953449512E+02  0.51100000000E-03 0.  1.
         12    1    3    3    0    0 -0.22649515862E+02 -0.16852284925E+01  0.49960522362E+01  0.23255130655E+02  0.00000000000E+00 0. -1.
</event>
<event>
 7    1  0.6841384E-013  0.5930196E+02  0.7816164E-02  0.1266605E+00
        -11   -1    0    0    0    0  0.00000000000E+00  0.00000000000E+00  0.45593999997E+02  0.45594000000E+02  0.51100000000E-03 0.  1.
         11   -1    0    0    0    0 -0.00000000000E+00 -0.00000000000E+00 -0.45593999997E+02  0.45594000000E+02  0.51100000000E-03 0. -1.
    9900012    2    1    2    0    0 -0.22975796925E+02 -0.21776300643E+02 -0.38243013323E+01  0.59301956114E+02  0.50000022043E+02 0.  0.
        -12    1    1    2    0    0  0.22975796925E+02  0.21776300643E+02  0.38243013323E+01  0.31886043886E+02  0.00000000000E+00 0.  1.
         11    1    3    3    0    0 -0.27930334666E+02 -0.29751453628E+02  0.15407575194E+01  0.40836583128E+02  0.51100000000E-03 0. -1.
        -11    1    3    3    0    0 -0.39702004101E+01  0.30752532294E+01  0.24906881160E+01  0.56056401306E+01  0.51100000000E-03 0.  1.
         12    1    3    3    0    0  0.89247381520E+01  0.48998997561E+01 -0.78557469678E+01  0.12859732856E+02  0.00000000000E+00 0. -1.
</event>
<event>
 7    1  0.6841384E-013  0.5930194E+02  0.7816164E-02  0.1266605E+00
        -11   -1    0    0    0    0  0.00000000000E+00  0.00000000000E+00  0.45593999997E+02  0.45594000000E+02  0.51100000000E-03 0. -1.
         11   -1    0    0    0    0 -0.00000000000E+00 -0.00000000000E+00 -0.45593999997E+02  0.45594000000E+02  0.51100000000E-03 0.  1.
    9900012    2    1    2    0    0  0.29658405230E+02 -0.95464220624E+01  0.67798065418E+01  0.59301937971E+02  0.49999988954E+02 0.  0.
        -12    1    1    2    0    0 -0.29658405230E+02  0.95464220624E+01 -0.67798065418E+01  0.31886062029E+02  0.00000000000E+00 0.  1.
         11    1    3    3    0    0  0.25016627545E+02 -0.65863092601E+01  0.15697130240E+02  0.30259065111E+02  0.51100000000E-03 0. -1.
        -11    1    3    3    0    0  0.79636135054E+01 -0.67471937294E+01  0.68538214283E+01  0.12486738234E+02  0.51100000000E-03 0.  1.
        -12    1    3    3    0    0 -0.33218358208E+01  0.37870809270E+01 -0.15771145126E+02  0.16556134626E+02  0.00000000000E+00 0.  1.
</event>
<event>
 7    1  0.6841384E-013  0.5930211E+02  0.7816164E-02  0.1266604E+00
        -11   -1    0    0    0    0  0.00000000000E+00  0.00000000000E+00  0.45593999997E+02  0.45594000000E+02  0.51100000000E-03 0.  1.
         11   -1    0    0    0    0 -0.00000000000E+00 -0.00000000000E+00 -0.45593999997E+02  0.45594000000E+02  0.51100000000E-03 0. -1.
    9900012    2    1    2    0    0  0.19047774083E+02 -0.39590537445E+01 -0.25262977313E+02  0.59302112420E+02  0.50000307105E+02 0.  0.
        -12    1    1    2    0    0 -0.19047774083E+02  0.39590537445E+01  0.25262977313E+02  0.31885887580E+02  0.00000000000E+00 0.  1.
         11    1    3    3    0    0  0.15523909323E+01 -0.12267573783E+02 -0.19769072186E+02  0.23317793624E+02  0.51100000000E-03 0. -1.
        -11    1    3    3    0    0  0.23197107293E+01  0.52316778352E+01  0.11590815515E+02  0.12926659097E+02  0.51100000000E-03 0.  1.
         12    1    3    3    0    0  0.15175672421E+02  0.30768422036E+01 -0.17084720642E+02  0.23057659699E+02  0.00000000000E+00 0. -1.
</event>
<event>
 7    1  0.6841384E-013  0.5930194E+02  0.7816164E-02  0.1266605E+00
        -11   -1    0    0    0    0  0.00000000000E+00  0.00000000000E+00  0.45593999997E+02  0.45594000000E+02  0.51100000000E-03 0.  1.
         11   -1    0    0    0    0 -0.00000000000E+00 -0.00000000000E+00 -0.45593999997E+02  0.45594000000E+02  0.51100000000E-03 0. -1.
    9900012    2    1    2    0    0 -0.14566548107E+02  0.98931997061E+01 -0.26583095233E+02  0.59301942289E+02  0.49999996829E+02 0.  0.
        -12    1    1    2    0    0  0.14566548107E+02 -0.98931997061E+01  0.26583095233E+02  0.31886057711E+02  0.00000000000E+00 0.  1.
         11    1    3    3    0    0  0.11325659829E+02 -0.69268405082E+01 -0.14637710365E+00  0.13276788637E+02  0.51100000000E-03 0.  1.
        -11    1    3    3    0    0  0.15038896421E+00 -0.41376771358E+01 -0.40596303357E+01  0.57985849692E+01  0.51100000000E-03 0. -1.
        -12    1    3    3    0    0 -0.26042596900E+02  0.20957717350E+02 -0.22377087794E+02  0.40226568683E+02  0.00000000000E+00 0.  1.
</event>
<event>
 7    1  0.6841384E-013  0.5930192E+02  0.7816164E-02  0.1266605E+00
        -11   -1    0    0    0    0  0.00000000000E+00  0.00000000000E+00  0.45593999997E+02  0.45594000000E+02  0.51100000000E-03 0. -1.
         11   -1    0    0    0    0 -0.00000000000E+00 -0.00000000000E+00 -0.45593999997E+02  0.45594000000E+02  0.51100000000E-03 0.  1.
    9900012    2    1    2    0    0 -0.10730594164E+01  0.87425161746E+01  0.30645370736E+02  0.59301924777E+02  0.49999964891E+02 0.  0.
        -12    1    1    2    0    0  0.10730594164E+01 -0.87425161746E+01 -0.30645370736E+02  0.31886075223E+02  0.00000000000E+00 0.  1.
         11    1    3    3    0    0  0.12698520087E+01  0.38887177240E+01 -0.68030879445E+01  0.79383030619E+01  0.51100000000E-03 0. -1.
        -11    1    3    3    0    0  0.33005949764E+01 -0.24418865147E+01 -0.58202930526E+01  0.71226784589E+01  0.51100000000E-03 0.  1.
         12    1    3    3    0    0 -0.56435064016E+01  0.72956849653E+01  0.43268751733E+02  0.44240943256E+02  0.00000000000E+00 0. -1.
</event>
<event>
 7    1  0.6841384E-013  0.5930199E+02  0.7816164E-02  0.1266605E+00
        -11   -1    0    0    0    0  0.00000000000E+00  0.00000000000E+00  0.45593999997E+02  0.45594000000E+02  0.51100000000E-03 0.  1.
         11   -1    0    0    0    0 -0.00000000000E+00 -0.00000000000E+00 -0.45593999997E+02  0.45594000000E+02  0.51100000000E-03 0. -1.
    9900012    2    1    2    0    0  0.26151629718E+01 -0.31694095749E+02  0.23157826409E+01  0.59301990028E+02  0.50000083893E+02 0.  0.
        -12    1    1    2    0    0 -0.26151629718E+01  0.31694095749E+02 -0.23157826409E+01  0.31886009972E+02  0.00000000000E+00 0.  1.
         11    1    3    3    0    0  0.99496505275E+01  0.10355587639E+02  0.34945497928E+00  0.14365091716E+02  0.51100000000E-03 0. -1.
        -11    1    3    3    0    0  0.41398870361E+01 -0.13077787436E+02  0.64972236021E-01  0.13717558476E+02  0.51100000000E-03 0.  1.
        -12    1    3    3    0    0 -0.11474374592E+02 -0.28971895952E+02  0.19013554256E+01  0.31219339836E+02  0.00000000000E+00 0.  1.
</event>
<event>
 7    1  0.6841384E-013  0.5930192E+02  0.7816164E-02  0.1266605E+00
        -11   -1    0    0    0    0  0.00000000000E+00  0.00000000000E+00  0.45593999997E+02  0.45594000000E+02  0.51100000000E-03 0.  1.
         11   -1    0    0    0    0 -0.00000000000E+00 -0.00000000000E+00 -0.45593999997E+02  0.45594000000E+02  0.51100000000E-03 0. -1.
    9900012    2    1    2    0    0  0.15775332990E+02  0.58840283568E+01 -0.27078389603E+02  0.59301919900E+02  0.49999955998E+02 0.  0.
        -12    1    1    2    0    0 -0.15775332990E+02 -0.58840283568E+01  0.27078389603E+02  0.31886080100E+02  0.00000000000E+00 0.  1.
         11    1    3    3    0    0  0.74458109452E+01  0.15244194995E+02 -0.16998904065E+01  0.17050372704E+02  0.51100000000E-03 0. -1.
        -11    1    3    3    0    0 -0.73709482763E+01  0.74106829687E+01 -0.51976743507E+01  0.11673256592E+02  0.51100000000E-03 0.  1.
         12    1    3    3    0    0  0.15700470321E+02 -0.16770849607E+02 -0.20180824845E+02  0.30578290604E+02  0.00000000000E+00 0. -1.
</event>
<event>
 7    1  0.6841384E-013  0.5930192E+02  0.7816164E-02  0.1266605E+00
        -11   -1    0    0    0    0  0.00000000000E+00  0.00000000000E+00  0.45593999997E+02  0.45594000000E+02  0.51100000000E-03 0.  1.
         11   -1    0    0    0    0 -0.00000000000E+00 -0.00000000000E+00 -0.45593999997E+02  0.45594000000E+02  0.51100000000E-03 0. -1.
    9900012    2    1    2    0    0  0.15472279765E+02  0.27485854507E+02 -0.46752905334E+01  0.59301921836E+02  0.49999959527E+02 0.  0.
        -12    1    1    2    0    0 -0.15472279765E+02 -0.27485854507E+02  0.46752905334E+01  0.31886078164E+02  0.00000000000E+00 0.  1.
         11    1    3    3    0    0  0.19444955171E+01  0.10478486274E+02 -0.65492466526E+01  0.12508891613E+02  0.51100000000E-03 0. -1.
        -11    1    3    3    0    0  0.18103741363E+02  0.24810482651E+02  0.12215607226E+02  0.33053389552E+02  0.51100000000E-03 0.  1.
        -12    1    3    3    0    0 -0.45759571150E+01 -0.78031144183E+01 -0.10341651106E+02  0.13739640670E+02  0.00000000000E+00 0.  1.
</event>
<event>
 7    1  0.6841384E-013  0.5930194E+02  0.7816164E-02  0.1266605E+00
        -11   -1    0    0    0    0  0.00000000000E+00  0.00000000000E+00  0.45593999997E+02  0.45594000000E+02  0.51100000000E-03 0.  1.
         11   -1    0    0    0    0 -0.00000000000E+00 -0.00000000000E+00 -0.45593999997E+02  0.45594000000E+02  0.51100000000E-03 0. -1.
    9900012    2    1    2    0    0  0.14975102283E+02  0.90740209681E+01 -0.26648252275E+02  0.59301938873E+02  0.49999990598E+02 0.  0.
        -12    1    1    2    0    0 -0.14975102283E+02 -0.90740209681E+01  0.26648252275E+02  0.31886061127E+02  0.00000000000E+00 0.  1.
         11    1    3    3    0    0  0.40736864389E+01 -0.46123074402E+01 -0.43930100128E+01  0.75608755021E+01  0.51100000000E-03 0. -1.
        -11    1    3    3    0    0  0.17609268972E+02 -0.98842283536E+01 -0.26689684217E+01  0.20369283653E+02  0.51100000000E-03 0.  1.
         12    1    3    3    0    0 -0.67078531277E+01  0.23570556762E+02 -0.19586273841E+02  0.31371779717E+02  0.00000000000E+00 0. -1.
</event>
<event>
 7    1  0.6841384E-013  0.5930197E+02  0.7816164E-02  0.1266605E+00
        -11   -1    0    0    0    0  0.00000000000E+00  0.00000000000E+00  0.45593999997E+02  0.45594000000E+02  0.51100000000E-03 0.  1.
         11   -1    0    0    0    0 -0.00000000000E+00 -0.00000000000E+00 -0.45593999997E+02  0.45594000000E+02  0.51100000000E-03 0. -1.
    9900012    2    1    2    0    0 -0.29996400064E+02  0.74289748172E+01 -0.78578053179E+01  0.59301971899E+02  0.50000050831E+02 0.  0.
        -12    1    1    2    0    0  0.29996400064E+02 -0.74289748172E+01  0.78578053179E+01  0.31886028101E+02  0.00000000000E+00 0.  1.
         11    1    3    3    0    0 -0.33199517223E+01  0.48061411245E-01 -0.18981212306E+02  0.19269426826E+02  0.51100000000E-03 0. -1.
        -11    1    3    3    0    0 -0.19762695883E+02 -0.81288646948E+01  0.47193348217E+01  0.21884120069E+02  0.51100000000E-03 0.  1.
        -12    1    3    3    0    0 -0.69137524586E+01  0.15509778101E+02  0.64040721666E+01  0.18148425004E+02  0.00000000000E+00 0.  1.
</event>
<event>
 7    1  0.6841384E-013  0.5930195E+02  0.7816164E-02  0.1266605E+00
        -11   -1    0    0    0    0  0.00000000000E+00  0.00000000000E+00  0.45593999997E+02  0.45594000000E+02  0.51100000000E-03 0. -1.
         11   -1    0    0    0    0 -0.00000000000E+00 -0.00000000000E+00 -0.45593999997E+02  0.45594000000E+02  0.51100000000E-03 0.  1.
    9900012    2    1    2    0    0  0.14838450992E+02  0.28189107545E+02  0.13836425779E+01  0.59301954795E+02  0.50000019636E+02 0.  0.
        -12    1    1    2    0    0 -0.14838450992E+02 -0.28189107545E+02 -0.13836425779E+01  0.31886045205E+02  0.00000000000E+00 0.  1.
         11    1    3    3    0    0 -0.47962392448E+01  0.63210090819E+01  0.16696555321E+02  0.18486049512E+02  0.51100000000E-03 0. -1.
        -11    1    3    3    0    0 -0.36599012179E+01  0.33584453025E+01 -0.91793929936E+01  0.10437206895E+02  0.51100000000E-03 0.  1.
        -12    1    3    3    0    0  0.23294591455E+02  0.18509653161E+02 -0.61335197499E+01  0.30378698387E+02  0.00000000000E+00 0.  1.
</event>
<event>
 7    1  0.6841384E-013  0.5930196E+02  0.7816164E-02  0.1266605E+00
        -11   -1    0    0    0    0  0.00000000000E+00  0.00000000000E+00  0.45593999997E+02  0.45594000000E+02  0.51100000000E-03 0.  1.
         11   -1    0    0    0    0 -0.00000000000E+00 -0.00000000000E+00 -0.45593999997E+02  0.45594000000E+02  0.51100000000E-03 0. -1.
    9900012    2    1    2    0    0  0.26291198722E+02 -0.18004874245E+02  0.11474874156E+01  0.59301963021E+02  0.50000034640E+02 0.  0.
        -12    1    1    2    0    0 -0.26291198722E+02  0.18004874245E+02 -0.11474874156E+01  0.31886036979E+02  0.00000000000E+00 0.  1.
         11    1    3    3    0    0 -0.14914161832E+00 -0.64242509579E+01 -0.59370763071E+01  0.87488352899E+01  0.51100000000E-03 0. -1.
        -11    1    3    3    0    0  0.26238767782E+02  0.34096078894E+01 -0.95775481012E+01  0.28139434759E+02  0.51100000000E-03 0.  1.
         12    1    3    3    0    0  0.20157255845E+00 -0.14990231177E+02  0.16662111824E+02  0.22413692972E+02  0.00000000000E+00 0. -1.
</event>
<event>
 7    1  0.6841384E-013  0.5930197E+02  0.7816164E-02  0.1266605E+00
        -11   -1    0    0    0    0  0.00000000000E+00  0.00000000000E+00  0.45593999997E+02  0.45594000000E+02  0.51100000000E-03 0.  1.
         11   -1    0    0    0    0 -0.00000000000E+00 -0.00000000000E+00 -0.45593999997E+02  0.45594000000E+02  0.51100000000E-03 0. -1.
    9900012    2    1    2    0    0  0.29522547172E+01  0.76504660445E+01 -0.30813523997E+02  0.59301973284E+02  0.50000053356E+02 0.  0.
        -12    1    1    2    0    0 -0.29522547172E+01 -0.76504660445E+01  0.30813523997E+02  0.31886026716E+02  0.00000000000E+00 0.  1.
         11    1    3    3    0    0 -0.23465040676E+01  0.59916946426E+01 -0.21424465496E+02  0.22369939832E+02  0.51100000000E-03 0. -1.
        -11    1    3    3    0    0  0.55429562067E+01  0.52028101706E+01 -0.22290091624E+02  0.23550833999E+02  0.51100000000E-03 0.  1.
        -12    1    3    3    0    0 -0.24419742193E+00 -0.35440387687E+01  0.12901033123E+02  0.13381199453E+02  0.00000000000E+00 0.  1.
</event>
<event>
 7    1  0.6841384E-013  0.5930196E+02  0.7816164E-02  0.1266605E+00
        -11   -1    0    0    0    0  0.00000000000E+00  0.00000000000E+00  0.45593999997E+02  0.45594000000E+02  0.51100000000E-03 0. -1.
         11   -1    0    0    0    0 -0.00000000000E+00 -0.00000000000E+00 -0.45593999997E+02  0.45594000000E+02  0.51100000000E-03 0.  1.
    9900012    2    1    2    0    0  0.20248249327E+02 -0.22125691835E+02  0.10825039003E+02  0.59301963724E+02  0.50000035922E+02 0.  0.
        -12    1    1    2    0    0 -0.20248249327E+02  0.22125691835E+02 -0.10825039003E+02  0.31886036276E+02  0.00000000000E+00 0.  1.
         11    1    3    3    0    0 -0.13734406212E+01 -0.85807666837E+01 -0.94552978029E+01  0.12842061860E+02  0.51100000000E-03 0. -1.
        -11    1    3    3    0    0 -0.28907323966E+01  0.28210657689E+01 -0.58243352799E+01  0.70878507021E+01  0.51100000000E-03 0.  1.
         12    1    3    3    0    0  0.24512422345E+02 -0.16365990920E+02  0.26104672086E+02  0.39372051162E+02  0.00000000000E+00 0. -1.
</event>
<event>
 7    1  0.6841384E-013  0.5930194E+02  0.7816164E-02  0.1266605E+00
        -11   -1    0    0    0    0  0.00000000000E+00  0.00000000000E+00  0.45593999997E+02  0.45594000000E+02  0.51100000000E-03 0. -1.
         11   -1    0    0    0    0 -0.00000000000E+00 -0.00000000000E+00 -0.45593999997E+02  0.45594000000E+02  0.51100000000E-03 0.  1.
    9900012    2    1    2    0    0  0.45855479506E+01 -0.18087244485E+02  0.25856235210E+02  0.59301944077E+02  0.50000000089E+02 0.  0.
        -12    1    1    2    0    0 -0.45855479506E+01  0.18087244485E+02 -0.25856235210E+02  0.31886055923E+02  0.00000000000E+00 0.  1.
         11    1    3    3    0    0 -0.12883695299E+01 -0.12750750766E+02  0.13672998495E+02  0.18740128848E+02  0.51100000000E-03 0. -1.
        -11    1    3    3    0    0 -0.61224039086E+01 -0.18407796992E+02  0.12016128754E+02  0.22819249992E+02  0.51100000000E-03 0.  1.
        -12    1    3    3    0    0  0.11996321389E+02  0.13071303272E+02  0.16710796118E+00  0.17742565236E+02  0.00000000000E+00 0.  1.
</event>
<event>
 7    1  0.6841384E-013  0.5930209E+02  0.7816164E-02  0.1266604E+00
        -11   -1    0    0    0    0  0.00000000000E+00  0.00000000000E+00  0.45593999997E+02  0.45594000000E+02  0.51100000000E-03 0.  1.
         11   -1    0    0    0    0 -0.00000000000E+00 -0.00000000000E+00 -0.45593999997E+02  0.45594000000E+02  0.51100000000E-03 0. -1.
    9900012    2    1    2    0    0  0.19751368074E+02 -0.71706550441E+01 -0.23982830494E+02  0.59302094131E+02  0.50000273752E+02 0.  0.
        -12    1    1    2    0    0 -0.19751368074E+02  0.71706550441E+01  0.23982830494E+02  0.31885905869E+02  0.00000000000E+00 0.  1.
         11    1    3    3    0    0  0.10748673346E+02  0.39402724625E+01 -0.22094943442E+00  0.11450263957E+02  0.51100000000E-03 0. -1.
        -11    1    3    3    0    0 -0.95431691630E+01 -0.14213931402E+02  0.53482966370E+00  0.17128746790E+02  0.51100000000E-03 0.  1.
         12    1    3    3    0    0  0.18545863892E+02  0.31030038951E+01 -0.24296710723E+02  0.30723083384E+02  0.00000000000E+00 0. -1.
</event>
<event>
 7    1  0.6841384E-013  0.5930197E+02  0.7816164E-02  0.1266605E+00
        -11   -1    0    0    0    0  0.00000000000E+00  0.00000000000E+00  0.45593999997E+02  0.45594000000E+02  0.51100000000E-03 0.  1.
         11   -1    0    0    0    0 -0.00000000000E+00 -0.00000000000E+00 -0.45593999997E+02  0.45594000000E+02  0.51100000000E-03 0. -1.
    9900012    2    1    2    0    0 -0.31552988646E+02  0.30294320090E+01  0.34569592263E+01  0.59301966727E+02  0.50000041398E+02 0.  0.
        -12    1    1    2    0    0  0.31552988646E+02 -0.30294320090E+01 -0.34569592263E+01  0.31886033273E+02  0.00000000000E+00 0.  1.
         11    1    3    3    0    0 -0.25634607106E+02  0.57353444410E+00  0.59944274733E+01  0.26332397996E+02  0.51100000000E-03 0. -1.
        -11    1    3    3    0    0 -0.68936016641E+01  0.16775340169E+01  0.14364782436E+02  0.16021324508E+02  0.51100000000E-03 0.  1.
        -12    1    3    3    0    0  0.97522012384E+00  0.77836354804E+00 -0.16902250683E+02  0.16948244224E+02  0.00000000000E+00 0.  1.
</event>
<event>
 7    1  0.6841384E-013  0.5930194E+02  0.7816164E-02  0.1266605E+00
        -11   -1    0    0    0    0  0.00000000000E+00  0.00000000000E+00  0.45593999997E+02  0.45594000000E+02  0.51100000000E-03 0. -1.
         11   -1    0    0    0    0 -0.00000000000E+00 -0.00000000000E+00 -0.45593999997E+02  0.45594000000E+02  0.51100000000E-03 0.  1.
    9900012    2    1    2    0    0  0.26673537205E+02 -0.14934177705E+02  0.90671850837E+01  0.59301935707E+02  0.49999984826E+02 0.  0.
        -12    1    1    2    0    0 -0.26673537205E+02  0.14934177705E+02 -0.90671850837E+01  0.31886064293E+02  0.00000000000E+00 0.  1.
         11    1    3    3    0    0  0.16399501030E+01 -0.40925196574E+01 -0.10351783858E+02  0.11251559127E+02  0.51100000000E-03 0. -1.
        -11    1    3    3    0    0  0.58723064203E+01  0.59748199675E+01  0.20896766412E+02  0.22513491579E+02  0.51100000000E-03 0.  1.
         12    1    3    3    0    0  0.19161280681E+02 -0.16816478015E+02 -0.14777974702E+01  0.25536885001E+02  0.00000000000E+00 0. -1.
</event>
<event>
 7    1  0.6841384E-013  0.5930192E+02  0.7816164E-02  0.1266605E+00
        -11   -1    0    0    0    0  0.00000000000E+00  0.00000000000E+00  0.45593999997E+02  0.45594000000E+02  0.51100000000E-03 0.  1.
         11   -1    0    0    0    0 -0.00000000000E+00 -0.00000000000E+00 -0.45593999997E+02  0.45594000000E+02  0.51100000000E-03 0. -1.
    9900012    2    1    2    0    0 -0.18859027697E+02 -0.18843131581E+00 -0.25710377534E+02  0.59301922396E+02  0.49999960549E+02 0.  0.
        -12    1    1    2    0    0  0.18859027697E+02  0.18843131581E+00  0.25710377534E+02  0.31886077604E+02  0.00000000000E+00 0.  1.
         11    1    3    3    0    0 -0.82607059115E+01  0.58526098204E+01 -0.13021408626E+02  0.16493919689E+02  0.51100000000E-03 0. -1.
        -11    1    3    3    0    0 -0.11062261066E+02 -0.36240860992E+01  0.12741668777E+02  0.17258555659E+02  0.51100000000E-03 0.  1.
         12    1    3    3    0    0  0.46393928134E+00 -0.24169550370E+01 -0.25430637686E+02  0.25549447047E+02  0.00000000000E+00 0. -1.
</event>
<event>
 7    1  0.6841384E-013  0.5930194E+02  0.7816164E-02  0.1266605E+00
        -11   -1    0    0    0    0  0.00000000000E+00  0.00000000000E+00  0.45593999997E+02  0.45594000000E+02  0.51100000000E-03 0. -1.
         11   -1    0    0    0    0 -0.00000000000E+00 -0.00000000000E+00 -0.45593999997E+02  0.45594000000E+02  0.51100000000E-03 0.  1.
    9900012    2    1    2    0    0 -0.68895865005E+01 -0.25663549806E+02 -0.17624878867E+02  0.59301944335E+02  0.50000000560E+02 0.  0.
        -12    1    1    2    0    0  0.68895865005E+01  0.25663549806E+02  0.17624878867E+02  0.31886055665E+02  0.00000000000E+00 0.  1.
         11    1    3    3    0    0 -0.15430882677E+02 -0.27467203348E+02 -0.10963300731E+01  0.31523980393E+02  0.51100000000E-03 0. -1.
        -11    1    3    3    0    0  0.88607664397E+01  0.26747309530E+01  0.17973739155E+01  0.94285693943E+01  0.51100000000E-03 0.  1.
        -12    1    3    3    0    0 -0.31947026331E+00 -0.87107741109E+00 -0.18325922709E+02  0.18349394547E+02  0.00000000000E+00 0.  1.
</event>
<event>
 7    1  0.6841384E-013  0.5930195E+02  0.7816164E-02  0.1266605E+00
        -11   -1    0    0    0    0  0.00000000000E+00  0.00000000000E+00  0.45593999997E+02  0.45594000000E+02  0.51100000000E-03 0.  1.
         11   -1    0    0    0    0 -0.00000000000E+00 -0.00000000000E+00 -0.45593999997E+02  0.45594000000E+02  0.51100000000E-03 0. -1.
    9900012    2    1    2    0    0 -0.42183506204E-01 -0.24774628706E+02 -0.20073270574E+02  0.59301949782E+02  0.50000010494E+02 0.  0.
        -12    1    1    2    0    0  0.42183506204E-01  0.24774628706E+02  0.20073270574E+02  0.31886050218E+02  0.00000000000E+00 0.  1.
         11    1    3    3    0    0  0.15274650168E+02 -0.14498190215E+02  0.71102223948E+01  0.22227634153E+02  0.51100000000E-03 0. -1.
        -11    1    3    3    0    0 -0.81905115252E+00 -0.33777188404E+00  0.24581248043E+01  0.26129126374E+01  0.51100000000E-03 0.  1.
         12    1    3    3    0    0 -0.14497782522E+02 -0.99386666072E+01 -0.29641617773E+02  0.34461402992E+02  0.00000000000E+00 0. -1.
</event>
<event>
 7    1  0.6841384E-013  0.5930192E+02  0.7816164E-02  0.1266605E+00
        -11   -1    0    0    0    0  0.00000000000E+00  0.00000000000E+00  0.45593999997E+02  0.45594000000E+02  0.51100000000E-03 0.  1.
         11   -1    0    0    0    0 -0.00000000000E+00 -0.00000000000E+00 -0.45593999997E+02  0.45594000000E+02  0.51100000000E-03 0. -1.
    9900012    2    1    2    0    0 -0.21575752051E+02 -0.16924469619E+02 -0.16271790719E+02  0.59301922761E+02  0.49999961215E+02 0.  0.
        -12    1    1    2    0    0  0.21575752051E+02  0.16924469619E+02  0.16271790719E+02  0.31886077239E+02  0.00000000000E+00 0.  1.
         11    1    3    3    0    0 -0.98902880928E+01  0.28728191172E+01  0.26291872245E+01  0.10629370346E+02  0.51100000000E-03 0.  1.
        -11    1    3    3    0    0 -0.25197170974E+02 -0.70047037420E+01 -0.94915749590E+01  0.27821813296E+02  0.51100000000E-03 0. -1.
         12    1    3    3    0    0  0.13511707015E+02 -0.12792584994E+02 -0.94094029846E+01  0.20850739119E+02  0.00000000000E+00 0. -1.
</event>
<event>
 7    1  0.6841384E-013  0.5930189E+02  0.7816164E-02  0.1266605E+00
        -11   -1    0    0    0    0  0.00000000000E+00  0.00000000000E+00  0.45593999997E+02  0.45594000000E+02  0.51100000000E-03 0.  1.
         11   -1    0    0    0    0 -0.00000000000E+00 -0.00000000000E+00 -0.45593999997E+02  0.45594000000E+02  0.51100000000E-03 0. -1.
    9900012    2    1    2    0    0  0.21001471427E+02 -0.14034694561E+02 -0.19459946921E+02  0.59301890365E+02  0.49999902131E+02 0.  0.
        -12    1    1    2    0    0 -0.21001471427E+02  0.14034694561E+02  0.19459946921E+02  0.31886109635E+02  0.00000000000E+00 0.  1.
         11    1    3    3    0    0 -0.25590647292E+01  0.28258831667E+01  0.52866427430E+01  0.65178999466E+01  0.51100000000E-03 0. -1.
        -11    1    3    3    0    0  0.14628892107E+02 -0.15584856862E+02  0.47857263228E+01  0.21904233025E+02  0.51100000000E-03 0.  1.
         12    1    3    3    0    0  0.89316440487E+01 -0.12757208658E+01 -0.29532315987E+02  0.30879757394E+02  0.00000000000E+00 0. -1.
</event>
<event>
 7    1  0.6841384E-013  0.5930195E+02  0.7816164E-02  0.1266605E+00
        -11   -1    0    0    0    0  0.00000000000E+00  0.00000000000E+00  0.45593999997E+02  0.45594000000E+02  0.51100000000E-03 0. -1.
         11   -1    0    0    0    0 -0.00000000000E+00 -0.00000000000E+00 -0.45593999997E+02  0.45594000000E+02  0.51100000000E-03 0.  1.
    9900012    2    1    2    0    0  0.29312751867E+02  0.12328474013E+02  0.23433578188E+01  0.59301952591E+02  0.50000015617E+02 0.  0.
        -12    1    1    2    0    0 -0.29312751867E+02 -0.12328474013E+02 -0.23433578188E+01  0.31886047409E+02  0.00000000000E+00 0.  1.
         11    1    3    3    0    0  0.33471485140E+02  0.66092960696E+01 -0.54647098143E+01  0.34552657867E+02  0.51100000000E-03 0. -1.
        -11    1    3    3    0    0 -0.77832678980E+00 -0.74199931079E+01  0.83166910969E+01  0.11172709670E+02  0.51100000000E-03 0.  1.
        -12    1    3    3    0    0 -0.33804064836E+01  0.13139171051E+02 -0.50862346379E+00  0.13576585054E+02  0.00000000000E+00 0.  1.
</event>
<event>
 7    1  0.6841384E-013  0.5930185E+02  0.7816164E-02  0.1266605E+00
        -11   -1    0    0    0    0  0.00000000000E+00  0.00000000000E+00  0.45593999997E+02  0.45594000000E+02  0.51100000000E-03 0. -1.
         11   -1    0    0    0    0 -0.00000000000E+00 -0.00000000000E+00 -0.45593999997E+02  0.45594000000E+02  0.51100000000E-03 0.  1.
    9900012    2    1    2    0    0 -0.63933905918E+01 -0.18382497706E+02  0.25257375001E+02  0.59301848506E+02  0.49999825791E+02 0.  0.
        -12    1    1    2    0    0  0.63933905918E+01  0.18382497706E+02 -0.25257375001E+02  0.31886151494E+02  0.00000000000E+00 0.  1.
         11    1    3    3    0    0 -0.20266978552E+02 -0.80624669517E+01  0.23042907599E+02  0.31728999099E+02  0.51100000000E-03 0. -1.
        -11    1    3    3    0    0  0.60916498797E+01  0.59682349033E+01 -0.25532582593E+01  0.89020870652E+01  0.51100000000E-03 0.  1.
        -12    1    3    3    0    0  0.77819380808E+01 -0.16288265658E+02  0.47677256611E+01  0.18670762341E+02  0.00000000000E+00 0.  1.
</event>
<event>
 7    1  0.6841384E-013  0.5930195E+02  0.7816164E-02  0.1266605E+00
        -11   -1    0    0    0    0  0.00000000000E+00  0.00000000000E+00  0.45593999997E+02  0.45594000000E+02  0.51100000000E-03 0.  1.
         11   -1    0    0    0    0 -0.00000000000E+00 -0.00000000000E+00 -0.45593999997E+02  0.45594000000E+02  0.51100000000E-03 0. -1.
    9900012    2    1    2    0    0  0.73567544095E+01  0.22515900639E+02 -0.21345552395E+02  0.59301949381E+02  0.50000009763E+02 0.  0.
        -12    1    1    2    0    0 -0.73567544095E+01 -0.22515900639E+02  0.21345552395E+02  0.31886050619E+02  0.00000000000E+00 0.  1.
         11    1    3    3    0    0  0.85252403057E+01  0.44451381792E+01 -0.21741504017E+01  0.98572768010E+01  0.51100000000E-03 0. -1.
        -11    1    3    3    0    0  0.35427696616E+01  0.26308683732E+02  0.16141706807E+01  0.26595180087E+02  0.51100000000E-03 0.  1.
         12    1    3    3    0    0 -0.47112555578E+01 -0.82379212720E+01 -0.20785572674E+02  0.22849492493E+02  0.00000000000E+00 0. -1.
</event>
<event>
 7    1  0.6841384E-013  0.5930193E+02  0.7816164E-02  0.1266605E+00
        -11   -1    0    0    0    0  0.00000000000E+00  0.00000000000E+00  0.45593999997E+02  0.45594000000E+02  0.51100000000E-03 0.  1.
         11   -1    0    0    0    0 -0.00000000000E+00 -0.00000000000E+00 -0.45593999997E+02  0.45594000000E+02  0.51100000000E-03 0. -1.
    9900012    2    1    2    0    0 -0.23562740828E+02  0.27344780007E+01 -0.21308247411E+02  0.59301928856E+02  0.49999972330E+02 0.  0.
        -12    1    1    2    0    0  0.23562740828E+02 -0.27344780007E+01  0.21308247411E+02  0.31886071144E+02  0.00000000000E+00 0.  1.
         11    1    3    3    0    0  0.40321309744E+00 -0.20439949656E+01 -0.12916085194E+01  0.24512749845E+01  0.51100000000E-03 0. -1.
        -11    1    3    3    0    0 -0.11861070271E+02 -0.14915437654E+02  0.78793390059E+01  0.20621330021E+02  0.51100000000E-03 0.  1.
         12    1    3    3    0    0 -0.12104883654E+02  0.19693910620E+02 -0.27895977898E+02  0.36229323851E+02  0.00000000000E+00 0. -1.
</event>
<event>
 7    1  0.6841384E-013  0.5930195E+02  0.7816164E-02  0.1266605E+00
        -11   -1    0    0    0    0  0.00000000000E+00  0.00000000000E+00  0.45593999997E+02  0.45594000000E+02  0.51100000000E-03 0.  1.
         11   -1    0    0    0    0 -0.00000000000E+00 -0.00000000000E+00 -0.45593999997E+02  0.45594000000E+02  0.51100000000E-03 0. -1.
    9900012    2    1    2    0    0  0.79527473441E+01 -0.13589749332E+02 -0.27727115232E+02  0.59301946680E+02  0.50000004838E+02 0.  0.
        -12    1    1    2    0    0 -0.79527473441E+01  0.13589749332E+02  0.27727115232E+02  0.31886053320E+02  0.00000000000E+00 0.  1.
         11    1    3    3    0    0 -0.11476239188E+02 -0.16175927008E+02 -0.16594394562E+02  0.25859980890E+02  0.51100000000E-03 0. -1.
        -11    1    3    3    0    0 -0.59124511637E+01  0.89858991669E-01 -0.34413549381E+01  0.68416428928E+01  0.51100000000E-03 0.  1.
        -12    1    3    3    0    0  0.25341437696E+02  0.24963186841E+01 -0.76913657317E+01  0.26600322898E+02  0.00000000000E+00 0.  1.
</event>
<event>
 7    1  0.6841384E-013  0.5930193E+02  0.7816164E-02  0.1266605E+00
        -11   -1    0    0    0    0  0.00000000000E+00  0.00000000000E+00  0.45593999997E+02  0.45594000000E+02  0.51100000000E-03 0.  1.
         11   -1    0    0    0    0 -0.00000000000E+00 -0.00000000000E+00 -0.45593999997E+02  0.45594000000E+02  0.51100000000E-03 0. -1.
    9900012    2    1    2    0    0 -0.11299765625E+02  0.29206959371E+02 -0.59991734849E+01  0.59301933115E+02  0.49999980098E+02 0.  0.
        -12    1    1    2    0    0  0.11299765625E+02 -0.29206959371E+02  0.59991734849E+01  0.31886066885E+02  0.00000000000E+00 0.  1.
         11    1    3    3    0    0  0.71391864950E+01  0.17317658436E+02 -0.32566699802E+01  0.19012500549E+02  0.51100000000E-03 0. -1.
        -11    1    3    3    0    0  0.12987908763E+01  0.45162592121E+00  0.12679167281E+02  0.12753513512E+02  0.51100000000E-03 0.  1.
        -12    1    3    3    0    0 -0.19737742996E+02  0.11437675014E+02 -0.15421670785E+02  0.27535919054E+02  0.00000000000E+00 0.  1.
</event>
<event>
 7    1  0.6841384E-013  0.5930193E+02  0.7816164E-02  0.1266605E+00
        -11   -1    0    0    0    0  0.00000000000E+00  0.00000000000E+00  0.45593999997E+02  0.45594000000E+02  0.51100000000E-03 0.  1.
         11   -1    0    0    0    0 -0.00000000000E+00 -0.00000000000E+00 -0.45593999997E+02  0.45594000000E+02  0.51100000000E-03 0. -1.
    9900012    2    1    2    0    0 -0.27254685744E+02  0.11252828693E+02 -0.12135788480E+02  0.59301930775E+02  0.49999975830E+02 0.  0.
        -12    1    1    2    0    0  0.27254685744E+02 -0.11252828693E+02  0.12135788480E+02  0.31886069225E+02  0.00000000000E+00 0.  1.
         11    1    3    3    0    0 -0.10410333918E+02  0.10950750083E+02  0.57028508348E+01  0.16149813856E+02  0.51100000000E-03 0. -1.
        -11    1    3    3    0    0  0.15197902992E+01  0.15252106725E+02 -0.45039344835E+01  0.15975667379E+02  0.51100000000E-03 0.  1.
        -12    1    3    3    0    0 -0.18364142126E+02 -0.14950028116E+02 -0.13334704831E+02  0.27176449540E+02  0.00000000000E+00 0.  1.
</event>
<event>
 7    1  0.6841384E-013  0.5930207E+02  0.7816164E-02  0.1266604E+00
        -11   -1    0    0    0    0  0.00000000000E+00  0.00000000000E+00  0.45593999997E+02  0.45594000000E+02  0.51100000000E-03 0.  1.
         11   -1    0    0    0    0 -0.00000000000E+00 -0.00000000000E+00 -0.45593999997E+02  0.45594000000E+02  0.51100000000E-03 0. -1.
    9900012    2    1    2    0    0  0.95829566285E+01 -0.25480538890E+02 -0.16601846337E+02  0.59302074866E+02  0.50000238617E+02 0.  0.
        -12    1    1    2    0    0 -0.95829566285E+01  0.25480538890E+02  0.16601846337E+02  0.31885925134E+02  0.00000000000E+00 0.  1.
         11    1    3    3    0    0  0.21629765605E+02 -0.12880661654E+02 -0.36841125675E+01  0.25442698175E+02  0.51100000000E-03 0. -1.
        -11    1    3    3    0    0 -0.24725681288E+00 -0.17714566040E+02 -0.38669409906E+01  0.18133400641E+02  0.51100000000E-03 0.  1.
         12    1    3    3    0    0 -0.11799552163E+02  0.51146888036E+01 -0.90507927790E+01  0.15725976050E+02  0.00000000000E+00 0. -1.
</event>
<event>
 7    1  0.6841384E-013  0.5930197E+02  0.7816164E-02  0.1266605E+00
        -11   -1    0    0    0    0  0.00000000000E+00  0.00000000000E+00  0.45593999997E+02  0.45594000000E+02  0.51100000000E-03 0. -1.
         11   -1    0    0    0    0 -0.00000000000E+00 -0.00000000000E+00 -0.45593999997E+02  0.45594000000E+02  0.51100000000E-03 0.  1.
    9900012    2    1    2    0    0  0.30178473889E+02  0.77890256967E+01  0.67312649766E+01  0.59301966447E+02  0.50000040887E+02 0.  0.
        -12    1    1    2    0    0 -0.30178473889E+02 -0.77890256967E+01 -0.67312649766E+01  0.31886033553E+02  0.00000000000E+00 0.  1.
         11    1    3    3    0    0  0.13902921260E+02  0.11982982498E+02 -0.44845074241E+00  0.18359852870E+02  0.51100000000E-03 0. -1.
        -11    1    3    3    0    0 -0.69863629057E+01  0.25628679422E+01 -0.91008791642E+01  0.11756001045E+02  0.51100000000E-03 0.  1.
         12    1    3    3    0    0  0.23261915535E+02 -0.67568247435E+01  0.16280594883E+02  0.29186112532E+02  0.00000000000E+00 0. -1.
</event>
<event>
 7    1  0.6841384E-013  0.5930195E+02  0.7816164E-02  0.1266605E+00
        -11   -1    0    0    0    0  0.00000000000E+00  0.00000000000E+00  0.45593999997E+02  0.45594000000E+02  0.51100000000E-03 0.  1.
         11   -1    0    0    0    0 -0.00000000000E+00 -0.00000000000E+00 -0.45593999997E+02  0.45594000000E+02  0.51100000000E-03 0. -1.
    9900012    2    1    2    0    0  0.15377628304E+02 -0.16634542436E+02 -0.22439715147E+02  0.59301948658E+02  0.50000008444E+02 0.  0.
        -12    1    1    2    0    0 -0.15377628304E+02  0.16634542436E+02  0.22439715147E+02  0.31886051342E+02  0.00000000000E+00 0.  1.
         11    1    3    3    0    0  0.18099148804E+02 -0.40355475095E+01 -0.24528566031E+02  0.30749233859E+02  0.51100000000E-03 0. -1.
        -11    1    3    3    0    0 -0.26638690369E+00 -0.15813919276E+02 -0.79701185322E+01  0.17710838335E+02  0.51100000000E-03 0.  1.
        -12    1    3    3    0    0 -0.24551335965E+01  0.32149243491E+01  0.10058969416E+02  0.10841876464E+02  0.00000000000E+00 0.  1.
</event>
<event>
 7    1  0.6841384E-013  0.5930165E+02  0.7816164E-02  0.1266606E+00
        -11   -1    0    0    0    0  0.00000000000E+00  0.00000000000E+00  0.45593999997E+02  0.45594000000E+02  0.51100000000E-03 0. -1.
         11   -1    0    0    0    0 -0.00000000000E+00 -0.00000000000E+00 -0.45593999997E+02  0.45594000000E+02  0.51100000000E-03 0.  1.
    9900012    2    1    2    0    0 -0.50001422137E+01 -0.30186952026E+02  0.89713822768E+01  0.59301651906E+02  0.49999467238E+02 0.  0.
        -12    1    1    2    0    0  0.50001422137E+01  0.30186952026E+02 -0.89713822768E+01  0.31886348094E+02  0.00000000000E+00 0.  1.
         11    1    3    3    0    0 -0.48562627717E+01  0.16689455338E+01  0.52550352939E+01  0.73473848071E+01  0.51100000000E-03 0. -1.
        -11    1    3    3    0    0  0.19307003934E+02 -0.12570502518E+02 -0.42522575521E+01  0.23427753392E+02  0.51100000000E-03 0.  1.
         12    1    3    3    0    0 -0.19450883376E+02 -0.19285395042E+02  0.79686045351E+01  0.28526513707E+02  0.00000000000E+00 0. -1.
</event>
<event>
 7    1  0.6841384E-013  0.5930191E+02  0.7816164E-02  0.1266605E+00
        -11   -1    0    0    0    0  0.00000000000E+00  0.00000000000E+00  0.45593999997E+02  0.45594000000E+02  0.51100000000E-03 0. -1.
         11   -1    0    0    0    0 -0.00000000000E+00 -0.00000000000E+00 -0.45593999997E+02  0.45594000000E+02  0.51100000000E-03 0.  1.
    9900012    2    1    2    0    0 -0.42266392146E+01 -0.15730509210E+02  0.27411844258E+02  0.59301912051E+02  0.49999941682E+02 0.  0.
        -12    1    1    2    0    0  0.42266392146E+01  0.15730509210E+02 -0.27411844258E+02  0.31886087949E+02  0.00000000000E+00 0.  1.
         11    1    3    3    0    0 -0.10045722267E+02  0.82482293280E+00  0.25868246142E+02  0.27762619248E+02  0.51100000000E-03 0. -1.
        -11    1    3    3    0    0 -0.33742231486E+01 -0.40513657059E+01  0.11808367378E+02  0.12931994677E+02  0.51100000000E-03 0.  1.
        -12    1    3    3    0    0  0.91933062010E+01 -0.12503966437E+02 -0.10264769262E+02  0.18607298126E+02  0.00000000000E+00 0.  1.
</event>
<event>
 7    1  0.6841384E-013  0.5930194E+02  0.7816164E-02  0.1266605E+00
        -11   -1    0    0    0    0  0.00000000000E+00  0.00000000000E+00  0.45593999997E+02  0.45594000000E+02  0.51100000000E-03 0. -1.
         11   -1    0    0    0    0 -0.00000000000E+00 -0.00000000000E+00 -0.45593999997E+02  0.45594000000E+02  0.51100000000E-03 0.  1.
    9900012    2    1    2    0    0 -0.20904565081E+02 -0.10866200333E+02  0.21485941215E+02  0.59301940023E+02  0.49999992697E+02 0.  0.
        -12    1    1    2    0    0  0.20904565081E+02  0.10866200333E+02 -0.21485941215E+02  0.31886059977E+02  0.00000000000E+00 0.  1.
         11    1    3    3    0    0 -0.92530530189E+01  0.81541817138E+01  0.23304872182E+02  0.26367152620E+02  0.51100000000E-03 0. -1.
        -11    1    3    3    0    0  0.25019267702E+01  0.46031908246E+01  0.67808200190E+00  0.52828778893E+01  0.51100000000E-03 0.  1.
        -12    1    3    3    0    0 -0.14153438833E+02 -0.23623572872E+02 -0.24970129687E+01  0.27651909514E+02  0.00000000000E+00 0.  1.
</event>
<event>
 7    1  0.6841384E-013  0.5930191E+02  0.7816164E-02  0.1266605E+00
        -11   -1    0    0    0    0  0.00000000000E+00  0.00000000000E+00  0.45593999997E+02  0.45594000000E+02  0.51100000000E-03 0.  1.
         11   -1    0    0    0    0 -0.00000000000E+00 -0.00000000000E+00 -0.45593999997E+02  0.45594000000E+02  0.51100000000E-03 0. -1.
    9900012    2    1    2    0    0  0.14601566761E+02 -0.91809575794E+01 -0.26818406306E+02  0.59301911329E+02  0.49999940365E+02 0.  0.
        -12    1    1    2    0    0 -0.14601566761E+02  0.91809575794E+01  0.26818406306E+02  0.31886088671E+02  0.00000000000E+00 0.  1.
         11    1    3    3    0    0  0.16440297472E+02  0.66419259856E+01 -0.39248779892E+01  0.18160485381E+02  0.51100000000E-03 0. -1.
        -11    1    3    3    0    0  0.11615616608E+02  0.11788658561E+01 -0.38772341577E+01  0.12302244464E+02  0.51100000000E-03 0.  1.
         12    1    3    3    0    0 -0.13454347318E+02 -0.17001749421E+02 -0.19016294159E+02  0.28839181484E+02  0.00000000000E+00 0. -1.
</event>
<event>
 7    1  0.6841384E-013  0.5930195E+02  0.7816164E-02  0.1266605E+00
        -11   -1    0    0    0    0  0.00000000000E+00  0.00000000000E+00  0.45593999997E+02  0.45594000000E+02  0.51100000000E-03 0. -1.
         11   -1    0    0    0    0 -0.00000000000E+00 -0.00000000000E+00 -0.45593999997E+02  0.45594000000E+02  0.51100000000E-03 0.  1.
    9900012    2    1    2    0    0 -0.19333349992E+02  0.17200551448E+02 -0.18630151323E+02  0.59301953987E+02  0.50000018164E+02 0.  0.
        -12    1    1    2    0    0  0.19333349992E+02 -0.17200551448E+02  0.18630151323E+02  0.31886046013E+02  0.00000000000E+00 0.  1.
         11    1    3    3    0    0  0.45158548445E+01  0.12029217936E+02 -0.33644304396E+01  0.13282109079E+02  0.51100000000E-03 0. -1.
        -11    1    3    3    0    0  0.25263835947E+01 -0.53841909671E+01  0.75299951580E+01  0.95954652716E+01  0.51100000000E-03 0.  1.
        -12    1    3    3    0    0 -0.26375588431E+02  0.10555524478E+02 -0.22795716041E+02  0.36424379637E+02  0.00000000000E+00 0.  1.
</event>
<event>
 7    1  0.6841384E-013  0.5930192E+02  0.7816164E-02  0.1266605E+00
        -11   -1    0    0    0    0  0.00000000000E+00  0.00000000000E+00  0.45593999997E+02  0.45594000000E+02  0.51100000000E-03 0. -1.
         11   -1    0    0    0    0 -0.00000000000E+00 -0.00000000000E+00 -0.45593999997E+02  0.45594000000E+02  0.51100000000E-03 0.  1.
    9900012    2    1    2    0    0  0.20426346384E+02 -0.18907442795E+02  0.15556182715E+02  0.59301924038E+02  0.49999963543E+02 0.  0.
        -12    1    1    2    0    0 -0.20426346384E+02  0.18907442795E+02 -0.15556182715E+02  0.31886075962E+02  0.00000000000E+00 0.  1.
         11    1    3    3    0    0  0.17136043329E+02 -0.85536980467E+01  0.70211887475E+00  0.19165142901E+02  0.51100000000E-03 0. -1.
        -11    1    3    3    0    0  0.15362623703E+02 -0.40884847338E+01  0.20040500008E+02  0.25580218046E+02  0.51100000000E-03 0.  1.
        -12    1    3    3    0    0 -0.12072320648E+02 -0.62652600140E+01 -0.51864361681E+01  0.14556563090E+02  0.00000000000E+00 0.  1.
</event>
<event>
 7    1  0.6841384E-013  0.5930203E+02  0.7816164E-02  0.1266604E+00
        -11   -1    0    0    0    0  0.00000000000E+00  0.00000000000E+00  0.45593999997E+02  0.45594000000E+02  0.51100000000E-03 0. -1.
         11   -1    0    0    0    0 -0.00000000000E+00 -0.00000000000E+00 -0.45593999997E+02  0.45594000000E+02  0.51100000000E-03 0.  1.
    9900012    2    1    2    0    0 -0.23908130720E+02  0.16443333152E+02 -0.13218662636E+02  0.59302031902E+02  0.50000160262E+02 0.  0.
        -12    1    1    2    0    0  0.23908130720E+02 -0.16443333152E+02  0.13218662636E+02  0.31885968098E+02  0.00000000000E+00 0.  1.
         11    1    3    3    0    0 -0.29365202018E+02  0.39834967196E+01 -0.59886700861E+01  0.30233218573E+02  0.51100000000E-03 0. -1.
        -11    1    3    3    0    0 -0.92949265205E+00  0.13130630167E+02 -0.14355139551E+02  0.19476843609E+02  0.51100000000E-03 0.  1.
        -12    1    3    3    0    0  0.63865639496E+01 -0.67079373519E+00  0.71251470012E+01  0.95919697198E+01  0.00000000000E+00 0.  1.
</event>
<event>
 7    1  0.6841384E-013  0.5930193E+02  0.7816164E-02  0.1266605E+00
        -11   -1    0    0    0    0  0.00000000000E+00  0.00000000000E+00  0.45593999997E+02  0.45594000000E+02  0.51100000000E-03 0. -1.
         11   -1    0    0    0    0 -0.00000000000E+00 -0.00000000000E+00 -0.45593999997E+02  0.45594000000E+02  0.51100000000E-03 0.  1.
    9900012    2    1    2    0    0 -0.28168082640E+02 -0.25392586610E+01  0.14725234265E+02  0.59301933476E+02  0.49999980757E+02 0.  0.
        -12    1    1    2    0    0  0.28168082640E+02  0.25392586610E+01 -0.14725234265E+02  0.31886066524E+02  0.00000000000E+00 0.  1.
         11    1    3    3    0    0 -0.26349732796E+02 -0.17616286860E+02  0.34753557734E+01  0.31886048347E+02  0.51100000000E-03 0. -1.
        -11    1    3    3    0    0  0.27071214098E+01 -0.39355850884E+01  0.49569670095E+01  0.68839566028E+01  0.51100000000E-03 0.  1.
        -12    1    3    3    0    0 -0.45254712537E+01  0.19012613287E+02  0.62929114825E+01  0.20531928526E+02  0.00000000000E+00 0.  1.
</event>
<event>
 7    1  0.6841384E-013  0.5930195E+02  0.7816164E-02  0.1266605E+00
        -11   -1    0    0    0    0  0.00000000000E+00  0.00000000000E+00  0.45593999997E+02  0.45594000000E+02  0.51100000000E-03 0.  1.
         11   -1    0    0    0    0 -0.00000000000E+00 -0.00000000000E+00 -0.45593999997E+02  0.45594000000E+02  0.51100000000E-03 0. -1.
    9900012    2    1    2    0    0 -0.99951891189E+01  0.20833838656E+02 -0.21971969675E+02  0.59301951482E+02  0.50000013595E+02 0.  0.
        -12    1    1    2    0    0  0.99951891189E+01 -0.20833838656E+02  0.21971969675E+02  0.31886048518E+02  0.00000000000E+00 0.  1.
         11    1    3    3    0    0 -0.19642714639E+02 -0.59638119493E+01 -0.11992661312E+02  0.23774507712E+02  0.51100000000E-03 0. -1.
        -11    1    3    3    0    0  0.17879493537E+00 -0.28419847316E+01  0.10974063767E-01  0.28476245424E+01  0.51100000000E-03 0.  1.
         12    1    3    3    0    0  0.94687305842E+01  0.29639635337E+02 -0.99902824264E+01  0.32679819228E+02  0.00000000000E+00 0. -1.
</event>
<event>
 7    1  0.6841384E-013  0.5930194E+02  0.7816164E-02  0.1266605E+00
        -11   -1    0    0    0    0  0.00000000000E+00  0.00000000000E+00  0.45593999997E+02  0.45594000000E+02  0.51100000000E-03 0.  1.
         11   -1    0    0    0    0 -0.00000000000E+00 -0.00000000000E+00 -0.45593999997E+02  0.45594000000E+02  0.51100000000E-03 0. -1.
    9900012    2    1    2    0    0 -0.60194457915E+01 -0.28776745170E+02 -0.12344486546E+02  0.59301935045E+02  0.49999983618E+02 0.  0.
        -12    1    1    2    0    0  0.60194457915E+01  0.28776745170E+02  0.12344486546E+02  0.31886064955E+02  0.00000000000E+00 0.  1.
         11    1    3    3    0    0 -0.37197131222E+01 -0.15800535856E+01  0.15383529538E+02  0.15905527855E+02  0.51100000000E-03 0.  1.
        -11    1    3    3    0    0 -0.50941064386E+01  0.34408938077E+00 -0.76587913784E+01  0.92046403269E+01  0.51100000000E-03 0. -1.
        -12    1    3    3    0    0  0.27943737693E+01 -0.27540780966E+02 -0.20069224705E+02  0.34191766863E+02  0.00000000000E+00 0.  1.
</event>
<event>
 7    1  0.6841384E-013  0.5930197E+02  0.7816164E-02  0.1266605E+00
        -11   -1    0    0    0    0  0.00000000000E+00  0.00000000000E+00  0.45593999997E+02  0.45594000000E+02  0.51100000000E-03 0. -1.
         11   -1    0    0    0    0 -0.00000000000E+00 -0.00000000000E+00 -0.45593999997E+02  0.45594000000E+02  0.51100000000E-03 0.  1.
    9900012    2    1    2    0    0  0.23382408345E+02  0.18506373505E+02  0.11291404608E+02  0.59301973306E+02  0.50000053397E+02 0.  0.
        -12    1    1    2    0    0 -0.23382408345E+02 -0.18506373505E+02 -0.11291404608E+02  0.31886026694E+02  0.00000000000E+00 0.  1.
         11    1    3    3    0    0  0.15576762403E+02  0.95764067420E+01  0.65926521503E+01  0.19437236318E+02  0.51100000000E-03 0. -1.
        -11    1    3    3    0    0  0.16126256044E+02  0.15526899735E+02 -0.75770129543E+01  0.23633702100E+02  0.51100000000E-03 0.  1.
         12    1    3    3    0    0 -0.83206101018E+01 -0.65969329717E+01  0.12275765412E+02  0.16231034889E+02  0.00000000000E+00 0. -1.
</event>
<event>
 7    1  0.6841384E-013  0.5930195E+02  0.7816164E-02  0.1266605E+00
        -11   -1    0    0    0    0  0.00000000000E+00  0.00000000000E+00  0.45593999997E+02  0.45594000000E+02  0.51100000000E-03 0.  1.
         11   -1    0    0    0    0 -0.00000000000E+00 -0.00000000000E+00 -0.45593999997E+02  0.45594000000E+02  0.51100000000E-03 0. -1.
    9900012    2    1    2    0    0  0.15699388147E+02 -0.26595968371E+02 -0.79312124167E+01  0.59301945804E+02  0.50000003240E+02 0.  0.
        -12    1    1    2    0    0 -0.15699388147E+02  0.26595968371E+02  0.79312124167E+01  0.31886054196E+02  0.00000000000E+00 0.  1.
         11    1    3    3    0    0  0.99212407627E+01  0.61057215376E+01  0.33773874740E+00  0.11654394943E+02  0.51100000000E-03 0. -1.
        -11    1    3    3    0    0 -0.11873619763E+02 -0.70811658434E+01 -0.90526980935E+01  0.16525044599E+02  0.51100000000E-03 0.  1.
         12    1    3    3    0    0  0.17651767148E+02 -0.25620524065E+02  0.78374692940E+00  0.31122506262E+02  0.00000000000E+00 0. -1.
</event>
<event>
 7    1  0.6841384E-013  0.5930194E+02  0.7816164E-02  0.1266605E+00
        -11   -1    0    0    0    0  0.00000000000E+00  0.00000000000E+00  0.45593999997E+02  0.45594000000E+02  0.51100000000E-03 0.  1.
         11   -1    0    0    0    0 -0.00000000000E+00 -0.00000000000E+00 -0.45593999997E+02  0.45594000000E+02  0.51100000000E-03 0. -1.
    9900012    2    1    2    0    0 -0.13890429478E+02 -0.26999942463E+02 -0.97354913418E+01  0.59301941671E+02  0.49999995702E+02 0.  0.
        -12    1    1    2    0    0  0.13890429478E+02  0.26999942463E+02  0.97354913418E+01  0.31886058329E+02  0.00000000000E+00 0.  1.
         11    1    3    3    0    0 -0.13290281655E+02 -0.17032248513E+02 -0.16629289357E+02  0.27262838089E+02  0.51100000000E-03 0. -1.
        -11    1    3    3    0    0  0.96389296921E+01  0.84323105807E+00 -0.67866592585E+01  0.11818576411E+02  0.51100000000E-03 0.  1.
        -12    1    3    3    0    0 -0.10239077515E+02 -0.10810925008E+02  0.13680457273E+02  0.20220527171E+02  0.00000000000E+00 0.  1.
</event>
<event>
 7    1  0.6841384E-013  0.5930217E+02  0.7816164E-02  0.1266604E+00
        -11   -1    0    0    0    0  0.00000000000E+00  0.00000000000E+00  0.45593999997E+02  0.45594000000E+02  0.51100000000E-03 0.  1.
         11   -1    0    0    0    0 -0.00000000000E+00 -0.00000000000E+00 -0.45593999997E+02  0.45594000000E+02  0.51100000000E-03 0. -1.
    9900012    2    1    2    0    0 -0.78143414861E+01 -0.25508694938E+02 -0.17462773874E+02  0.59302173655E+02  0.50000418784E+02 0.  0.
        -12    1    1    2    0    0  0.78143414861E+01  0.25508694938E+02  0.17462773874E+02  0.31885826345E+02  0.00000000000E+00 0.  1.
         11    1    3    3    0    0 -0.11243387357E+02  0.13983579339E+01 -0.13633954105E+02  0.17727207027E+02  0.51100000000E-03 0. -1.
        -11    1    3    3    0    0 -0.13415392410E+02 -0.85042383727E+01  0.18432376809E+01  0.15990383023E+02  0.51100000000E-03 0.  1.
         12    1    3    3    0    0  0.16844438282E+02 -0.18402814499E+02 -0.56720574496E+01  0.25584583605E+02  0.00000000000E+00 0. -1.
</event>
<event>
 7    1  0.6841384E-013  0.5930193E+02  0.7816164E-02  0.1266605E+00
        -11   -1    0    0    0    0  0.00000000000E+00  0.00000000000E+00  0.45593999997E+02  0.45594000000E+02  0.51100000000E-03 0. -1.
         11   -1    0    0    0    0 -0.00000000000E+00 -0.00000000000E+00 -0.45593999997E+02  0.45594000000E+02  0.51100000000E-03 0.  1.
    9900012    2    1    2    0    0 -0.31203067755E+02  0.18615090940E+00  0.65616823792E+01  0.59301925216E+02  0.49999965692E+02 0.  0.
        -12    1    1    2    0    0  0.31203067755E+02 -0.18615090940E+00 -0.65616823792E+01  0.31886074784E+02  0.00000000000E+00 0.  1.
         11    1    3    3    0    0 -0.81731741459E+01 -0.92612278546E+01  0.29215931678E+00  0.12355422871E+02  0.51100000000E-03 0. -1.
        -11    1    3    3    0    0 -0.40603618963E+00  0.14722255255E+02 -0.10677563444E+02  0.18191207397E+02  0.51100000000E-03 0.  1.
         12    1    3    3    0    0 -0.22623857419E+02 -0.52748764912E+01  0.16947086506E+02  0.28755294949E+02  0.00000000000E+00 0. -1.
</event>
<event>
 7    1  0.6841384E-013  0.5930196E+02  0.7816164E-02  0.1266605E+00
        -11   -1    0    0    0    0  0.00000000000E+00  0.00000000000E+00  0.45593999997E+02  0.45594000000E+02  0.51100000000E-03 0. -1.
         11   -1    0    0    0    0 -0.00000000000E+00 -0.00000000000E+00 -0.45593999997E+02  0.45594000000E+02  0.51100000000E-03 0.  1.
    9900012    2    1    2    0    0  0.30082796081E+02 -0.88723992523E+01  0.57468007881E+01  0.59301955908E+02  0.50000021667E+02 0.  0.
        -12    1    1    2    0    0 -0.30082796081E+02  0.88723992523E+01 -0.57468007881E+01  0.31886044092E+02  0.00000000000E+00 0.  1.
         11    1    3    3    0    0  0.76537614340E+01  0.33371776430E+01 -0.72671715794E+01  0.11069263830E+02  0.51100000000E-03 0. -1.
        -11    1    3    3    0    0  0.13334417605E+02 -0.10252937526E+01 -0.12898556033E+02  0.18580383961E+02  0.51100000000E-03 0.  1.
         12    1    3    3    0    0  0.90946170424E+01 -0.11184283143E+02  0.25912528401E+02  0.29652308117E+02  0.00000000000E+00 0. -1.
</event>
<event>
 7    1  0.6841384E-013  0.5930192E+02  0.7816164E-02  0.1266605E+00
        -11   -1    0    0    0    0  0.00000000000E+00  0.00000000000E+00  0.45593999997E+02  0.45594000000E+02  0.51100000000E-03 0. -1.
         11   -1    0    0    0    0 -0.00000000000E+00 -0.00000000000E+00 -0.45593999997E+02  0.45594000000E+02  0.51100000000E-03 0.  1.
    9900012    2    1    2    0    0  0.20174257052E+02  0.27334936329E+01  0.24540770628E+02  0.59301920623E+02  0.49999957315E+02 0.  0.
        -12    1    1    2    0    0 -0.20174257052E+02 -0.27334936329E+01 -0.24540770628E+02  0.31886079377E+02  0.00000000000E+00 0.  1.
         11    1    3    3    0    0  0.32891061632E+00  0.12072514079E+02 -0.45602001272E+01  0.12909268137E+02  0.51100000000E-03 0. -1.
        -11    1    3    3    0    0  0.19854358798E+02  0.89306688637E+00  0.54269601609E+01  0.20602063698E+02  0.51100000000E-03 0.  1.
         12    1    3    3    0    0 -0.90123629101E-02 -0.10232087332E+02  0.23674010595E+02  0.25790588788E+02  0.00000000000E+00 0. -1.
</event>
<event>
 7    1  0.6841384E-013  0.5930192E+02  0.7816164E-02  0.1266605E+00
        -11   -1    0    0    0    0  0.00000000000E+00  0.00000000000E+00  0.45593999997E+02  0.45594000000E+02  0.51100000000E-03 0. -1.
         11   -1    0    0    0    0 -0.00000000000E+00 -0.00000000000E+00 -0.45593999997E+02  0.45594000000E+02  0.51100000000E-03 0.  1.
    9900012    2    1    2    0    0 -0.17105250051E+02 -0.93173858466E+01  0.25245168632E+02  0.59301924708E+02  0.49999964765E+02 0.  0.
        -12    1    1    2    0    0  0.17105250051E+02  0.93173858466E+01 -0.25245168632E+02  0.31886075292E+02  0.00000000000E+00 0.  1.
         11    1    3    3    0    0 -0.87356851018E+00  0.95315951194E+00 -0.33745962235E+01  0.36137978540E+01  0.51100000000E-03 0. -1.
        -11    1    3    3    0    0  0.13395134893E+02  0.42491553608E+01  0.42867821764E+01  0.14692224534E+02  0.51100000000E-03 0.  1.
         12    1    3    3    0    0 -0.29626816433E+02 -0.14519700719E+02  0.24332982679E+02  0.40995902319E+02  0.00000000000E+00 0. -1.
</event>
<event>
 7    1  0.6841384E-013  0.5930194E+02  0.7816164E-02  0.1266605E+00
        -11   -1    0    0    0    0  0.00000000000E+00  0.00000000000E+00  0.45593999997E+02  0.45594000000E+02  0.51100000000E-03 0. -1.
         11   -1    0    0    0    0 -0.00000000000E+00 -0.00000000000E+00 -0.45593999997E+02  0.45594000000E+02  0.51100000000E-03 0.  1.
    9900012    2    1    2    0    0  0.22441080728E+02 -0.14977812448E+02  0.16993645694E+02  0.59301937780E+02  0.49999988605E+02 0.  0.
        -12    1    1    2    0    0 -0.22441080728E+02  0.14977812448E+02 -0.16993645694E+02  0.31886062220E+02  0.00000000000E+00 0.  1.
         11    1    3    3    0    0  0.19029444394E+02  0.82948251061E+01  0.12742468797E+02  0.24357635123E+02  0.51100000000E-03 0. -1.
        -11    1    3    3    0    0  0.61172302889E+01  0.32285189884E+01  0.45933862598E+01  0.83031944972E+01  0.51100000000E-03 0.  1.
        -12    1    3    3    0    0 -0.27055939548E+01 -0.26501156543E+02 -0.34220936277E+00  0.26641108160E+02  0.00000000000E+00 0.  1.
</event>
<event>
 7    1  0.6841384E-013  0.5930190E+02  0.7816164E-02  0.1266605E+00
        -11   -1    0    0    0    0  0.00000000000E+00  0.00000000000E+00  0.45593999997E+02  0.45594000000E+02  0.51100000000E-03 0.  1.
         11   -1    0    0    0    0 -0.00000000000E+00 -0.00000000000E+00 -0.45593999997E+02  0.45594000000E+02  0.51100000000E-03 0. -1.
    9900012    2    1    2    0    0 -0.19912507775E+00  0.14141195510E+02 -0.28578141498E+02  0.59301902203E+02  0.49999923721E+02 0.  0.
        -12    1    1    2    0    0  0.19912507775E+00 -0.14141195510E+02  0.28578141498E+02  0.31886097797E+02  0.00000000000E+00 0.  1.
         11    1    3    3    0    0 -0.51354066046E+01 -0.38435203877E+00 -0.30439335969E+02  0.30871885301E+02  0.51100000000E-03 0. -1.
        -11    1    3    3    0    0 -0.62815535489E+01  0.67579472740E+01 -0.74938572853E+01  0.11886364609E+02  0.51100000000E-03 0.  1.
        -12    1    3    3    0    0  0.11217835076E+02  0.77676002752E+01  0.93550517568E+01  0.16543652293E+02  0.00000000000E+00 0.  1.
</event>
<event>
 7    1  0.6841384E-013  0.5930197E+02  0.7816164E-02  0.1266605E+00
        -11   -1    0    0    0    0  0.00000000000E+00  0.00000000000E+00  0.45593999997E+02  0.45594000000E+02  0.51100000000E-03 0.  1.
         11   -1    0    0    0    0 -0.00000000000E+00 -0.00000000000E+00 -0.45593999997E+02  0.45594000000E+02  0.51100000000E-03 0. -1.
    9900012    2    1    2    0    0  0.31625818587E+02 -0.19828316942E+01 -0.35489048727E+01  0.59301972518E+02  0.50000051959E+02 0.  0.
        -12    1    1    2    0    0 -0.31625818587E+02  0.19828316942E+01  0.35489048727E+01  0.31886027482E+02  0.00000000000E+00 0.  1.
         11    1    3    3    0    0  0.29868470496E+02 -0.11331963932E+02 -0.63121542650E+01  0.32563510684E+02  0.51100000000E-03 0. -1.
        -11    1    3    3    0    0  0.12079554548E+02  0.99978004337E+01  0.43556882698E+01  0.16274018316E+02  0.51100000000E-03 0.  1.
        -12    1    3    3    0    0 -0.10322206457E+02 -0.64866819578E+00 -0.15924388775E+01  0.10464443518E+02  0.00000000000E+00 0.  1.
</event>
<event>
 7    1  0.6841384E-013  0.5930195E+02  0.7816164E-02  0.1266605E+00
        -11   -1    0    0    0    0  0.00000000000E+00  0.00000000000E+00  0.45593999997E+02  0.45594000000E+02  0.51100000000E-03 0.  1.
         11   -1    0    0    0    0 -0.00000000000E+00 -0.00000000000E+00 -0.45593999997E+02  0.45594000000E+02  0.51100000000E-03 0. -1.
    9900012    2    1    2    0    0 -0.29957423871E+02  0.67081257972E+01 -0.86182189773E+01  0.59301954540E+02  0.50000019172E+02 0.  0.
        -12    1    1    2    0    0  0.29957423871E+02 -0.67081257972E+01  0.86182189773E+01  0.31886045460E+02  0.00000000000E+00 0.  1.
         11    1    3    3    0    0 -0.26375355669E+02  0.29987820808E+01  0.98371362680E+01  0.28309385914E+02  0.51100000000E-03 0. -1.
        -11    1    3    3    0    0  0.44646411035E+01  0.18601208212E+01  0.44946041883E+01  0.66026159000E+01  0.51100000000E-03 0.  1.
         12    1    3    3    0    0 -0.80467093057E+01  0.18492228951E+01 -0.22949959434E+02  0.24389952726E+02  0.00000000000E+00 0. -1.
</event>
<event>
 7    1  0.6841384E-013  0.5930195E+02  0.7816164E-02  0.1266605E+00
        -11   -1    0    0    0    0  0.00000000000E+00  0.00000000000E+00  0.45593999997E+02  0.45594000000E+02  0.51100000000E-03 0. -1.
         11   -1    0    0    0    0 -0.00000000000E+00 -0.00000000000E+00 -0.45593999997E+02  0.45594000000E+02  0.51100000000E-03 0.  1.
    9900012    2    1    2    0    0  0.11992974299E+02  0.15950001426E+02 -0.24869382438E+02  0.59301950372E+02  0.50000011570E+02 0.  0.
        -12    1    1    2    0    0 -0.11992974299E+02 -0.15950001426E+02  0.24869382438E+02  0.31886049628E+02  0.00000000000E+00 0.  1.
         11    1    3    3    0    0 -0.30892991482E+01 -0.67796405535E+01 -0.11039124006E+02  0.13318016156E+02  0.51100000000E-03 0. -1.
        -11    1    3    3    0    0  0.87891304916E+01  0.65362026682E-01 -0.19845881769E+02  0.21705117148E+02  0.51100000000E-03 0.  1.
         12    1    3    3    0    0  0.62931429558E+01  0.22664279953E+02  0.60156233363E+01  0.24278817067E+02  0.00000000000E+00 0. -1.
</event>
<event>
 7    1  0.6841384E-013  0.5930193E+02  0.7816164E-02  0.1266605E+00
        -11   -1    0    0    0    0  0.00000000000E+00  0.00000000000E+00  0.45593999997E+02  0.45594000000E+02  0.51100000000E-03 0. -1.
         11   -1    0    0    0    0 -0.00000000000E+00 -0.00000000000E+00 -0.45593999997E+02  0.45594000000E+02  0.51100000000E-03 0.  1.
    9900012    2    1    2    0    0 -0.30478745430E+02 -0.70968368265E+01  0.61157301176E+01  0.59301934536E+02  0.49999982689E+02 0.  0.
        -12    1    1    2    0    0  0.30478745430E+02  0.70968368265E+01 -0.61157301176E+01  0.31886065464E+02  0.00000000000E+00 0.  1.
         11    1    3    3    0    0 -0.30141140679E+02 -0.13671194273E+02  0.61090243041E+01  0.33655758682E+02  0.51100000000E-03 0. -1.
        -11    1    3    3    0    0  0.51699012337E+00 -0.36545273251E+01  0.10401864216E+02  0.11037283551E+02  0.51100000000E-03 0.  1.
        -12    1    3    3    0    0 -0.85459487438E+00  0.10228884771E+02 -0.10395158403E+02  0.14608892302E+02  0.00000000000E+00 0.  1.
</event>
<event>
 7    1  0.6841384E-013  0.5930197E+02  0.7816164E-02  0.1266605E+00
        -11   -1    0    0    0    0  0.00000000000E+00  0.00000000000E+00  0.45593999997E+02  0.45594000000E+02  0.51100000000E-03 0.  1.
         11   -1    0    0    0    0 -0.00000000000E+00 -0.00000000000E+00 -0.45593999997E+02  0.45594000000E+02  0.51100000000E-03 0. -1.
    9900012    2    1    2    0    0  0.78033570297E+01  0.12389391184E+02 -0.28325425527E+02  0.59301966598E+02  0.50000041162E+02 0.  0.
        -12    1    1    2    0    0 -0.78033570297E+01 -0.12389391184E+02  0.28325425527E+02  0.31886033402E+02  0.00000000000E+00 0.  1.
         11    1    3    3    0    0  0.10732146120E+01 -0.17438576326E+02 -0.14274760105E+02  0.22561571536E+02  0.51100000000E-03 0. -1.
        -11    1    3    3    0    0 -0.45361597576E+01  0.73186186724E+01 -0.51973983275E+01  0.10057428809E+02  0.51100000000E-03 0.  1.
        -12    1    3    3    0    0  0.11266302175E+02  0.22509348837E+02 -0.88532670947E+01  0.26682966252E+02  0.00000000000E+00 0.  1.
</event>
<event>
 7    1  0.6841384E-013  0.5930200E+02  0.7816164E-02  0.1266605E+00
        -11   -1    0    0    0    0  0.00000000000E+00  0.00000000000E+00  0.45593999997E+02  0.45594000000E+02  0.51100000000E-03 0.  1.
         11   -1    0    0    0    0 -0.00000000000E+00 -0.00000000000E+00 -0.45593999997E+02  0.45594000000E+02  0.51100000000E-03 0. -1.
    9900012    2    1    2    0    0  0.18405204220E+02 -0.14854733002E+02 -0.21384635800E+02  0.59301995496E+02  0.50000093865E+02 0.  0.
        -12    1    1    2    0    0 -0.18405204220E+02  0.14854733002E+02  0.21384635800E+02  0.31886004504E+02  0.00000000000E+00 0.  1.
         11    1    3    3    0    0  0.54868152554E+01 -0.12670737723E+01 -0.37950522931E+01  0.67906582714E+01  0.51100000000E-03 0. -1.
        -11    1    3    3    0    0  0.28751127252E+02 -0.29318336301E+01 -0.16760693237E+02  0.33408738449E+02  0.51100000000E-03 0.  1.
        -12    1    3    3    0    0 -0.15832738288E+02 -0.10655825600E+02 -0.82889027052E+00  0.19102598776E+02  0.00000000000E+00 0.  1.
</event>
<event>
 7    1  0.6841384E-013  0.5930162E+02  0.7816164E-02  0.1266606E+00
        -11   -1    0    0    0    0  0.00000000000E+00  0.00000000000E+00  0.45593999997E+02  0.45594000000E+02  0.51100000000E-03 0.  1.
         11   -1    0    0    0    0 -0.00000000000E+00 -0.00000000000E+00 -0.45593999997E+02  0.45594000000E+02  0.51100000000E-03 0. -1.
    9900012    2    1    2    0    0  0.25174506844E+02  0.99405776773E+01  0.16857344384E+02  0.59301624554E+02  0.49999417353E+02 0.  0.
        -12    1    1    2    0    0 -0.25174506844E+02 -0.99405776773E+01 -0.16857344384E+02  0.31886375446E+02  0.00000000000E+00 0.  1.
         11    1    3    3    0    0  0.93588236000E+01 -0.22029577740E+01  0.56327094331E+01  0.11143070400E+02  0.51100000000E-03 0. -1.
        -11    1    3    3    0    0  0.83953703436E+01  0.11644671175E+02  0.27077698403E+02  0.30647713799E+02  0.51100000000E-03 0.  1.
        -12    1    3    3    0    0  0.74203129006E+01  0.49886427598E+00 -0.15853063452E+02  0.17510840355E+02  0.00000000000E+00 0.  1.
</event>
<event>
 7    1  0.6841384E-013  0.5930195E+02  0.7816164E-02  0.1266605E+00
        -11   -1    0    0    0    0  0.00000000000E+00  0.00000000000E+00  0.45593999997E+02  0.45594000000E+02  0.51100000000E-03 0.  1.
         11   -1    0    0    0    0 -0.00000000000E+00 -0.00000000000E+00 -0.45593999997E+02  0.45594000000E+02  0.51100000000E-03 0. -1.
    9900012    2    1    2    0    0  0.15966969029E+02 -0.25868152250E+02 -0.96236674324E+01  0.59301947004E+02  0.50000005428E+02 0.  0.
        -12    1    1    2    0    0 -0.15966969029E+02  0.25868152250E+02  0.96236674324E+01  0.31886052996E+02  0.00000000000E+00 0.  1.
         11    1    3    3    0    0  0.20293120220E+02 -0.24164149502E+01 -0.79392552262E+01  0.21924451265E+02  0.51100000000E-03 0. -1.
        -11    1    3    3    0    0  0.38232939458E+01 -0.44032716051E+01  0.11447910346E+02  0.12847607908E+02  0.51100000000E-03 0.  1.
        -12    1    3    3    0    0 -0.81494451367E+01 -0.19048465695E+02 -0.13132322552E+02  0.24529887830E+02  0.00000000000E+00 0.  1.
</event>
<event>
 7    1  0.6841384E-013  0.5930199E+02  0.7816164E-02  0.1266605E+00
        -11   -1    0    0    0    0  0.00000000000E+00  0.00000000000E+00  0.45593999997E+02  0.45594000000E+02  0.51100000000E-03 0.  1.
         11   -1    0    0    0    0 -0.00000000000E+00 -0.00000000000E+00 -0.45593999997E+02  0.45594000000E+02  0.51100000000E-03 0. -1.
    9900012    2    1    2    0    0  0.30864729331E+02  0.41027125195E+01 -0.68741295534E+01  0.59301993292E+02  0.50000089846E+02 0.  0.
        -12    1    1    2    0    0 -0.30864729331E+02 -0.41027125195E+01  0.68741295534E+01  0.31886006708E+02  0.00000000000E+00 0.  1.
         11    1    3    3    0    0  0.12115457094E+02  0.13019039174E+02 -0.17947510076E+02  0.25266436231E+02  0.51100000000E-03 0. -1.
        -11    1    3    3    0    0 -0.19457131208E+01  0.16339779584E+01 -0.51223234466E+01  0.57178563526E+01  0.51100000000E-03 0.  1.
        -12    1    3    3    0    0  0.20694985357E+02 -0.10550304613E+02  0.16195703969E+02  0.28317700708E+02  0.00000000000E+00 0.  1.
</event>
<event>
 7    1  0.6841384E-013  0.5930194E+02  0.7816164E-02  0.1266605E+00
        -11   -1    0    0    0    0  0.00000000000E+00  0.00000000000E+00  0.45593999997E+02  0.45594000000E+02  0.51100000000E-03 0.  1.
         11   -1    0    0    0    0 -0.00000000000E+00 -0.00000000000E+00 -0.45593999997E+02  0.45594000000E+02  0.51100000000E-03 0. -1.
    9900012    2    1    2    0    0  0.27487771109E+02  0.37139845105E+00  0.16155650334E+02  0.59301944504E+02  0.50000000869E+02 0.  0.
        -12    1    1    2    0    0 -0.27487771109E+02 -0.37139845105E+00 -0.16155650334E+02  0.31886055496E+02  0.00000000000E+00 0.  1.
         11    1    3    3    0    0  0.10264706919E+02  0.28045114234E+01  0.19965141195E+02  0.22623800646E+02  0.51100000000E-03 0.  1.
        -11    1    3    3    0    0  0.20900944663E+02 -0.13223092127E+02 -0.24327815887E+00  0.24733759070E+02  0.51100000000E-03 0. -1.
         12    1    3    3    0    0 -0.36778804729E+01  0.10789979155E+02 -0.35662127030E+01  0.11944384788E+02  0.00000000000E+00 0. -1.
</event>
<event>
 7    1  0.6841384E-013  0.5930195E+02  0.7816164E-02  0.1266605E+00
        -11   -1    0    0    0    0  0.00000000000E+00  0.00000000000E+00  0.45593999997E+02  0.45594000000E+02  0.51100000000E-03 0. -1.
         11   -1    0    0    0    0 -0.00000000000E+00 -0.00000000000E+00 -0.45593999997E+02  0.45594000000E+02  0.51100000000E-03 0.  1.
    9900012    2    1    2    0    0 -0.13989465463E+02  0.28619448024E+02  0.13935467081E+01  0.59301954125E+02  0.50000018415E+02 0.  0.
        -12    1    1    2    0    0  0.13989465463E+02 -0.28619448024E+02 -0.13935467081E+01  0.31886045875E+02  0.00000000000E+00 0.  1.
         11    1    3    3    0    0  0.74004104166E+01 -0.15743242706E+01  0.90574025101E+01  0.11801741894E+02  0.51100000000E-03 0. -1.
        -11    1    3    3    0    0  0.43037963113E+01  0.10212805991E+01  0.49428069861E+01  0.66330247937E+01  0.51100000000E-03 0.  1.
        -12    1    3    3    0    0 -0.25693672191E+02  0.29172491695E+02 -0.12606662788E+02  0.40867187437E+02  0.00000000000E+00 0.  1.
</event>
<event>
 7    1  0.6841384E-013  0.5930196E+02  0.7816164E-02  0.1266605E+00
        -11   -1    0    0    0    0  0.00000000000E+00  0.00000000000E+00  0.45593999997E+02  0.45594000000E+02  0.51100000000E-03 0.  1.
         11   -1    0    0    0    0 -0.00000000000E+00 -0.00000000000E+00 -0.45593999997E+02  0.45594000000E+02  0.51100000000E-03 0. -1.
    9900012    2    1    2    0    0  0.31170701323E+02 -0.61982360027E+01  0.25862257119E+01  0.59301963653E+02  0.50000035791E+02 0.  0.
        -12    1    1    2    0    0 -0.31170701323E+02  0.61982360027E+01 -0.25862257119E+01  0.31886036347E+02  0.00000000000E+00 0.  1.
         11    1    3    3    0    0  0.34308073850E+01 -0.10695321093E+02 -0.26343651476E+01  0.11536906543E+02  0.51100000000E-03 0. -1.
        -11    1    3    3    0    0  0.23409027103E+02 -0.85412332516E+01 -0.10365185888E+02  0.26988373314E+02  0.51100000000E-03 0.  1.
        -12    1    3    3    0    0  0.43308668351E+01  0.13038318342E+02  0.15585776748E+02  0.20776683796E+02  0.00000000000E+00 0.  1.
</event>
<event>
 7    1  0.6841384E-013  0.5930194E+02  0.7816164E-02  0.1266605E+00
        -11   -1    0    0    0    0  0.00000000000E+00  0.00000000000E+00  0.45593999997E+02  0.45594000000E+02  0.51100000000E-03 0. -1.
         11   -1    0    0    0    0 -0.00000000000E+00 -0.00000000000E+00 -0.45593999997E+02  0.45594000000E+02  0.51100000000E-03 0.  1.
    9900012    2    1    2    0    0  0.27380200639E+02 -0.16287655095E+02  0.13257644049E+01  0.59301941185E+02  0.49999994815E+02 0.  0.
        -12    1    1    2    0    0 -0.27380200639E+02  0.16287655095E+02 -0.13257644049E+01  0.31886058815E+02  0.00000000000E+00 0.  1.
         11    1    3    3    0    0 -0.24866140900E+01 -0.19848440141E+01  0.10622429075E+02  0.11088681397E+02  0.51100000000E-03 0. -1.
        -11    1    3    3    0    0  0.19755476561E+02 -0.98948406322E+01  0.11323976175E+02  0.24827790114E+02  0.51100000000E-03 0.  1.
        -12    1    3    3    0    0  0.10111338168E+02 -0.44079704484E+01 -0.20620640845E+02  0.23385469674E+02  0.00000000000E+00 0.  1.
</event>
<event>
 7    1  0.6841384E-013  0.5930195E+02  0.7816164E-02  0.1266605E+00
        -11   -1    0    0    0    0  0.00000000000E+00  0.00000000000E+00  0.45593999997E+02  0.45594000000E+02  0.51100000000E-03 0.  1.
         11   -1    0    0    0    0 -0.00000000000E+00 -0.00000000000E+00 -0.45593999997E+02  0.45594000000E+02  0.51100000000E-03 0. -1.
    9900012    2    1    2    0    0  0.46531775794E+01  0.27130503033E+02 -0.16093608102E+02  0.59301945397E+02  0.50000002497E+02 0.  0.
        -12    1    1    2    0    0 -0.46531775794E+01 -0.27130503033E+02  0.16093608102E+02  0.31886054603E+02  0.00000000000E+00 0.  1.
         11    1    3    3    0    0 -0.63575913000E+01  0.15221613686E+02 -0.14559912970E+02  0.22002444325E+02  0.51100000000E-03 0. -1.
        -11    1    3    3    0    0  0.15643601097E+00 -0.11463599097E+02 -0.12011464657E+01  0.11527416431E+02  0.51100000000E-03 0.  1.
         12    1    3    3    0    0  0.10854332868E+02  0.23372488444E+02 -0.33254866622E+00  0.25772084640E+02  0.00000000000E+00 0. -1.
</event>
<event>
 7    1  0.6841384E-013  0.5930195E+02  0.7816164E-02  0.1266605E+00
        -11   -1    0    0    0    0  0.00000000000E+00  0.00000000000E+00  0.45593999997E+02  0.45594000000E+02  0.51100000000E-03 0.  1.
         11   -1    0    0    0    0 -0.00000000000E+00 -0.00000000000E+00 -0.45593999997E+02  0.45594000000E+02  0.51100000000E-03 0. -1.
    9900012    2    1    2    0    0  0.21007219045E+02 -0.14397316896E+02 -0.19186831701E+02  0.59301945109E+02  0.50000001971E+02 0.  0.
        -12    1    1    2    0    0 -0.21007219045E+02  0.14397316896E+02  0.19186831701E+02  0.31886054891E+02  0.00000000000E+00 0.  1.
         11    1    3    3    0    0  0.62777029613E+00 -0.14645824289E+02 -0.11345347848E+02  0.18536752216E+02  0.51100000000E-03 0. -1.
        -11    1    3    3    0    0  0.17273591571E+02  0.51188540897E+01  0.10965715042E+02  0.21090911304E+02  0.51100000000E-03 0.  1.
         12    1    3    3    0    0  0.31058571775E+01 -0.48703466968E+01 -0.18807198896E+02  0.19674281589E+02  0.00000000000E+00 0. -1.
</event>
<event>
 7    1  0.6841384E-013  0.5930194E+02  0.7816164E-02  0.1266605E+00
        -11   -1    0    0    0    0  0.00000000000E+00  0.00000000000E+00  0.45593999997E+02  0.45594000000E+02  0.51100000000E-03 0. -1.
         11   -1    0    0    0    0 -0.00000000000E+00 -0.00000000000E+00 -0.45593999997E+02  0.45594000000E+02  0.51100000000E-03 0.  1.
    9900012    2    1    2    0    0 -0.60526312930E+01  0.19189798168E+02  0.24735356832E+02  0.59301943848E+02  0.49999999673E+02 0.  0.
        -12    1    1    2    0    0  0.60526312930E+01 -0.19189798168E+02 -0.24735356832E+02  0.31886056152E+02  0.00000000000E+00 0.  1.
         11    1    3    3    0    0 -0.69027252938E+01  0.26456777800E+02  0.23311254543E+02  0.35930812636E+02  0.51100000000E-03 0. -1.
        -11    1    3    3    0    0 -0.80616628503E+01  0.10637409552E+01  0.62460378891E+01  0.10253533162E+02  0.51100000000E-03 0.  1.
        -12    1    3    3    0    0  0.89117568511E+01 -0.83307205874E+01 -0.48219355999E+01  0.13117598050E+02  0.00000000000E+00 0.  1.
</event>
<event>
 7    1  0.6841384E-013  0.5930194E+02  0.7816164E-02  0.1266605E+00
        -11   -1    0    0    0    0  0.00000000000E+00  0.00000000000E+00  0.45593999997E+02  0.45594000000E+02  0.51100000000E-03 0.  1.
         11   -1    0    0    0    0 -0.00000000000E+00 -0.00000000000E+00 -0.45593999997E+02  0.45594000000E+02  0.51100000000E-03 0. -1.
    9900012    2    1    2    0    0  0.31070796457E+02  0.67653460010E+01 -0.23572353989E+01  0.59301939445E+02  0.49999991643E+02 0.  0.
        -12    1    1    2    0    0 -0.31070796457E+02 -0.67653460010E+01  0.23572353989E+01  0.31886060555E+02  0.00000000000E+00 0.  1.
         11    1    3    3    0    0  0.14598495134E+02 -0.60384311906E+01 -0.14262826096E+02  0.21283959216E+02  0.51100000000E-03 0. -1.
        -11    1    3    3    0    0 -0.29537757462E+01  0.11070255292E+02 -0.47184727370E+01  0.12391098765E+02  0.51100000000E-03 0.  1.
         12    1    3    3    0    0  0.19426077069E+02  0.17335218999E+01  0.16624063434E+02  0.25626881463E+02  0.00000000000E+00 0. -1.
</event>
<event>
 7    1  0.6841384E-013  0.5930204E+02  0.7816164E-02  0.1266604E+00
        -11   -1    0    0    0    0  0.00000000000E+00  0.00000000000E+00  0.45593999997E+02  0.45594000000E+02  0.51100000000E-03 0.  1.
         11   -1    0    0    0    0 -0.00000000000E+00 -0.00000000000E+00 -0.45593999997E+02  0.45594000000E+02  0.51100000000E-03 0. -1.
    9900012    2    1    2    0    0  0.15304327965E+02 -0.91236748658E+01 -0.26443341784E+02  0.59302043495E+02  0.50000181404E+02 0.  0.
        -12    1    1    2    0    0 -0.15304327965E+02  0.91236748658E+01  0.26443341784E+02  0.31885956505E+02  0.00000000000E+00 0.  1.
         11    1    3    3    0    0  0.11407409185E+02  0.93325785323E+01 -0.16054678917E+02  0.21794006556E+02  0.51100000000E-03 0. -1.
        -11    1    3    3    0    0  0.11342932207E+02 -0.11394204917E+02 -0.18439660564E+02  0.24464486480E+02  0.51100000000E-03 0.  1.
        -12    1    3    3    0    0 -0.74460134266E+01 -0.70620484807E+01  0.80509976962E+01  0.13043550460E+02  0.00000000000E+00 0.  1.
</event>
<event>
 7    1  0.6841384E-013  0.5930194E+02  0.7816164E-02  0.1266605E+00
        -11   -1    0    0    0    0  0.00000000000E+00  0.00000000000E+00  0.45593999997E+02  0.45594000000E+02  0.51100000000E-03 0.  1.
         11   -1    0    0    0    0 -0.00000000000E+00 -0.00000000000E+00 -0.45593999997E+02  0.45594000000E+02  0.51100000000E-03 0. -1.
    9900012    2    1    2    0    0 -0.22837451443E+02 -0.18362602429E+02 -0.12569273511E+02  0.59301937324E+02  0.49999987774E+02 0.  0.
        -12    1    1    2    0    0  0.22837451443E+02  0.18362602429E+02  0.12569273511E+02  0.31886062676E+02  0.00000000000E+00 0.  1.
         11    1    3    3    0    0 -0.12893813337E+02 -0.28328009670E+02  0.85645631644E-01  0.31124490192E+02  0.51100000000E-03 0. -1.
        -11    1    3    3    0    0 -0.11251205841E+01  0.18542318490E+01  0.57898454054E+01  0.61827487542E+01  0.51100000000E-03 0.  1.
         12    1    3    3    0    0 -0.88185175220E+01  0.81111753919E+01 -0.18444764548E+02  0.21994698378E+02  0.00000000000E+00 0. -1.
</event>
<event>
 7    1  0.6841384E-013  0.5930193E+02  0.7816164E-02  0.1266605E+00
        -11   -1    0    0    0    0  0.00000000000E+00  0.00000000000E+00  0.45593999997E+02  0.45594000000E+02  0.51100000000E-03 0.  1.
         11   -1    0    0    0    0 -0.00000000000E+00 -0.00000000000E+00 -0.45593999997E+02  0.45594000000E+02  0.51100000000E-03 0. -1.
    9900012    2    1    2    0    0  0.92114869313E+01  0.30207370969E+02  0.44027757391E+01  0.59301934289E+02  0.49999982238E+02 0.  0.
        -12    1    1    2    0    0 -0.92114869313E+01 -0.30207370969E+02 -0.44027757391E+01  0.31886065711E+02  0.00000000000E+00 0.  1.
         11    1    3    3    0    0  0.16346846340E+02  0.46121617210E+01 -0.75385511050E+01  0.18582819324E+02  0.51100000000E-03 0. -1.
        -11    1    3    3    0    0  0.38580960148E+01  0.13854726485E+02  0.18428434735E+02  0.23376175005E+02  0.51100000000E-03 0.  1.
         12    1    3    3    0    0 -0.10993455423E+02  0.11740482763E+02 -0.64871078910E+01  0.17342939959E+02  0.00000000000E+00 0. -1.
</event>
<event>
 7    1  0.6841384E-013  0.5930195E+02  0.7816164E-02  0.1266605E+00
        -11   -1    0    0    0    0  0.00000000000E+00  0.00000000000E+00  0.45593999997E+02  0.45594000000E+02  0.51100000000E-03 0.  1.
         11   -1    0    0    0    0 -0.00000000000E+00 -0.00000000000E+00 -0.45593999997E+02  0.45594000000E+02  0.51100000000E-03 0. -1.
    9900012    2    1    2    0    0  0.22981132971E+02 -0.18228132630E+02  0.12502920554E+02  0.59301947968E+02  0.50000007186E+02 0.  0.
        -12    1    1    2    0    0 -0.22981132971E+02  0.18228132630E+02 -0.12502920554E+02  0.31886052032E+02  0.00000000000E+00 0.  1.
         11    1    3    3    0    0  0.16679800297E+02  0.30106380806E+01  0.14175117262E+02  0.22095556776E+02  0.51100000000E-03 0. -1.
        -11    1    3    3    0    0  0.10991781143E+02  0.30101434853E+01  0.35999761068E+01  0.11951570806E+02  0.51100000000E-03 0.  1.
        -12    1    3    3    0    0 -0.46904484690E+01 -0.24248914196E+02 -0.52721728152E+01  0.25254820386E+02  0.00000000000E+00 0.  1.
</event>
<event>
 7    1  0.6841384E-013  0.5930185E+02  0.7816164E-02  0.1266605E+00
        -11   -1    0    0    0    0  0.00000000000E+00  0.00000000000E+00  0.45593999997E+02  0.45594000000E+02  0.51100000000E-03 0. -1.
         11   -1    0    0    0    0 -0.00000000000E+00 -0.00000000000E+00 -0.45593999997E+02  0.45594000000E+02  0.51100000000E-03 0.  1.
    9900012    2    1    2    0    0  0.25491197899E+02 -0.18916165522E+02  0.30173086888E+01  0.59301848773E+02  0.49999826278E+02 0.  0.
        -12    1    1    2    0    0 -0.25491197899E+02  0.18916165522E+02 -0.30173086888E+01  0.31886151227E+02  0.00000000000E+00 0.  1.
         11    1    3    3    0    0  0.21075378067E+00 -0.58989302942E+01  0.44187052294E+01  0.73733813096E+01  0.51100000000E-03 0. -1.
        -11    1    3    3    0    0 -0.52432179026E+01 -0.17044332779E+02 -0.93439465357E+01  0.20132311119E+02  0.51100000000E-03 0.  1.
         12    1    3    3    0    0  0.30523662021E+02  0.40270975517E+01  0.79425499952E+01  0.31796156344E+02  0.00000000000E+00 0. -1.
</event>
<event>
 7    1  0.6841384E-013  0.5930194E+02  0.7816164E-02  0.1266605E+00
        -11   -1    0    0    0    0  0.00000000000E+00  0.00000000000E+00  0.45593999997E+02  0.45594000000E+02  0.51100000000E-03 0.  1.
         11   -1    0    0    0    0 -0.00000000000E+00 -0.00000000000E+00 -0.45593999997E+02  0.45594000000E+02  0.51100000000E-03 0. -1.
    9900012    2    1    2    0    0 -0.13965117109E+01  0.31765901695E+02 -0.23870305626E+01  0.59301942382E+02  0.49999996999E+02 0.  0.
        -12    1    1    2    0    0  0.13965117109E+01 -0.31765901695E+02  0.23870305626E+01  0.31886057618E+02  0.00000000000E+00 0.  1.
         11    1    3    3    0    0  0.50033315158E+01  0.31981105101E+01 -0.16590168332E+02  0.17620866115E+02  0.51100000000E-03 0. -1.
        -11    1    3    3    0    0 -0.14019544928E+02  0.62484324427E+01  0.33055268443E+01  0.15700861631E+02  0.51100000000E-03 0.  1.
        -12    1    3    3    0    0  0.76197017012E+01  0.22319358743E+02  0.10897610925E+02  0.25980214637E+02  0.00000000000E+00 0.  1.
</event>
<event>
 7    1  0.6841384E-013  0.5930195E+02  0.7816164E-02  0.1266605E+00
        -11   -1    0    0    0    0  0.00000000000E+00  0.00000000000E+00  0.45593999997E+02  0.45594000000E+02  0.51100000000E-03 0.  1.
         11   -1    0    0    0    0 -0.00000000000E+00 -0.00000000000E+00 -0.45593999997E+02  0.45594000000E+02  0.51100000000E-03 0. -1.
    9900012    2    1    2    0    0  0.26956964737E+01 -0.27928125186E+02 -0.15148369994E+02  0.59301951807E+02  0.50000014188E+02 0.  0.
        -12    1    1    2    0    0 -0.26956964737E+01  0.27928125186E+02  0.15148369994E+02  0.31886048193E+02  0.00000000000E+00 0.  1.
         11    1    3    3    0    0  0.10745650964E+02 -0.23408482343E+02  0.26687524163E+01  0.25894947383E+02  0.51100000000E-03 0. -1.
        -11    1    3    3    0    0  0.42564166653E+01 -0.12090935626E+02 -0.40331164195E+01  0.13437776432E+02  0.51100000000E-03 0.  1.
        -12    1    3    3    0    0 -0.12306371156E+02  0.75712927831E+01 -0.13784005991E+02  0.19969227992E+02  0.00000000000E+00 0.  1.
</event>
<event>
 7    1  0.6841384E-013  0.5930180E+02  0.7816164E-02  0.1266605E+00
        -11   -1    0    0    0    0  0.00000000000E+00  0.00000000000E+00  0.45593999997E+02  0.45594000000E+02  0.51100000000E-03 0.  1.
         11   -1    0    0    0    0 -0.00000000000E+00 -0.00000000000E+00 -0.45593999997E+02  0.45594000000E+02  0.51100000000E-03 0. -1.
    9900012    2    1    2    0    0  0.23976048773E+01  0.20761380598E+02 -0.24082068624E+02  0.59301804513E+02  0.49999745557E+02 0.  0.
        -12    1    1    2    0    0 -0.23976048773E+01 -0.20761380598E+02  0.24082068624E+02  0.31886195487E+02  0.00000000000E+00 0.  1.
         11    1    3    3    0    0 -0.99255352982E+01  0.61410503415E+01  0.73290380098E+01  0.13782000895E+02  0.51100000000E-03 0. -1.
        -11    1    3    3    0    0 -0.90769765805E+00 -0.55568326973E+01 -0.15821099615E+02  0.16793138419E+02  0.51100000000E-03 0.  1.
         12    1    3    3    0    0  0.13230837834E+02  0.20177162953E+02 -0.15590007018E+02  0.28726665199E+02  0.00000000000E+00 0. -1.
</event>
<event>
 7    1  0.6841384E-013  0.5930194E+02  0.7816164E-02  0.1266605E+00
        -11   -1    0    0    0    0  0.00000000000E+00  0.00000000000E+00  0.45593999997E+02  0.45594000000E+02  0.51100000000E-03 0.  1.
         11   -1    0    0    0    0 -0.00000000000E+00 -0.00000000000E+00 -0.45593999997E+02  0.45594000000E+02  0.51100000000E-03 0. -1.
    9900012    2    1    2    0    0 -0.17975370865E+01  0.97892908056E+01 -0.30292893882E+02  0.59301940761E+02  0.49999994042E+02 0.  0.
        -12    1    1    2    0    0  0.17975370865E+01 -0.97892908056E+01  0.30292893882E+02  0.31886059239E+02  0.00000000000E+00 0.  1.
         11    1    3    3    0    0  0.45082891105E+01 -0.26540818058E+00 -0.35851361468E+02  0.36134681838E+02  0.51100000000E-03 0. -1.
        -11    1    3    3    0    0  0.20052326604E+01 -0.40716874354E+01  0.50213491113E+01  0.67685702887E+01  0.51100000000E-03 0.  1.
        -12    1    3    3    0    0 -0.83110588574E+01  0.14126386422E+02  0.53711847415E+00  0.16398688634E+02  0.00000000000E+00 0.  1.
</event>
<event>
 7    1  0.6841384E-013  0.5930191E+02  0.7816164E-02  0.1266605E+00
        -11   -1    0    0    0    0  0.00000000000E+00  0.00000000000E+00  0.45593999997E+02  0.45594000000E+02  0.51100000000E-03 0.  1.
         11   -1    0    0    0    0 -0.00000000000E+00 -0.00000000000E+00 -0.45593999997E+02  0.45594000000E+02  0.51100000000E-03 0. -1.
    9900012    2    1    2    0    0 -0.25435697793E+02 -0.18480909594E+02  0.53107416598E+01  0.59301910264E+02  0.49999938424E+02 0.  0.
        -12    1    1    2    0    0  0.25435697793E+02  0.18480909594E+02 -0.53107416598E+01  0.31886089736E+02  0.00000000000E+00 0.  1.
         11    1    3    3    0    0 -0.65448837287E+00 -0.14646777652E+02 -0.37148942272E+01  0.15124711237E+02  0.51100000000E-03 0. -1.
        -11    1    3    3    0    0 -0.12918301916E+02 -0.16133484429E+02  0.15572328604E+02  0.25877968673E+02  0.51100000000E-03 0.  1.
        -12    1    3    3    0    0 -0.11862907504E+02  0.12299352487E+02 -0.65466927173E+01  0.18299230355E+02  0.00000000000E+00 0.  1.
</event>
<event>
 7    1  0.6841384E-013  0.5930158E+02  0.7816164E-02  0.1266606E+00
        -11   -1    0    0    0    0  0.00000000000E+00  0.00000000000E+00  0.45593999997E+02  0.45594000000E+02  0.51100000000E-03 0.  1.
         11   -1    0    0    0    0 -0.00000000000E+00 -0.00000000000E+00 -0.45593999997E+02  0.45594000000E+02  0.51100000000E-03 0. -1.
    9900012    2    1    2    0    0 -0.16326271092E+02 -0.26212105117E+02  0.79449422429E+01  0.59301581423E+02  0.49999338691E+02 0.  0.
        -12    1    1    2    0    0  0.16326271092E+02  0.26212105117E+02 -0.79449422429E+01  0.31886418577E+02  0.00000000000E+00 0.  1.
         11    1    3    3    0    0  0.20734905574E+01 -0.13261642008E+02  0.13322666135E+02  0.18912005315E+02  0.51100000000E-03 0.  1.
        -11    1    3    3    0    0 -0.81878777696E+01 -0.22625981523E+02 -0.92820874834E+01  0.25790182833E+02  0.51100000000E-03 0. -1.
         12    1    3    3    0    0 -0.10211883880E+02  0.96755184136E+01  0.39043635912E+01  0.14599393275E+02  0.00000000000E+00 0. -1.
</event>
<event>
 7    1  0.6841384E-013  0.5930194E+02  0.7816164E-02  0.1266605E+00
        -11   -1    0    0    0    0  0.00000000000E+00  0.00000000000E+00  0.45593999997E+02  0.45594000000E+02  0.51100000000E-03 0.  1.
         11   -1    0    0    0    0 -0.00000000000E+00 -0.00000000000E+00 -0.45593999997E+02  0.45594000000E+02  0.51100000000E-03 0. -1.
    9900012    2    1    2    0    0  0.10228629987E+02  0.21308360025E+02 -0.21402103426E+02  0.59301935498E+02  0.49999984444E+02 0.  0.
        -12    1    1    2    0    0 -0.10228629987E+02 -0.21308360025E+02  0.21402103426E+02  0.31886064502E+02  0.00000000000E+00 0.  1.
         11    1    3    3    0    0  0.60189337049E+01  0.10352627769E+02  0.60419603738E+01  0.13413044028E+02  0.51100000000E-03 0. -1.
        -11    1    3    3    0    0 -0.61917805470E+01 -0.71548382087E+01  0.21155139759E+01  0.96956307571E+01  0.51100000000E-03 0.  1.
         12    1    3    3    0    0  0.10401476829E+02  0.18110570465E+02 -0.29559577776E+02  0.36193260713E+02  0.00000000000E+00 0. -1.
</event>
<event>
 7    1  0.6841384E-013  0.5930193E+02  0.7816164E-02  0.1266605E+00
        -11   -1    0    0    0    0  0.00000000000E+00  0.00000000000E+00  0.45593999997E+02  0.45594000000E+02  0.51100000000E-03 0. -1.
         11   -1    0    0    0    0 -0.00000000000E+00 -0.00000000000E+00 -0.45593999997E+02  0.45594000000E+02  0.51100000000E-03 0.  1.
    9900012    2    1    2    0    0  0.40416479842E+01 -0.22678902239E+02  0.22046625557E+02  0.59301933707E+02  0.49999981177E+02 0.  0.
        -12    1    1    2    0    0 -0.40416479842E+01  0.22678902239E+02 -0.22046625557E+02  0.31886066293E+02  0.00000000000E+00 0.  1.
         11    1    3    3    0    0  0.90555931216E+01 -0.15441730327E+02  0.24854220713E+02  0.30629774563E+02  0.51100000000E-03 0. -1.
        -11    1    3    3    0    0  0.99979894427E+01 -0.21512235435E+01  0.45552224063E+01  0.11195427953E+02  0.51100000000E-03 0.  1.
         12    1    3    3    0    0 -0.15011934580E+02 -0.50859483684E+01 -0.73628175621E+01  0.17476731190E+02  0.00000000000E+00 0. -1.
</event>
<event>
 7    1  0.6841384E-013  0.5930195E+02  0.7816164E-02  0.1266605E+00
        -11   -1    0    0    0    0  0.00000000000E+00  0.00000000000E+00  0.45593999997E+02  0.45594000000E+02  0.51100000000E-03 0.  1.
         11   -1    0    0    0    0 -0.00000000000E+00 -0.00000000000E+00 -0.45593999997E+02  0.45594000000E+02  0.51100000000E-03 0. -1.
    9900012    2    1    2    0    0 -0.59213023578E+01 -0.13233230171E+02 -0.28399652499E+02  0.59301945612E+02  0.50000002890E+02 0.  0.
        -12    1    1    2    0    0  0.59213023578E+01  0.13233230171E+02  0.28399652499E+02  0.31886054388E+02  0.00000000000E+00 0.  1.
         11    1    3    3    0    0  0.14830464909E+02  0.33175319576E+01 -0.15249536105E+02  0.21528981848E+02  0.51100000000E-03 0. -1.
        -11    1    3    3    0    0  0.52731231765E+01 -0.29775008225E+01 -0.20788189857E+01  0.64025641597E+01  0.51100000000E-03 0.  1.
        -12    1    3    3    0    0 -0.26024890444E+02 -0.13573261306E+02 -0.11071297408E+02  0.31370399605E+02  0.00000000000E+00 0.  1.
</event>
<event>
 7    1  0.6841384E-013  0.5930195E+02  0.7816164E-02  0.1266605E+00
        -11   -1    0    0    0    0  0.00000000000E+00  0.00000000000E+00  0.45593999997E+02  0.45594000000E+02  0.51100000000E-03 0.  1.
         11   -1    0    0    0    0 -0.00000000000E+00 -0.00000000000E+00 -0.45593999997E+02  0.45594000000E+02  0.51100000000E-03 0. -1.
    9900012    2    1    2    0    0  0.26670501490E+02  0.22222483066E+01 -0.17333951923E+02  0.59301954047E+02  0.50000018272E+02 0.  0.
        -12    1    1    2    0    0 -0.26670501490E+02 -0.22222483066E+01  0.17333951923E+02  0.31886045953E+02  0.00000000000E+00 0.  1.
         11    1    3    3    0    0  0.20467205015E+02 -0.40296866856E+01 -0.13999488098E+01  0.20907049358E+02  0.51100000000E-03 0. -1.
        -11    1    3    3    0    0 -0.26861523951E+01 -0.10404907889E+02  0.34980357670E+01  0.11301052046E+02  0.51100000000E-03 0.  1.
        -12    1    3    3    0    0  0.88894488701E+01  0.16656842881E+02 -0.19432038880E+02  0.27093852642E+02  0.00000000000E+00 0.  1.
</event>
<event>
 7    1  0.6841384E-013  0.5930198E+02  0.7816164E-02  0.1266605E+00
        -11   -1    0    0    0    0  0.00000000000E+00  0.00000000000E+00  0.45593999997E+02  0.45594000000E+02  0.51100000000E-03 0.  1.
         11   -1    0    0    0    0 -0.00000000000E+00 -0.00000000000E+00 -0.45593999997E+02  0.45594000000E+02  0.51100000000E-03 0. -1.
    9900012    2    1    2    0    0  0.18047545633E+02 -0.16206414007E+02 -0.20696781367E+02  0.59301976145E+02  0.50000058574E+02 0.  0.
        -12    1    1    2    0    0 -0.18047545633E+02  0.16206414007E+02  0.20696781367E+02  0.31886023855E+02  0.00000000000E+00 0.  1.
         11    1    3    3    0    0  0.10983087382E+02 -0.15699112529E+02 -0.11068060116E+02  0.22126732647E+02  0.51100000000E-03 0. -1.
        -11    1    3    3    0    0 -0.10565074304E+02 -0.85371502798E+01  0.31812983947E+01  0.13950784555E+02  0.51100000000E-03 0.  1.
        -12    1    3    3    0    0  0.17629532555E+02  0.80298488013E+01 -0.12810019646E+02  0.23224458943E+02  0.00000000000E+00 0.  1.
</event>
<event>
 7    1  0.6841384E-013  0.5930194E+02  0.7816164E-02  0.1266605E+00
        -11   -1    0    0    0    0  0.00000000000E+00  0.00000000000E+00  0.45593999997E+02  0.45594000000E+02  0.51100000000E-03 0. -1.
         11   -1    0    0    0    0 -0.00000000000E+00 -0.00000000000E+00 -0.45593999997E+02  0.45594000000E+02  0.51100000000E-03 0.  1.
    9900012    2    1    2    0    0  0.27696599108E+02 -0.64068124436E+01  0.14442028768E+02  0.59301936543E+02  0.49999986350E+02 0.  0.
        -12    1    1    2    0    0 -0.27696599108E+02  0.64068124436E+01 -0.14442028768E+02  0.31886063457E+02  0.00000000000E+00 0.  1.
         11    1    3    3    0    0  0.13148046001E+02  0.27781807545E+01  0.11253221724E+02  0.17527817930E+02  0.51100000000E-03 0. -1.
        -11    1    3    3    0    0  0.20798246877E+02 -0.71257620395E+01  0.16122246885E+02  0.27262985946E+02  0.51100000000E-03 0.  1.
        -12    1    3    3    0    0 -0.62496937695E+01 -0.20592311586E+01 -0.12933439841E+02  0.14511132668E+02  0.00000000000E+00 0.  1.
</event>
<event>
 7    1  0.6841384E-013  0.5930202E+02  0.7816164E-02  0.1266605E+00
        -11   -1    0    0    0    0  0.00000000000E+00  0.00000000000E+00  0.45593999997E+02  0.45594000000E+02  0.51100000000E-03 0. -1.
         11   -1    0    0    0    0 -0.00000000000E+00 -0.00000000000E+00 -0.45593999997E+02  0.45594000000E+02  0.51100000000E-03 0.  1.
    9900012    2    1    2    0    0  0.11850542927E+02 -0.29600868661E+02 -0.26273160797E+00  0.59302018424E+02  0.50000135681E+02 0.  0.
        -12    1    1    2    0    0 -0.11850542927E+02  0.29600868661E+02  0.26273160797E+00  0.31885981576E+02  0.00000000000E+00 0.  1.
         11    1    3    3    0    0  0.95866650403E+01 -0.21974194608E+02 -0.18527699066E+02  0.30299257552E+02  0.51100000000E-03 0. -1.
        -11    1    3    3    0    0 -0.21999783102E+01 -0.13445800829E+00 -0.42885381860E+01  0.48217780492E+01  0.51100000000E-03 0.  1.
        -12    1    3    3    0    0  0.44638561973E+01 -0.74922160453E+01  0.22553505644E+02  0.24180982823E+02  0.00000000000E+00 0.  1.
</event>
<event>
 7    1  0.6841384E-013  0.5930196E+02  0.7816164E-02  0.1266605E+00
        -11   -1    0    0    0    0  0.00000000000E+00  0.00000000000E+00  0.45593999997E+02  0.45594000000E+02  0.51100000000E-03 0.  1.
         11   -1    0    0    0    0 -0.00000000000E+00 -0.00000000000E+00 -0.45593999997E+02  0.45594000000E+02  0.51100000000E-03 0. -1.
    9900012    2    1    2    0    0 -0.20364337868E+02  0.45593098859E+01 -0.24108632666E+02  0.59301957090E+02  0.50000023823E+02 0.  0.
        -12    1    1    2    0    0  0.20364337868E+02 -0.45593098859E+01  0.24108632666E+02  0.31886042910E+02  0.00000000000E+00 0.  1.
         11    1    3    3    0    0 -0.12030112946E+02  0.31079271866E+01  0.15056340967E+01  0.12515980312E+02  0.51100000000E-03 0. -1.
        -11    1    3    3    0    0  0.41960882527E+01  0.16701445996E+02 -0.43259327648E+01  0.17755538559E+02  0.51100000000E-03 0.  1.
         12    1    3    3    0    0 -0.12530313175E+02 -0.15250063296E+02 -0.21288333997E+02  0.29030438219E+02  0.00000000000E+00 0. -1.
</event>
<event>
 7    1  0.6841384E-013  0.5930193E+02  0.7816164E-02  0.1266605E+00
        -11   -1    0    0    0    0  0.00000000000E+00  0.00000000000E+00  0.45593999997E+02  0.45594000000E+02  0.51100000000E-03 0.  1.
         11   -1    0    0    0    0 -0.00000000000E+00 -0.00000000000E+00 -0.45593999997E+02  0.45594000000E+02  0.51100000000E-03 0. -1.
    9900012    2    1    2    0    0 -0.23798912795E+02  0.21003972319E+02 -0.30276494910E+01  0.59301925221E+02  0.49999965700E+02 0.  0.
        -12    1    1    2    0    0  0.23798912795E+02 -0.21003972319E+02  0.30276494910E+01  0.31886074779E+02  0.00000000000E+00 0.  1.
         11    1    3    3    0    0 -0.93480770067E+01 -0.34801822017E+01  0.29097793922E+01  0.10390622130E+02  0.51100000000E-03 0. -1.
        -11    1    3    3    0    0 -0.21743481969E+02  0.61374195338E+00  0.38706089531E+01  0.22093829484E+02  0.51100000000E-03 0.  1.
         12    1    3    3    0    0  0.72926461808E+01  0.23870412567E+02 -0.98080378363E+01  0.26817473607E+02  0.00000000000E+00 0. -1.
</event>
<event>
 7    1  0.6841384E-013  0.5930204E+02  0.7816164E-02  0.1266604E+00
        -11   -1    0    0    0    0  0.00000000000E+00  0.00000000000E+00  0.45593999997E+02  0.45594000000E+02  0.51100000000E-03 0. -1.
         11   -1    0    0    0    0 -0.00000000000E+00 -0.00000000000E+00 -0.45593999997E+02  0.45594000000E+02  0.51100000000E-03 0.  1.
    9900012    2    1    2    0    0 -0.61941466111E+00  0.97264017721E+01  0.30359972574E+02  0.59302039129E+02  0.50000173441E+02 0.  0.
        -12    1    1    2    0    0  0.61941466111E+00 -0.97264017721E+01 -0.30359972574E+02  0.31885960871E+02  0.00000000000E+00 0.  1.
         11    1    3    3    0    0  0.27745311033E+01  0.10634601161E+02  0.26887197361E+02  0.29046757941E+02  0.51100000000E-03 0. -1.
        -11    1    3    3    0    0  0.10741869557E+02 -0.85966766120E+01 -0.15855238680E+00  0.13759205990E+02  0.51100000000E-03 0.  1.
        -12    1    3    3    0    0 -0.14135815321E+02  0.76884772232E+01  0.36313276001E+01  0.16496075198E+02  0.00000000000E+00 0.  1.
</event>
<event>
 7    1  0.6841384E-013  0.5930194E+02  0.7816164E-02  0.1266605E+00
        -11   -1    0    0    0    0  0.00000000000E+00  0.00000000000E+00  0.45593999997E+02  0.45594000000E+02  0.51100000000E-03 0. -1.
         11   -1    0    0    0    0 -0.00000000000E+00 -0.00000000000E+00 -0.45593999997E+02  0.45594000000E+02  0.51100000000E-03 0.  1.
    9900012    2    1    2    0    0 -0.96463470778E+01 -0.12616712031E+02  0.27649361328E+02  0.59301943232E+02  0.49999998548E+02 0.  0.
        -12    1    1    2    0    0  0.96463470778E+01  0.12616712031E+02 -0.27649361328E+02  0.31886056768E+02  0.00000000000E+00 0.  1.
         11    1    3    3    0    0 -0.13636240550E+02  0.87832387518E+00  0.13983347987E+02  0.19551279507E+02  0.51100000000E-03 0. -1.
        -11    1    3    3    0    0 -0.12019008267E+02  0.48623104868E+01  0.50610961998E+01  0.13918093189E+02  0.51100000000E-03 0.  1.
        -12    1    3    3    0    0  0.16008901740E+02 -0.18357346393E+02  0.86049171413E+01  0.25832570536E+02  0.00000000000E+00 0.  1.
</event>
<event>
 7    1  0.6841384E-013  0.5930189E+02  0.7816164E-02  0.1266605E+00
        -11   -1    0    0    0    0  0.00000000000E+00  0.00000000000E+00  0.45593999997E+02  0.45594000000E+02  0.51100000000E-03 0.  1.
         11   -1    0    0    0    0 -0.00000000000E+00 -0.00000000000E+00 -0.45593999997E+02  0.45594000000E+02  0.51100000000E-03 0. -1.
    9900012    2    1    2    0    0 -0.28610987891E+02  0.10916413191E+01 -0.14033667449E+02  0.59301888118E+02  0.49999898034E+02 0.  0.
        -12    1    1    2    0    0  0.28610987891E+02 -0.10916413191E+01  0.14033667449E+02  0.31886111882E+02  0.00000000000E+00 0.  1.
         11    1    3    3    0    0  0.28833093723E+01 -0.76081932292E+01 -0.64669334354E+01  0.10393233639E+02  0.51100000000E-03 0. -1.
        -11    1    3    3    0    0 -0.27324678850E+01 -0.55759585534E+00  0.12388682265E+02  0.12698690578E+02  0.51100000000E-03 0.  1.
         12    1    3    3    0    0 -0.28761829378E+02  0.92574304037E+01 -0.19955416279E+02  0.36209963901E+02  0.00000000000E+00 0. -1.
</event>
<event>
 7    1  0.6841384E-013  0.5930195E+02  0.7816164E-02  0.1266605E+00
        -11   -1    0    0    0    0  0.00000000000E+00  0.00000000000E+00  0.45593999997E+02  0.45594000000E+02  0.51100000000E-03 0.  1.
         11   -1    0    0    0    0 -0.00000000000E+00 -0.00000000000E+00 -0.45593999997E+02  0.45594000000E+02  0.51100000000E-03 0. -1.
    9900012    2    1    2    0    0  0.31083677503E+02  0.46272310496E+01 -0.53957317886E+01  0.59301949824E+02  0.50000010571E+02 0.  0.
        -12    1    1    2    0    0 -0.31083677503E+02 -0.46272310496E+01  0.53957317886E+01  0.31886050176E+02  0.00000000000E+00 0.  1.
         11    1    3    3    0    0  0.53358282680E+01 -0.32832878887E+01 -0.15916995804E+02  0.17105607220E+02  0.51100000000E-03 0. -1.
        -11    1    3    3    0    0  0.18710312615E+02  0.13151160296E+02 -0.58639339941E+01  0.23609628066E+02  0.51100000000E-03 0.  1.
        -12    1    3    3    0    0  0.70375366200E+01 -0.52406413580E+01  0.16385198009E+02  0.18586714538E+02  0.00000000000E+00 0.  1.
</event>
<event>
 7    1  0.6841384E-013  0.5930193E+02  0.7816164E-02  0.1266605E+00
        -11   -1    0    0    0    0  0.00000000000E+00  0.00000000000E+00  0.45593999997E+02  0.45594000000E+02  0.51100000000E-03 0.  1.
         11   -1    0    0    0    0 -0.00000000000E+00 -0.00000000000E+00 -0.45593999997E+02  0.45594000000E+02  0.51100000000E-03 0. -1.
    9900012    2    1    2    0    0  0.26225764571E+02 -0.16714447167E+02 -0.70397565000E+01  0.59301927131E+02  0.49999969184E+02 0.  0.
        -12    1    1    2    0    0 -0.26225764571E+02  0.16714447167E+02  0.70397565000E+01  0.31886072869E+02  0.00000000000E+00 0.  1.
         11    1    3    3    0    0  0.83467694958E+01 -0.49819428181E+01 -0.50507722426E+01  0.10954387969E+02  0.51100000000E-03 0. -1.
        -11    1    3    3    0    0  0.83103985895E+00 -0.25781651192E+02  0.21035552129E+01  0.25880670591E+02  0.51100000000E-03 0.  1.
        -12    1    3    3    0    0  0.17047955216E+02  0.14049146843E+02 -0.40925394703E+01  0.22466868571E+02  0.00000000000E+00 0.  1.
</event>
<event>
 7    1  0.6841384E-013  0.5930194E+02  0.7816164E-02  0.1266605E+00
        -11   -1    0    0    0    0  0.00000000000E+00  0.00000000000E+00  0.45593999997E+02  0.45594000000E+02  0.51100000000E-03 0.  1.
         11   -1    0    0    0    0 -0.00000000000E+00 -0.00000000000E+00 -0.45593999997E+02  0.45594000000E+02  0.51100000000E-03 0. -1.
    9900012    2    1    2    0    0  0.30143970512E+02  0.78261680841E+01 -0.68420026229E+01  0.59301939331E+02  0.49999991434E+02 0.  0.
        -12    1    1    2    0    0 -0.30143970512E+02 -0.78261680841E+01  0.68420026229E+01  0.31886060669E+02  0.00000000000E+00 0.  1.
         11    1    3    3    0    0  0.42555588969E+01 -0.10976416289E+02 -0.74969161023E+01  0.13956906798E+02  0.51100000000E-03 0. -1.
        -11    1    3    3    0    0  0.12504377241E+01 -0.80855391744E+01 -0.29519987412E+01  0.86979213075E+01  0.51100000000E-03 0.  1.
        -12    1    3    3    0    0  0.24637973891E+02  0.26888123548E+02  0.36069122206E+01  0.36647111225E+02  0.00000000000E+00 0.  1.
</event>
<event>
 7    1  0.6841384E-013  0.5930195E+02  0.7816164E-02  0.1266605E+00
        -11   -1    0    0    0    0  0.00000000000E+00  0.00000000000E+00  0.45593999997E+02  0.45594000000E+02  0.51100000000E-03 0.  1.
         11   -1    0    0    0    0 -0.00000000000E+00 -0.00000000000E+00 -0.45593999997E+02  0.45594000000E+02  0.51100000000E-03 0. -1.
    9900012    2    1    2    0    0 -0.28353647443E+02 -0.60157191311E+01 -0.13289174467E+02  0.59301947281E+02  0.50000005934E+02 0.  0.
        -12    1    1    2    0    0  0.28353647443E+02  0.60157191311E+01  0.13289174467E+02  0.31886052719E+02  0.00000000000E+00 0.  1.
         11    1    3    3    0    0 -0.20000505197E+02  0.29103131068E+01  0.10789967579E+02  0.22910991492E+02  0.51100000000E-03 0. -1.
        -11    1    3    3    0    0 -0.78774049217E+01 -0.97387048349E+01 -0.23478257531E+00  0.12528008752E+02  0.51100000000E-03 0.  1.
        -12    1    3    3    0    0 -0.47573732365E+00  0.81267259701E+00 -0.23844359471E+02  0.23862947037E+02  0.00000000000E+00 0.  1.
</event>
<event>
 7    1  0.6841384E-013  0.5930195E+02  0.7816164E-02  0.1266605E+00
        -11   -1    0    0    0    0  0.00000000000E+00  0.00000000000E+00  0.45593999997E+02  0.45594000000E+02  0.51100000000E-03 0.  1.
         11   -1    0    0    0    0 -0.00000000000E+00 -0.00000000000E+00 -0.45593999997E+02  0.45594000000E+02  0.51100000000E-03 0. -1.
    9900012    2    1    2    0    0  0.79033508792E+01  0.73783318102E+01 -0.29996956943E+02  0.59301950366E+02  0.50000011559E+02 0.  0.
        -12    1    1    2    0    0 -0.79033508792E+01 -0.73783318102E+01  0.29996956943E+02  0.31886049634E+02  0.00000000000E+00 0.  1.
         11    1    3    3    0    0  0.14561609738E+02  0.16644581762E+02 -0.12850777579E+02  0.25577823692E+02  0.51100000000E-03 0. -1.
        -11    1    3    3    0    0  0.55963950950E+01 -0.10470583580E+02  0.86745253919E+00  0.11904000703E+02  0.51100000000E-03 0.  1.
         12    1    3    3    0    0 -0.12254653953E+02  0.12043336287E+01 -0.18013631904E+02  0.21820125971E+02  0.00000000000E+00 0. -1.
</event>
<event>
 7    1  0.6841384E-013  0.5930196E+02  0.7816164E-02  0.1266605E+00
        -11   -1    0    0    0    0  0.00000000000E+00  0.00000000000E+00  0.45593999997E+02  0.45594000000E+02  0.51100000000E-03 0. -1.
         11   -1    0    0    0    0 -0.00000000000E+00 -0.00000000000E+00 -0.45593999997E+02  0.45594000000E+02  0.51100000000E-03 0.  1.
    9900012    2    1    2    0    0  0.16501558103E+02 -0.23836163537E+02 -0.13276125693E+02  0.59301958769E+02  0.50000026884E+02 0.  0.
        -12    1    1    2    0    0 -0.16501558103E+02  0.23836163537E+02  0.13276125693E+02  0.31886041231E+02  0.00000000000E+00 0.  1.
         11    1    3    3    0    0  0.75551476082E+01 -0.11426906299E+02 -0.59986893493E+01  0.14954555062E+02  0.51100000000E-03 0. -1.
        -11    1    3    3    0    0 -0.78146080860E+01 -0.16559113556E+02  0.91895624846E+01  0.20487078860E+02  0.51100000000E-03 0.  1.
        -12    1    3    3    0    0  0.16761018581E+02  0.41498563183E+01 -0.16466998829E+02  0.23860324846E+02  0.00000000000E+00 0.  1.
</event>
<event>
 7    1  0.6841384E-013  0.5930194E+02  0.7816164E-02  0.1266605E+00
        -11   -1    0    0    0    0  0.00000000000E+00  0.00000000000E+00  0.45593999997E+02  0.45594000000E+02  0.51100000000E-03 0. -1.
         11   -1    0    0    0    0 -0.00000000000E+00 -0.00000000000E+00 -0.45593999997E+02  0.45594000000E+02  0.51100000000E-03 0.  1.
    9900012    2    1    2    0    0  0.33956782739E+01  0.24231872627E+02  0.20445206578E+02  0.59301941072E+02  0.49999994609E+02 0.  0.
        -12    1    1    2    0    0 -0.33956782739E+01 -0.24231872627E+02 -0.20445206578E+02  0.31886058928E+02  0.00000000000E+00 0.  1.
         11    1    3    3    0    0 -0.15618735221E+02  0.63884148133E+01  0.87930412817E+01  0.19028250287E+02  0.51100000000E-03 0. -1.
        -11    1    3    3    0    0  0.51954160678E+01  0.16071763405E+01 -0.90482977705E+01  0.10556848806E+02  0.51100000000E-03 0.  1.
         12    1    3    3    0    0  0.13818997428E+02  0.16236281473E+02  0.20700463067E+02  0.29716841979E+02  0.00000000000E+00 0. -1.
</event>
<event>
 7    1  0.6841384E-013  0.5930195E+02  0.7816164E-02  0.1266605E+00
        -11   -1    0    0    0    0  0.00000000000E+00  0.00000000000E+00  0.45593999997E+02  0.45594000000E+02  0.51100000000E-03 0.  1.
         11   -1    0    0    0    0 -0.00000000000E+00 -0.00000000000E+00 -0.45593999997E+02  0.45594000000E+02  0.51100000000E-03 0. -1.
    9900012    2    1    2    0    0 -0.29591703812E+02  0.11613133039E+02  0.24872093619E+01  0.59301952833E+02  0.50000016059E+02 0.  0.
        -12    1    1    2    0    0  0.29591703812E+02 -0.11613133039E+02 -0.24872093619E+01  0.31886047167E+02  0.00000000000E+00 0.  1.
         11    1    3    3    0    0 -0.25419860973E+02 -0.64291444306E+01 -0.68547214459E+01  0.27101484025E+02  0.51100000000E-03 0.  1.
        -11    1    3    3    0    0 -0.10032586346E+02 -0.17243337672E+01  0.36175867424E+01  0.10803381408E+02  0.51100000000E-03 0. -1.
         12    1    3    3    0    0  0.58607435071E+01  0.19766611237E+02  0.57243440653E+01  0.21397087400E+02  0.00000000000E+00 0. -1.
</event>
<event>
 7    1  0.6841384E-013  0.5930189E+02  0.7816164E-02  0.1266605E+00
        -11   -1    0    0    0    0  0.00000000000E+00  0.00000000000E+00  0.45593999997E+02  0.45594000000E+02  0.51100000000E-03 0.  1.
         11   -1    0    0    0    0 -0.00000000000E+00 -0.00000000000E+00 -0.45593999997E+02  0.45594000000E+02  0.51100000000E-03 0. -1.
    9900012    2    1    2    0    0  0.24020419220E+02 -0.20825683849E+02  0.24565559125E+01  0.59301885244E+02  0.49999892793E+02 0.  0.
        -12    1    1    2    0    0 -0.24020419220E+02  0.20825683849E+02 -0.24565559125E+01  0.31886114756E+02  0.00000000000E+00 0.  1.
         11    1    3    3    0    0  0.12568356307E+00  0.10586606944E+02  0.27751086328E+01  0.10945011244E+02  0.51100000000E-03 0. -1.
        -11    1    3    3    0    0  0.12589769237E+02 -0.16348196390E+02  0.13795537868E+02  0.24821012872E+02  0.51100000000E-03 0.  1.
         12    1    3    3    0    0  0.11304966420E+02 -0.15064094403E+02 -0.14114090588E+02  0.23535861129E+02  0.00000000000E+00 0. -1.
</event>
<event>
 7    1  0.6841384E-013  0.5930198E+02  0.7816164E-02  0.1266605E+00
        -11   -1    0    0    0    0  0.00000000000E+00  0.00000000000E+00  0.45593999997E+02  0.45594000000E+02  0.51100000000E-03 0.  1.
         11   -1    0    0    0    0 -0.00000000000E+00 -0.00000000000E+00 -0.45593999997E+02  0.45594000000E+02  0.51100000000E-03 0. -1.
    9900012    2    1    2    0    0  0.66773984825E+01  0.30096446900E+02  0.81446165235E+01  0.59301975713E+02  0.50000057787E+02 0.  0.
        -12    1    1    2    0    0 -0.66773984825E+01 -0.30096446900E+02 -0.81446165235E+01  0.31886024287E+02  0.00000000000E+00 0.  1.
         11    1    3    3    0    0  0.13563273500E+01 -0.45976587883E+01 -0.93687183999E+01  0.10523828910E+02  0.51100000000E-03 0.  1.
        -11    1    3    3    0    0 -0.38821862568E+01 -0.38441095812E+01  0.12662117683E-01  0.54633972211E+01  0.51100000000E-03 0. -1.
         12    1    3    3    0    0  0.92032573892E+01  0.38538215269E+02  0.17500672806E+02  0.43314749582E+02  0.00000000000E+00 0. -1.
</event>
<event>
 7    1  0.6841384E-013  0.5930196E+02  0.7816164E-02  0.1266605E+00
        -11   -1    0    0    0    0  0.00000000000E+00  0.00000000000E+00  0.45593999997E+02  0.45594000000E+02  0.51100000000E-03 0.  1.
         11   -1    0    0    0    0 -0.00000000000E+00 -0.00000000000E+00 -0.45593999997E+02  0.45594000000E+02  0.51100000000E-03 0. -1.
    9900012    2    1    2    0    0 -0.35880273314E+00 -0.32164226069E+01 -0.31721371934E+02  0.59301959933E+02  0.50000029008E+02 0.  0.
        -12    1    1    2    0    0  0.35880273314E+00  0.32164226069E+01  0.31721371934E+02  0.31886040067E+02  0.00000000000E+00 0.  1.
         11    1    3    3    0    0 -0.60556072849E+01  0.74348936431E+01 -0.17854295763E+02  0.20266324298E+02  0.51100000000E-03 0. -1.
        -11    1    3    3    0    0  0.77021218211E+01 -0.68480674745E+01 -0.25032439000E+02  0.27071049319E+02  0.51100000000E-03 0.  1.
        -12    1    3    3    0    0 -0.20053172693E+01 -0.38032487755E+01  0.11165362830E+02  0.11964586316E+02  0.00000000000E+00 0.  1.
</event>
<event>
 7    1  0.6841384E-013  0.5930193E+02  0.7816164E-02  0.1266605E+00
        -11   -1    0    0    0    0  0.00000000000E+00  0.00000000000E+00  0.45593999997E+02  0.45594000000E+02  0.51100000000E-03 0. -1.
         11   -1    0    0    0    0 -0.00000000000E+00 -0.00000000000E+00 -0.45593999997E+02  0.45594000000E+02  0.51100000000E-03 0.  1.
    9900012    2    1    2    0    0  0.31216779842E+02  0.62275999209E+01 -0.18576566855E+01  0.59301933563E+02  0.49999980914E+02 0.  0.
        -12    1    1    2    0    0 -0.31216779842E+02 -0.62275999209E+01  0.18576566855E+01  0.31886066437E+02  0.00000000000E+00 0.  1.
         11    1    3    3    0    0  0.78554969669E+01  0.15791162546E+02 -0.84317996961E+01  0.19549038174E+02  0.51100000000E-03 0.  1.
        -11    1    3    3    0    0  0.18815785295E+02  0.83315844395E+01  0.52783648405E+01  0.21244062963E+02  0.51100000000E-03 0. -1.
         12    1    3    3    0    0  0.45454975803E+01 -0.17895147064E+02  0.12957781702E+01  0.18508832426E+02  0.00000000000E+00 0. -1.
</event>
<event>
 7    1  0.6841384E-013  0.5930197E+02  0.7816164E-02  0.1266605E+00
        -11   -1    0    0    0    0  0.00000000000E+00  0.00000000000E+00  0.45593999997E+02  0.45594000000E+02  0.51100000000E-03 0.  1.
         11   -1    0    0    0    0 -0.00000000000E+00 -0.00000000000E+00 -0.45593999997E+02  0.45594000000E+02  0.51100000000E-03 0. -1.
    9900012    2    1    2    0    0  0.29850411070E+02  0.90393022979E+01 -0.66304487883E+01  0.59301970485E+02  0.50000048252E+02 0.  0.
        -12    1    1    2    0    0 -0.29850411070E+02 -0.90393022979E+01  0.66304487883E+01  0.31886029515E+02  0.00000000000E+00 0.  1.
         11    1    3    3    0    0  0.24259080410E+02 -0.50641043448E+01 -0.27974621756E+01  0.24939405166E+02  0.51100000000E-03 0. -1.
        -11    1    3    3    0    0 -0.32435904184E+01 -0.22471110602E+01  0.10289881770E+02  0.11020528754E+02  0.51100000000E-03 0.  1.
         12    1    3    3    0    0  0.88349210785E+01  0.16350517703E+02 -0.14122868383E+02  0.23342036564E+02  0.00000000000E+00 0. -1.
</event>
<event>
 7    1  0.6841384E-013  0.5930191E+02  0.7816164E-02  0.1266605E+00
        -11   -1    0    0    0    0  0.00000000000E+00  0.00000000000E+00  0.45593999997E+02  0.45594000000E+02  0.51100000000E-03 0. -1.
         11   -1    0    0    0    0 -0.00000000000E+00 -0.00000000000E+00 -0.45593999997E+02  0.45594000000E+02  0.51100000000E-03 0.  1.
    9900012    2    1    2    0    0 -0.17176469735E+02 -0.18376451413E+02  0.19595855532E+02  0.59301911605E+02  0.49999940869E+02 0.  0.
        -12    1    1    2    0    0  0.17176469735E+02  0.18376451413E+02 -0.19595855532E+02  0.31886088395E+02  0.00000000000E+00 0.  1.
         11    1    3    3    0    0 -0.13311021577E+02  0.23264001518E+01  0.15415472403E+02  0.20499566404E+02  0.51100000000E-03 0. -1.
        -11    1    3    3    0    0 -0.45142624321E+01  0.83627979763E+01  0.97708376506E+00  0.95535149680E+01  0.51100000000E-03 0.  1.
         12    1    3    3    0    0  0.64881427403E+00 -0.29065649541E+02  0.32032993646E+01  0.29248830233E+02  0.00000000000E+00 0. -1.
</event>
<event>
 7    1  0.6841384E-013  0.5930196E+02  0.7816164E-02  0.1266605E+00
        -11   -1    0    0    0    0  0.00000000000E+00  0.00000000000E+00  0.45593999997E+02  0.45594000000E+02  0.51100000000E-03 0.  1.
         11   -1    0    0    0    0 -0.00000000000E+00 -0.00000000000E+00 -0.45593999997E+02  0.45594000000E+02  0.51100000000E-03 0. -1.
    9900012    2    1    2    0    0 -0.29836379354E+02 -0.34897777426E+01 -0.10692585271E+02  0.59301961340E+02  0.50000031573E+02 0.  0.
        -12    1    1    2    0    0  0.29836379354E+02  0.34897777426E+01  0.10692585271E+02  0.31886038660E+02  0.00000000000E+00 0.  1.
         11    1    3    3    0    0 -0.46475408847E+01  0.16988520195E+00 -0.15036067530E+02  0.15738863501E+02  0.51100000000E-03 0. -1.
        -11    1    3    3    0    0 -0.22369483796E+02 -0.13717240581E+02 -0.79624714030E+01  0.27421842491E+02  0.51100000000E-03 0.  1.
        -12    1    3    3    0    0 -0.28193546732E+01  0.10057577637E+02  0.12305953662E+02  0.16141255348E+02  0.00000000000E+00 0.  1.
</event>
<event>
 7    1  0.6841384E-013  0.5930193E+02  0.7816164E-02  0.1266605E+00
        -11   -1    0    0    0    0  0.00000000000E+00  0.00000000000E+00  0.45593999997E+02  0.45594000000E+02  0.51100000000E-03 0.  1.
         11   -1    0    0    0    0 -0.00000000000E+00 -0.00000000000E+00 -0.45593999997E+02  0.45594000000E+02  0.51100000000E-03 0. -1.
    9900012    2    1    2    0    0 -0.25465686257E+02 -0.13704489202E+02 -0.13431568882E+02  0.59301933396E+02  0.49999980610E+02 0.  0.
        -12    1    1    2    0    0  0.25465686257E+02  0.13704489202E+02  0.13431568882E+02  0.31886066604E+02  0.00000000000E+00 0.  1.
         11    1    3    3    0    0 -0.73323354876E+01 -0.17033693087E+01 -0.21255291734E+01  0.78219233717E+01  0.51100000000E-03 0. -1.
        -11    1    3    3    0    0 -0.32843980163E+02 -0.81873037780E+01 -0.25593292591E+01  0.33945679292E+02  0.51100000000E-03 0.  1.
         12    1    3    3    0    0  0.14710629394E+02 -0.38138161156E+01 -0.87467104497E+01  0.17534330732E+02  0.00000000000E+00 0. -1.
</event>
<event>
 7    1  0.6841384E-013  0.5930194E+02  0.7816164E-02  0.1266605E+00
        -11   -1    0    0    0    0  0.00000000000E+00  0.00000000000E+00  0.45593999997E+02  0.45594000000E+02  0.51100000000E-03 0.  1.
         11   -1    0    0    0    0 -0.00000000000E+00 -0.00000000000E+00 -0.45593999997E+02  0.45594000000E+02  0.51100000000E-03 0. -1.
    9900012    2    1    2    0    0  0.91277088516E+01  0.30236243418E+02  0.43789970015E+01  0.59301935651E+02  0.49999984723E+02 0.  0.
        -12    1    1    2    0    0 -0.91277088516E+01 -0.30236243418E+02 -0.43789970015E+01  0.31886064349E+02  0.00000000000E+00 0.  1.
         11    1    3    3    0    0  0.55399567572E+01  0.51318699927E+01  0.29423656453E+01  0.81046114247E+01  0.51100000000E-03 0. -1.
        -11    1    3    3    0    0  0.67794187472E+01  0.30489943112E+02 -0.14232155532E+02  0.34324210127E+02  0.51100000000E-03 0.  1.
        -12    1    3    3    0    0 -0.31916666529E+01 -0.53855696860E+01  0.15668786888E+02  0.16873114099E+02  0.00000000000E+00 0.  1.
</event>
<event>
 7    1  0.6841384E-013  0.5930196E+02  0.7816164E-02  0.1266605E+00
        -11   -1    0    0    0    0  0.00000000000E+00  0.00000000000E+00  0.45593999997E+02  0.45594000000E+02  0.51100000000E-03 0. -1.
         11   -1    0    0    0    0 -0.00000000000E+00 -0.00000000000E+00 -0.45593999997E+02  0.45594000000E+02  0.51100000000E-03 0.  1.
    9900012    2    1    2    0    0  0.11413241521E+02 -0.29299246476E+02 -0.52925868029E+01  0.59301962286E+02  0.50000033298E+02 0.  0.
        -12    1    1    2    0    0 -0.11413241521E+02  0.29299246476E+02  0.52925868029E+01  0.31886037714E+02  0.00000000000E+00 0.  1.
         11    1    3    3    0    0 -0.49669317588E+01  0.88917776886E-02  0.33034591881E+01  0.59651766972E+01  0.51100000000E-03 0. -1.
        -11    1    3    3    0    0  0.13337249919E+02  0.31948176707E+01  0.88502590147E+01  0.16322260268E+02  0.51100000000E-03 0.  1.
         12    1    3    3    0    0  0.30429233607E+01 -0.32502955924E+02 -0.17446305006E+02  0.37014525321E+02  0.00000000000E+00 0. -1.
</event>
<event>
 7    1  0.6841384E-013  0.5930197E+02  0.7816164E-02  0.1266605E+00
        -11   -1    0    0    0    0  0.00000000000E+00  0.00000000000E+00  0.45593999997E+02  0.45594000000E+02  0.51100000000E-03 0.  1.
         11   -1    0    0    0    0 -0.00000000000E+00 -0.00000000000E+00 -0.45593999997E+02  0.45594000000E+02  0.51100000000E-03 0. -1.
    9900012    2    1    2    0    0  0.29388576371E+01 -0.29346777509E+02 -0.12118109270E+02  0.59301971608E+02  0.50000050300E+02 0.  0.
        -12    1    1    2    0    0 -0.29388576371E+01  0.29346777509E+02  0.12118109270E+02  0.31886028392E+02  0.00000000000E+00 0.  1.
         11    1    3    3    0    0  0.77506009530E+01 -0.93639669228E+00  0.63143769845E+01  0.10040916834E+02  0.51100000000E-03 0.  1.
        -11    1    3    3    0    0  0.11657307878E+02  0.19791213395E+00 -0.44308701306E+00  0.11667404276E+02  0.51100000000E-03 0. -1.
         12    1    3    3    0    0 -0.16469051194E+02 -0.28608292950E+02 -0.17989399241E+02  0.37593650498E+02  0.00000000000E+00 0. -1.
</event>
<event>
 7    1  0.6841384E-013  0.5930195E+02  0.7816164E-02  0.1266605E+00
        -11   -1    0    0    0    0  0.00000000000E+00  0.00000000000E+00  0.45593999997E+02  0.45594000000E+02  0.51100000000E-03 0.  1.
         11   -1    0    0    0    0 -0.00000000000E+00 -0.00000000000E+00 -0.45593999997E+02  0.45594000000E+02  0.51100000000E-03 0. -1.
    9900012    2    1    2    0    0  0.17594573145E+02 -0.22850113100E+02 -0.13602338356E+02  0.59301948479E+02  0.50000008118E+02 0.  0.
        -12    1    1    2    0    0 -0.17594573145E+02  0.22850113100E+02  0.13602338356E+02  0.31886051521E+02  0.00000000000E+00 0.  1.
         11    1    3    3    0    0  0.66685146127E+01  0.61191835562E+01 -0.26357092682E+01  0.94265825272E+01  0.51100000000E-03 0. -1.
        -11    1    3    3    0    0 -0.85920233452E+01 -0.39880351803E+01  0.84551221350E+01  0.12697101257E+02  0.51100000000E-03 0.  1.
         12    1    3    3    0    0  0.19518081877E+02 -0.24981261476E+02 -0.19421751223E+02  0.37178264694E+02  0.00000000000E+00 0. -1.
</event>
<event>
 7    1  0.6841384E-013  0.5930192E+02  0.7816164E-02  0.1266605E+00
        -11   -1    0    0    0    0  0.00000000000E+00  0.00000000000E+00  0.45593999997E+02  0.45594000000E+02  0.51100000000E-03 0.  1.
         11   -1    0    0    0    0 -0.00000000000E+00 -0.00000000000E+00 -0.45593999997E+02  0.45594000000E+02  0.51100000000E-03 0. -1.
    9900012    2    1    2    0    0  0.63583926183E+01 -0.22377115849E+00 -0.31244890263E+02  0.59301915296E+02  0.49999947600E+02 0.  0.
        -12    1    1    2    0    0 -0.63583926183E+01  0.22377115849E+00  0.31244890263E+02  0.31886084704E+02  0.00000000000E+00 0.  1.
         11    1    3    3    0    0 -0.36003444866E+01  0.57074675884E+01 -0.10045845576E+02  0.12101928784E+02  0.51100000000E-03 0. -1.
        -11    1    3    3    0    0 -0.13236956177E+02  0.60588420413E+00 -0.18773647367E+02  0.22978989103E+02  0.51100000000E-03 0.  1.
        -12    1    3    3    0    0  0.23195693282E+02 -0.65371229510E+01 -0.24253973206E+01  0.24220997409E+02  0.00000000000E+00 0.  1.
</event>
<event>
 7    1  0.6841384E-013  0.5930194E+02  0.7816164E-02  0.1266605E+00
        -11   -1    0    0    0    0  0.00000000000E+00  0.00000000000E+00  0.45593999997E+02  0.45594000000E+02  0.51100000000E-03 0. -1.
         11   -1    0    0    0    0 -0.00000000000E+00 -0.00000000000E+00 -0.45593999997E+02  0.45594000000E+02  0.51100000000E-03 0.  1.
    9900012    2    1    2    0    0 -0.92331735394E+01 -0.19000203299E+02 -0.23884336452E+02  0.59301941185E+02  0.49999994815E+02 0.  0.
        -12    1    1    2    0    0  0.92331735394E+01  0.19000203299E+02  0.23884336452E+02  0.31886058815E+02  0.00000000000E+00 0.  1.
         11    1    3    3    0    0 -0.12535916610E+02 -0.21848755007E+02 -0.11586891358E+02  0.27726762382E+02  0.51100000000E-03 0. -1.
        -11    1    3    3    0    0  0.72710909404E+01 -0.21665468840E+01  0.75616598730E+01  0.10711740716E+02  0.51100000000E-03 0.  1.
        -12    1    3    3    0    0 -0.39683478698E+01  0.50150985918E+01 -0.19859104967E+02  0.20863438086E+02  0.00000000000E+00 0.  1.
</event>
<event>
 7    1  0.6841384E-013  0.5930194E+02  0.7816164E-02  0.1266605E+00
        -11   -1    0    0    0    0  0.00000000000E+00  0.00000000000E+00  0.45593999997E+02  0.45594000000E+02  0.51100000000E-03 0. -1.
         11   -1    0    0    0    0 -0.00000000000E+00 -0.00000000000E+00 -0.45593999997E+02  0.45594000000E+02  0.51100000000E-03 0.  1.
    9900012    2    1    2    0    0 -0.74509035612E+01  0.28271301744E+02  0.12725506838E+02  0.59301937363E+02  0.49999987846E+02 0.  0.
        -12    1    1    2    0    0  0.74509035612E+01 -0.28271301744E+02 -0.12725506838E+02  0.31886062637E+02  0.00000000000E+00 0.  1.
         11    1    3    3    0    0 -0.48606944992E+01  0.45775378272E+01  0.15334723061E+02  0.16725248434E+02  0.51100000000E-03 0. -1.
        -11    1    3    3    0    0 -0.99637838463E+01 -0.55941037392E+01  0.31004389926E+01  0.11839920075E+02  0.51100000000E-03 0.  1.
        -12    1    3    3    0    0  0.73735747843E+01  0.29287867656E+02 -0.57096552148E+01  0.30736768854E+02  0.00000000000E+00 0.  1.
</event>
<event>
 7    1  0.6841384E-013  0.5930193E+02  0.7816164E-02  0.1266605E+00
        -11   -1    0    0    0    0  0.00000000000E+00  0.00000000000E+00  0.45593999997E+02  0.45594000000E+02  0.51100000000E-03 0. -1.
         11   -1    0    0    0    0 -0.00000000000E+00 -0.00000000000E+00 -0.45593999997E+02  0.45594000000E+02  0.51100000000E-03 0.  1.
    9900012    2    1    2    0    0 -0.14759146292E+02 -0.14522249710E+02  0.24248577318E+02  0.59301927212E+02  0.49999969332E+02 0.  0.
        -12    1    1    2    0    0  0.14759146292E+02  0.14522249710E+02 -0.24248577318E+02  0.31886072788E+02  0.00000000000E+00 0.  1.
         11    1    3    3    0    0  0.87218201526E+01 -0.29465246506E+01  0.13584718078E+02  0.16410262637E+02  0.51100000000E-03 0. -1.
        -11    1    3    3    0    0 -0.13940573612E+02 -0.22669735538E+02  0.93208514803E+01  0.28198134239E+02  0.51100000000E-03 0.  1.
        -12    1    3    3    0    0 -0.95403928328E+01  0.11094010478E+02  0.13430077595E+01  0.14693530336E+02  0.00000000000E+00 0.  1.
</event>
<event>
 7    1  0.6841384E-013  0.5930183E+02  0.7816164E-02  0.1266605E+00
        -11   -1    0    0    0    0  0.00000000000E+00  0.00000000000E+00  0.45593999997E+02  0.45594000000E+02  0.51100000000E-03 0.  1.
         11   -1    0    0    0    0 -0.00000000000E+00 -0.00000000000E+00 -0.45593999997E+02  0.45594000000E+02  0.51100000000E-03 0. -1.
    9900012    2    1    2    0    0 -0.68794415123E+01 -0.21047926323E+02 -0.22943095065E+02  0.59301834831E+02  0.49999800852E+02 0.  0.
        -12    1    1    2    0    0  0.68794415123E+01  0.21047926323E+02  0.22943095065E+02  0.31886165169E+02  0.00000000000E+00 0.  1.
         11    1    3    3    0    0 -0.17262997724E+01  0.22786895269E+01  0.56861848790E+01  0.63643723653E+01  0.51100000000E-03 0. -1.
        -11    1    3    3    0    0  0.75647129077E+01  0.41263429492E+01  0.30409524535E+01  0.91377776071E+01  0.51100000000E-03 0.  1.
         12    1    3    3    0    0 -0.12717854648E+02 -0.27452958799E+02 -0.31670232397E+02  0.43799684859E+02  0.00000000000E+00 0. -1.
</event>
<event>
 7    1  0.6841384E-013  0.5930193E+02  0.7816164E-02  0.1266605E+00
        -11   -1    0    0    0    0  0.00000000000E+00  0.00000000000E+00  0.45593999997E+02  0.45594000000E+02  0.51100000000E-03 0. -1.
         11   -1    0    0    0    0 -0.00000000000E+00 -0.00000000000E+00 -0.45593999997E+02  0.45594000000E+02  0.51100000000E-03 0.  1.
    9900012    2    1    2    0    0  0.21210728665E+02  0.22573113950E+02  0.75684083855E+01  0.59301932676E+02  0.49999979297E+02 0.  0.
        -12    1    1    2    0    0 -0.21210728665E+02 -0.22573113950E+02 -0.75684083855E+01  0.31886067324E+02  0.00000000000E+00 0.  1.
         11    1    3    3    0    0  0.19934067746E+02  0.68738609113E+01 -0.54056794547E+01  0.21767829275E+02  0.51100000000E-03 0. -1.
        -11    1    3    3    0    0  0.13998942742E+02  0.37558064413E+01  0.13869842000E+02  0.20061131505E+02  0.51100000000E-03 0.  1.
        -12    1    3    3    0    0 -0.12722281822E+02  0.11943446597E+02 -0.89575415952E+00  0.17472971896E+02  0.00000000000E+00 0.  1.
</event>
<event>
 7    1  0.6841384E-013  0.5930189E+02  0.7816164E-02  0.1266605E+00
        -11   -1    0    0    0    0  0.00000000000E+00  0.00000000000E+00  0.45593999997E+02  0.45594000000E+02  0.51100000000E-03 0.  1.
         11   -1    0    0    0    0 -0.00000000000E+00 -0.00000000000E+00 -0.45593999997E+02  0.45594000000E+02  0.51100000000E-03 0. -1.
    9900012    2    1    2    0    0 -0.17383826508E+02 -0.13924973148E+02 -0.22817134037E+02  0.59301891632E+02  0.49999904442E+02 0.  0.
        -12    1    1    2    0    0  0.17383826508E+02  0.13924973148E+02  0.22817134037E+02  0.31886108368E+02  0.00000000000E+00 0.  1.
         11    1    3    3    0    0 -0.25192805706E+02 -0.67665359768E+01 -0.10855385489E+02  0.28254253890E+02  0.51100000000E-03 0. -1.
        -11    1    3    3    0    0 -0.26654254588E+01 -0.64649755039E+01  0.66689790535E+01  0.96631093867E+01  0.51100000000E-03 0.  1.
        -12    1    3    3    0    0  0.10474404658E+02 -0.69346166757E+00 -0.18630727601E+02  0.21384528355E+02  0.00000000000E+00 0.  1.
</event>
<event>
 7    1  0.6841384E-013  0.5930193E+02  0.7816164E-02  0.1266605E+00
        -11   -1    0    0    0    0  0.00000000000E+00  0.00000000000E+00  0.45593999997E+02  0.45594000000E+02  0.51100000000E-03 0.  1.
         11   -1    0    0    0    0 -0.00000000000E+00 -0.00000000000E+00 -0.45593999997E+02  0.45594000000E+02  0.51100000000E-03 0. -1.
    9900012    2    1    2    0    0 -0.20939402759E+02  0.20783765208E+02  0.12095376690E+02  0.59301927470E+02  0.49999969803E+02 0.  0.
        -12    1    1    2    0    0  0.20939402759E+02 -0.20783765208E+02 -0.12095376690E+02  0.31886072530E+02  0.00000000000E+00 0.  1.
         11    1    3    3    0    0  0.75721867031E+01  0.93053985038E+01  0.17034665765E+02  0.20835265556E+02  0.51100000000E-03 0.  1.
        -11    1    3    3    0    0 -0.17572797282E+02  0.15626359280E+02  0.38569071362E+01  0.23829856096E+02  0.51100000000E-03 0. -1.
        -12    1    3    3    0    0 -0.10938792180E+02 -0.41479925758E+01 -0.87961962117E+01  0.14636805818E+02  0.00000000000E+00 0.  1.
</event>
<event>
 7    1  0.6841384E-013  0.5930197E+02  0.7816164E-02  0.1266605E+00
        -11   -1    0    0    0    0  0.00000000000E+00  0.00000000000E+00  0.45593999997E+02  0.45594000000E+02  0.51100000000E-03 0.  1.
         11   -1    0    0    0    0 -0.00000000000E+00 -0.00000000000E+00 -0.45593999997E+02  0.45594000000E+02  0.51100000000E-03 0. -1.
    9900012    2    1    2    0    0  0.29287616625E+02 -0.93366963554E+01  0.84723378041E+01  0.59301970233E+02  0.50000047793E+02 0.  0.
        -12    1    1    2    0    0 -0.29287616625E+02  0.93366963554E+01 -0.84723378041E+01  0.31886029767E+02  0.00000000000E+00 0.  1.
         11    1    3    3    0    0  0.62329244797E+01 -0.19099925516E+02  0.13253584928E+02  0.24068942976E+02  0.51100000000E-03 0. -1.
        -11    1    3    3    0    0  0.15284269733E+01 -0.72857302320E+01 -0.83515385022E+00  0.74910237111E+01  0.51100000000E-03 0.  1.
         12    1    3    3    0    0  0.21526265172E+02  0.17048959393E+02 -0.39460932734E+01  0.27742003546E+02  0.00000000000E+00 0. -1.
</event>
<event>
 7    1  0.6841384E-013  0.5930194E+02  0.7816164E-02  0.1266605E+00
        -11   -1    0    0    0    0  0.00000000000E+00  0.00000000000E+00  0.45593999997E+02  0.45594000000E+02  0.51100000000E-03 0. -1.
         11   -1    0    0    0    0 -0.00000000000E+00 -0.00000000000E+00 -0.45593999997E+02  0.45594000000E+02  0.51100000000E-03 0.  1.
    9900012    2    1    2    0    0 -0.47461052114E+01  0.34291253728E+01  0.31343846525E+02  0.59301935167E+02  0.49999983841E+02 0.  0.
        -12    1    1    2    0    0  0.47461052114E+01 -0.34291253728E+01 -0.31343846525E+02  0.31886064833E+02  0.00000000000E+00 0.  1.
         11    1    3    3    0    0 -0.91123276819E+01 -0.50980965822E+01 -0.61470318664E+01  0.12116563274E+02  0.51100000000E-03 0. -1.
        -11    1    3    3    0    0  0.34238145369E+01 -0.50604091549E+01  0.31870783403E+02  0.32451149159E+02  0.51100000000E-03 0.  1.
         12    1    3    3    0    0  0.94240793361E+00  0.13587631110E+02  0.56200949889E+01  0.14734222734E+02  0.00000000000E+00 0. -1.
</event>
<event>
 7    1  0.6841384E-013  0.5930194E+02  0.7816164E-02  0.1266605E+00
        -11   -1    0    0    0    0  0.00000000000E+00  0.00000000000E+00  0.45593999997E+02  0.45594000000E+02  0.51100000000E-03 0.  1.
         11   -1    0    0    0    0 -0.00000000000E+00 -0.00000000000E+00 -0.45593999997E+02  0.45594000000E+02  0.51100000000E-03 0. -1.
    9900012    2    1    2    0    0  0.13372763973E+02 -0.28053264535E+02 -0.71347487810E+01  0.59301935528E+02  0.49999984498E+02 0.  0.
        -12    1    1    2    0    0 -0.13372763973E+02  0.28053264535E+02  0.71347487810E+01  0.31886064472E+02  0.00000000000E+00 0.  1.
         11    1    3    3    0    0 -0.53365827259E+01 -0.13802176810E+02 -0.82611260865E+01  0.16947725640E+02  0.51100000000E-03 0. -1.
        -11    1    3    3    0    0  0.53146798119E+01 -0.22741151398E+02  0.85162618101E+01  0.24858248206E+02  0.51100000000E-03 0.  1.
        -12    1    3    3    0    0  0.13394666887E+02  0.84900636725E+01 -0.73898845045E+01  0.17495961682E+02  0.00000000000E+00 0.  1.
</event>
<event>
 7    1  0.6841384E-013  0.5930195E+02  0.7816164E-02  0.1266605E+00
        -11   -1    0    0    0    0  0.00000000000E+00  0.00000000000E+00  0.45593999997E+02  0.45594000000E+02  0.51100000000E-03 0. -1.
         11   -1    0    0    0    0 -0.00000000000E+00 -0.00000000000E+00 -0.45593999997E+02  0.45594000000E+02  0.51100000000E-03 0.  1.
    9900012    2    1    2    0    0  0.23370451154E+02  0.84243512905E+01  0.19989312233E+02  0.59301948420E+02  0.50000008011E+02 0.  0.
        -12    1    1    2    0    0 -0.23370451154E+02 -0.84243512905E+01 -0.19989312233E+02  0.31886051580E+02  0.00000000000E+00 0.  1.
         11    1    3    3    0    0  0.16094511388E+02 -0.16956294556E+02 -0.35151860536E+01  0.23641187685E+02  0.51100000000E-03 0.  1.
        -11    1    3    3    0    0  0.20482892089E+01  0.49040820218E+01  0.73008969643E+01  0.90304266735E+01  0.51100000000E-03 0. -1.
        -12    1    3    3    0    0  0.52276505572E+01  0.20476563825E+02  0.16203601323E+02  0.26630334062E+02  0.00000000000E+00 0.  1.
</event>
<event>
 7    1  0.6841384E-013  0.5930193E+02  0.7816164E-02  0.1266605E+00
        -11   -1    0    0    0    0  0.00000000000E+00  0.00000000000E+00  0.45593999997E+02  0.45594000000E+02  0.51100000000E-03 0.  1.
         11   -1    0    0    0    0 -0.00000000000E+00 -0.00000000000E+00 -0.45593999997E+02  0.45594000000E+02  0.51100000000E-03 0. -1.
    9900012    2    1    2    0    0 -0.17157914606E+02  0.24133464393E+02  0.11828065999E+02  0.59301932784E+02  0.49999979493E+02 0.  0.
        -12    1    1    2    0    0  0.17157914606E+02 -0.24133464393E+02 -0.11828065999E+02  0.31886067216E+02  0.00000000000E+00 0.  1.
         11    1    3    3    0    0 -0.11291545320E+02  0.11454771173E+02 -0.36396597826E+01  0.16491146168E+02  0.51100000000E-03 0. -1.
        -11    1    3    3    0    0  0.88406047966E+01  0.18295969351E+02 -0.58266305980E+00  0.20328263186E+02  0.51100000000E-03 0.  1.
         12    1    3    3    0    0 -0.14706974083E+02 -0.56172761306E+01  0.16050388842E+02  0.22482523430E+02  0.00000000000E+00 0. -1.
</event>
<event>
 7    1  0.6841384E-013  0.5930199E+02  0.7816164E-02  0.1266605E+00
        -11   -1    0    0    0    0  0.00000000000E+00  0.00000000000E+00  0.45593999997E+02  0.45594000000E+02  0.51100000000E-03 0.  1.
         11   -1    0    0    0    0 -0.00000000000E+00 -0.00000000000E+00 -0.45593999997E+02  0.45594000000E+02  0.51100000000E-03 0. -1.
    9900012    2    1    2    0    0 -0.72893701333E+01 -0.99633709393E+01 -0.29399216570E+02  0.59301990335E+02  0.50000084453E+02 0.  0.
        -12    1    1    2    0    0  0.72893701333E+01  0.99633709393E+01  0.29399216570E+02  0.31886009665E+02  0.00000000000E+00 0.  1.
         11    1    3    3    0    0  0.16155944589E+02 -0.89841178125E+00 -0.19077094738E+02  0.25015140079E+02  0.51100000000E-03 0. -1.
        -11    1    3    3    0    0  0.73924650297E+00 -0.79973127868E+01 -0.51245827042E+01  0.95270585888E+01  0.51100000000E-03 0.  1.
        -12    1    3    3    0    0 -0.24184561225E+02 -0.10676463712E+01 -0.51975391283E+01  0.24759791667E+02  0.00000000000E+00 0.  1.
</event>
<event>
 7    1  0.6841384E-013  0.5930231E+02  0.7816164E-02  0.1266603E+00
        -11   -1    0    0    0    0  0.00000000000E+00  0.00000000000E+00  0.45593999997E+02  0.45594000000E+02  0.51100000000E-03 0. -1.
         11   -1    0    0    0    0 -0.00000000000E+00 -0.00000000000E+00 -0.45593999997E+02  0.45594000000E+02  0.51100000000E-03 0.  1.
    9900012    2    1    2    0    0 -0.16495335800E+02 -0.16968163914E+02 -0.21370128503E+02  0.59302312270E+02  0.50000671582E+02 0.  0.
        -12    1    1    2    0    0  0.16495335800E+02  0.16968163914E+02  0.21370128503E+02  0.31885687730E+02  0.00000000000E+00 0.  1.
         11    1    3    3    0    0 -0.83438184856E+01  0.25388468355E+01 -0.26075519783E+02  0.27495413843E+02  0.51100000000E-03 0. -1.
        -11    1    3    3    0    0 -0.15190215187E+02 -0.13013288046E+02 -0.20210422043E+01  0.20104052204E+02  0.51100000000E-03 0.  1.
        -12    1    3    3    0    0  0.70386978727E+01 -0.64937227034E+01  0.67264334845E+01  0.11702846223E+02  0.00000000000E+00 0.  1.
</event>
<event>
 7    1  0.6841384E-013  0.5930174E+02  0.7816164E-02  0.1266605E+00
        -11   -1    0    0    0    0  0.00000000000E+00  0.00000000000E+00  0.45593999997E+02  0.45594000000E+02  0.51100000000E-03 0.  1.
         11   -1    0    0    0    0 -0.00000000000E+00 -0.00000000000E+00 -0.45593999997E+02  0.45594000000E+02  0.51100000000E-03 0. -1.
    9900012    2    1    2    0    0  0.10920614169E+02 -0.18925289115E+02 -0.23222993879E+02  0.59301736082E+02  0.49999620756E+02 0.  0.
        -12    1    1    2    0    0 -0.10920614169E+02  0.18925289115E+02  0.23222993879E+02  0.31886263918E+02  0.00000000000E+00 0.  1.
         11    1    3    3    0    0  0.18034825100E+02 -0.13186301087E+01 -0.11623462469E+02  0.21496478358E+02  0.51100000000E-03 0. -1.
        -11    1    3    3    0    0  0.62449756786E+01  0.27002341703E+01 -0.11657868804E+02  0.13498032860E+02  0.51100000000E-03 0.  1.
        -12    1    3    3    0    0 -0.13359186609E+02 -0.20306893177E+02  0.58337393471E-01  0.24307224864E+02  0.00000000000E+00 0.  1.
</event>
<event>
 7    1  0.6841384E-013  0.5930195E+02  0.7816164E-02  0.1266605E+00
        -11   -1    0    0    0    0  0.00000000000E+00  0.00000000000E+00  0.45593999997E+02  0.45594000000E+02  0.51100000000E-03 0.  1.
         11   -1    0    0    0    0 -0.00000000000E+00 -0.00000000000E+00 -0.45593999997E+02  0.45594000000E+02  0.51100000000E-03 0. -1.
    9900012    2    1    2    0    0 -0.29099167468E+02  0.56817189517E+01 -0.11733574362E+02  0.59301949054E+02  0.50000009167E+02 0.  0.
        -12    1    1    2    0    0  0.29099167468E+02 -0.56817189517E+01  0.11733574362E+02  0.31886050946E+02  0.00000000000E+00 0.  1.
         11    1    3    3    0    0  0.75948832835E+01  0.78371866471E+00  0.33078174576E+01  0.83209448760E+01  0.51100000000E-03 0. -1.
        -11    1    3    3    0    0 -0.48378284380E+01 -0.10437970026E+02 -0.10047769175E+02  0.15274602054E+02  0.51100000000E-03 0.  1.
        -12    1    3    3    0    0 -0.31856222314E+02  0.15335970313E+02 -0.49936226447E+01  0.35706402124E+02  0.00000000000E+00 0.  1.
</event>
<event>
 7    1  0.6841384E-013  0.5930196E+02  0.7816164E-02  0.1266605E+00
        -11   -1    0    0    0    0  0.00000000000E+00  0.00000000000E+00  0.45593999997E+02  0.45594000000E+02  0.51100000000E-03 0. -1.
         11   -1    0    0    0    0 -0.00000000000E+00 -0.00000000000E+00 -0.45593999997E+02  0.45594000000E+02  0.51100000000E-03 0.  1.
    9900012    2    1    2    0    0 -0.29448057781E+02 -0.54805243421E+01 -0.10931378149E+02  0.59301964148E+02  0.50000036694E+02 0.  0.
        -12    1    1    2    0    0  0.29448057781E+02  0.54805243421E+01  0.10931378149E+02  0.31886035852E+02  0.00000000000E+00 0.  1.
         11    1    3    3    0    0  0.93379437186E-01  0.46574209032E+01 -0.48642949737E+01  0.67351061641E+01  0.51100000000E-03 0. -1.
        -11    1    3    3    0    0 -0.45377551093E+01  0.12394608020E+02 -0.12636807738E+02  0.18273107001E+02  0.51100000000E-03 0.  1.
         12    1    3    3    0    0 -0.25003682109E+02 -0.22532553265E+02  0.65697245630E+01  0.34293750983E+02  0.00000000000E+00 0. -1.
</event>
<event>
 7    1  0.6841384E-013  0.5930196E+02  0.7816164E-02  0.1266605E+00
        -11   -1    0    0    0    0  0.00000000000E+00  0.00000000000E+00  0.45593999997E+02  0.45594000000E+02  0.51100000000E-03 0. -1.
         11   -1    0    0    0    0 -0.00000000000E+00 -0.00000000000E+00 -0.45593999997E+02  0.45594000000E+02  0.51100000000E-03 0.  1.
    9900012    2    1    2    0    0 -0.14558399792E+02  0.91018008490E+01  0.26868751989E+02  0.59301958906E+02  0.50000027135E+02 0.  0.
        -12    1    1    2    0    0  0.14558399792E+02 -0.91018008490E+01 -0.26868751989E+02  0.31886041094E+02  0.00000000000E+00 0.  1.
         11    1    3    3    0    0 -0.16879791031E+01  0.12006924800E+02  0.27784217466E+02  0.30314654164E+02  0.51100000000E-03 0. -1.
        -11    1    3    3    0    0 -0.51306512792E+01 -0.14111542199E+02  0.17258286758E+01  0.15114155307E+02  0.51100000000E-03 0.  1.
         12    1    3    3    0    0 -0.77397694095E+01  0.11206418248E+02 -0.26412941533E+01  0.13873149436E+02  0.00000000000E+00 0. -1.
</event>
<event>
 7    1  0.6841384E-013  0.5930195E+02  0.7816164E-02  0.1266605E+00
        -11   -1    0    0    0    0  0.00000000000E+00  0.00000000000E+00  0.45593999997E+02  0.45594000000E+02  0.51100000000E-03 0. -1.
         11   -1    0    0    0    0 -0.00000000000E+00 -0.00000000000E+00 -0.45593999997E+02  0.45594000000E+02  0.51100000000E-03 0.  1.
    9900012    2    1    2    0    0 -0.20214796068E+02  0.23058403788E+02 -0.87402672577E+01  0.59301949177E+02  0.50000009392E+02 0.  0.
        -12    1    1    2    0    0  0.20214796068E+02 -0.23058403788E+02  0.87402672577E+01  0.31886050823E+02  0.00000000000E+00 0.  1.
         11    1    3    3    0    0 -0.16516674088E+02  0.77702802401E+01  0.97814010097E+01  0.20708780358E+02  0.51100000000E-03 0. -1.
        -11    1    3    3    0    0  0.63431582122E+01 -0.28927146887E+01  0.39341289283E+01  0.80050499724E+01  0.51100000000E-03 0.  1.
        -12    1    3    3    0    0 -0.10041280192E+02  0.18180838237E+02 -0.22455797196E+02  0.30588118847E+02  0.00000000000E+00 0.  1.
</event>
<event>
 7    1  0.6841384E-013  0.5930199E+02  0.7816164E-02  0.1266605E+00
        -11   -1    0    0    0    0  0.00000000000E+00  0.00000000000E+00  0.45593999997E+02  0.45594000000E+02  0.51100000000E-03 0.  1.
         11   -1    0    0    0    0 -0.00000000000E+00 -0.00000000000E+00 -0.45593999997E+02  0.45594000000E+02  0.51100000000E-03 0. -1.
    9900012    2    1    2    0    0  0.15881302429E+02 -0.35383103524E+01 -0.27422298586E+02  0.59301986346E+02  0.50000077179E+02 0.  0.
        -12    1    1    2    0    0 -0.15881302429E+02  0.35383103524E+01  0.27422298586E+02  0.31886013654E+02  0.00000000000E+00 0.  1.
         11    1    3    3    0    0 -0.64681245080E+00 -0.10995576513E+02 -0.38488191321E+01  0.11667668069E+02  0.51100000000E-03 0. -1.
        -11    1    3    3    0    0 -0.55738232965E+00 -0.13964853090E+02 -0.85751234553E+01  0.16396967385E+02  0.51100000000E-03 0.  1.
        -12    1    3    3    0    0  0.17085497210E+02  0.21422119251E+02 -0.14998355998E+02  0.31237350892E+02  0.00000000000E+00 0.  1.
</event>
<event>
 7    1  0.6841384E-013  0.5930194E+02  0.7816164E-02  0.1266605E+00
        -11   -1    0    0    0    0  0.00000000000E+00  0.00000000000E+00  0.45593999997E+02  0.45594000000E+02  0.51100000000E-03 0.  1.
         11   -1    0    0    0    0 -0.00000000000E+00 -0.00000000000E+00 -0.45593999997E+02  0.45594000000E+02  0.51100000000E-03 0. -1.
    9900012    2    1    2    0    0  0.25288903059E+02 -0.10617224033E+02 -0.16262441156E+02  0.59301936328E+02  0.49999985958E+02 0.  0.
        -12    1    1    2    0    0 -0.25288903059E+02  0.10617224033E+02  0.16262441156E+02  0.31886063672E+02  0.00000000000E+00 0.  1.
         11    1    3    3    0    0  0.10813022986E+02 -0.63377021854E+01 -0.95958945897E+01  0.15785091964E+02  0.51100000000E-03 0. -1.
        -11    1    3    3    0    0  0.17908503046E+01 -0.73360472835E+01 -0.22072102771E+02  0.23328147280E+02  0.51100000000E-03 0.  1.
        -12    1    3    3    0    0  0.12685029769E+02  0.30565254357E+01  0.15405556204E+02  0.20188697084E+02  0.00000000000E+00 0.  1.
</event>
<event>
 7    1  0.6841384E-013  0.5930193E+02  0.7816164E-02  0.1266605E+00
        -11   -1    0    0    0    0  0.00000000000E+00  0.00000000000E+00  0.45593999997E+02  0.45594000000E+02  0.51100000000E-03 0.  1.
         11   -1    0    0    0    0 -0.00000000000E+00 -0.00000000000E+00 -0.45593999997E+02  0.45594000000E+02  0.51100000000E-03 0. -1.
    9900012    2    1    2    0    0  0.30022370495E+02  0.95549745173E+01 -0.49072470909E+01  0.59301931849E+02  0.49999977788E+02 0.  0.
        -12    1    1    2    0    0 -0.30022370495E+02 -0.95549745173E+01  0.49072470909E+01  0.31886068151E+02  0.00000000000E+00 0.  1.
         11    1    3    3    0    0 -0.74073570452E+01 -0.38948817324E+01 -0.13587418351E+02  0.15957975429E+02  0.51100000000E-03 0.  1.
        -11    1    3    3    0    0  0.51844766886E+01  0.10608562748E+01 -0.39079000042E+01  0.65784418576E+01  0.51100000000E-03 0. -1.
        -12    1    3    3    0    0  0.32245250851E+02  0.12388999975E+02  0.12588071264E+02  0.36765514562E+02  0.00000000000E+00 0.  1.
</event>
<event>
 7    1  0.6841384E-013  0.5930192E+02  0.7816164E-02  0.1266605E+00
        -11   -1    0    0    0    0  0.00000000000E+00  0.00000000000E+00  0.45593999997E+02  0.45594000000E+02  0.51100000000E-03 0. -1.
         11   -1    0    0    0    0 -0.00000000000E+00 -0.00000000000E+00 -0.45593999997E+02  0.45594000000E+02  0.51100000000E-03 0.  1.
    9900012    2    1    2    0    0  0.11869472902E+01  0.12146188465E+02  0.29458165046E+02  0.59301917990E+02  0.49999952513E+02 0.  0.
        -12    1    1    2    0    0 -0.11869472902E+01 -0.12146188465E+02 -0.29458165046E+02  0.31886082010E+02  0.00000000000E+00 0.  1.
         11    1    3    3    0    0 -0.29318491092E+01 -0.62514553859E+01 -0.41381903821E+00  0.69172017535E+01  0.51100000000E-03 0. -1.
        -11    1    3    3    0    0  0.17531778931E+02  0.77582739242E+01  0.14778789245E+01  0.19228578032E+02  0.51100000000E-03 0.  1.
         12    1    3    3    0    0 -0.13412982531E+02  0.10639369927E+02  0.28394105159E+02  0.33156138204E+02  0.00000000000E+00 0. -1.
</event>
<event>
 7    1  0.6841384E-013  0.5930194E+02  0.7816164E-02  0.1266605E+00
        -11   -1    0    0    0    0  0.00000000000E+00  0.00000000000E+00  0.45593999997E+02  0.45594000000E+02  0.51100000000E-03 0.  1.
         11   -1    0    0    0    0 -0.00000000000E+00 -0.00000000000E+00 -0.45593999997E+02  0.45594000000E+02  0.51100000000E-03 0. -1.
    9900012    2    1    2    0    0 -0.31037560929E+01 -0.31506102469E+02 -0.38017408039E+01  0.59301936778E+02  0.49999986779E+02 0.  0.
        -12    1    1    2    0    0  0.31037560929E+01  0.31506102469E+02  0.38017408039E+01  0.31886063222E+02  0.00000000000E+00 0.  1.
         11    1    3    3    0    0 -0.17134401766E+02 -0.21053208505E+02 -0.11182969756E+02  0.29357863087E+02  0.51100000000E-03 0. -1.
        -11    1    3    3    0    0 -0.41453880656E+01  0.27399644875E+01 -0.23140749417E+01  0.54814770550E+01  0.51100000000E-03 0.  1.
        -12    1    3    3    0    0  0.18176033738E+02 -0.13192858451E+02  0.96953038940E+01  0.24462596636E+02  0.00000000000E+00 0.  1.
</event>
<event>
 7    1  0.7564833E-013  0.5930194E+02  0.7816164E-02  0.1266605E+00
        -11   -1    0    0    0    0  0.00000000000E+00  0.00000000000E+00  0.45593999997E+02  0.45594000000E+02  0.51100000000E-03 0. -1.
         11   -1    0    0    0    0 -0.00000000000E+00 -0.00000000000E+00 -0.45593999997E+02  0.45594000000E+02  0.51100000000E-03 0.  1.
    9900012    2    1    2    0    0  0.27042206183E+02  0.79977968857E+01  0.14882042040E+02  0.59301939636E+02  0.49999991991E+02 0.  0.
        -12    1    1    2    0    0 -0.27042206183E+02 -0.79977968857E+01 -0.14882042040E+02  0.31886060364E+02  0.00000000000E+00 0.  1.
         11    1    3    3    0    0  0.19955329137E+02 -0.72681861740E+00  0.28629213102E+01  0.20172747581E+02  0.51100000000E-03 0. -1.
        -11    1    3    3    0    0 -0.66467894981E+00  0.82414629222E+01 -0.11611780058E+02  0.14254716608E+02  0.51100000000E-03 0.  1.
         12    1    3    3    0    0  0.77515559952E+01  0.48315258083E+00  0.23630900787E+02  0.24874475447E+02  0.00000000000E+00 0. -1.
</event>
<event>
 7    1  0.6841384E-013  0.5930193E+02  0.7816164E-02  0.1266605E+00
        -11   -1    0    0    0    0  0.00000000000E+00  0.00000000000E+00  0.45593999997E+02  0.45594000000E+02  0.51100000000E-03 0.  1.
         11   -1    0    0    0    0 -0.00000000000E+00 -0.00000000000E+00 -0.45593999997E+02  0.45594000000E+02  0.51100000000E-03 0. -1.
    9900012    2    1    2    0    0  0.25865122991E+01 -0.30431854264E+02  0.91615165681E+01  0.59301934303E+02  0.49999982264E+02 0.  0.
        -12    1    1    2    0    0 -0.25865122991E+01  0.30431854264E+02 -0.91615165681E+01  0.31886065697E+02  0.00000000000E+00 0.  1.
         11    1    3    3    0    0  0.14401329380E+02 -0.52431021597E+01  0.22190659808E+00  0.15327675981E+02  0.51100000000E-03 0. -1.
        -11    1    3    3    0    0 -0.12237627047E+01 -0.58197870897E+01 -0.12097474929E+02  0.13480223175E+02  0.51100000000E-03 0.  1.
        -12    1    3    3    0    0 -0.10591054376E+02 -0.19368965015E+02  0.21037084899E+02  0.30494035147E+02  0.00000000000E+00 0.  1.
</event>
<event>
 7    1  0.6841384E-013  0.5930192E+02  0.7816164E-02  0.1266605E+00
        -11   -1    0    0    0    0  0.00000000000E+00  0.00000000000E+00  0.45593999997E+02  0.45594000000E+02  0.51100000000E-03 0.  1.
         11   -1    0    0    0    0 -0.00000000000E+00 -0.00000000000E+00 -0.45593999997E+02  0.45594000000E+02  0.51100000000E-03 0. -1.
    9900012    2    1    2    0    0 -0.21301940403E+02 -0.17818128237E+02 -0.15667284851E+02  0.59301918814E+02  0.49999954015E+02 0.  0.
        -12    1    1    2    0    0  0.21301940403E+02  0.17818128237E+02  0.15667284851E+02  0.31886081186E+02  0.00000000000E+00 0.  1.
         11    1    3    3    0    0 -0.12848859590E+02 -0.32226266577E+02 -0.17774167541E+02  0.38981360703E+02  0.51100000000E-03 0. -1.
        -11    1    3    3    0    0 -0.61583226739E+00 -0.15746258308E+01 -0.13787069505E+01  0.21816344802E+01  0.51100000000E-03 0.  1.
         12    1    3    3    0    0 -0.78372485463E+01  0.15982764171E+02  0.34855896395E+01  0.18138923630E+02  0.00000000000E+00 0. -1.
</event>
<event>
 7    1  0.6841384E-013  0.5930195E+02  0.7816164E-02  0.1266605E+00
        -11   -1    0    0    0    0  0.00000000000E+00  0.00000000000E+00  0.45593999997E+02  0.45594000000E+02  0.51100000000E-03 0.  1.
         11   -1    0    0    0    0 -0.00000000000E+00 -0.00000000000E+00 -0.45593999997E+02  0.45594000000E+02  0.51100000000E-03 0. -1.
    9900012    2    1    2    0    0  0.69270784167E+01 -0.81159055982E+01 -0.30047763138E+02  0.59301946486E+02  0.50000004483E+02 0.  0.
        -12    1    1    2    0    0 -0.69270784167E+01  0.81159055982E+01  0.30047763138E+02  0.31886053514E+02  0.00000000000E+00 0.  1.
         11    1    3    3    0    0  0.70967402567E+01 -0.41204228702E+01 -0.21403866910E+01  0.84807347765E+01  0.51100000000E-03 0. -1.
        -11    1    3    3    0    0 -0.12765807218E+01 -0.23200864541E+02 -0.15272229697E+02  0.27805588898E+02  0.51100000000E-03 0.  1.
         12    1    3    3    0    0  0.11069188818E+01  0.19205381813E+02 -0.12635146750E+02  0.23015622811E+02  0.00000000000E+00 0. -1.
</event>
<event>
 7    1  0.6841384E-013  0.5930195E+02  0.7816164E-02  0.1266605E+00
        -11   -1    0    0    0    0  0.00000000000E+00  0.00000000000E+00  0.45593999997E+02  0.45594000000E+02  0.51100000000E-03 0.  1.
         11   -1    0    0    0    0 -0.00000000000E+00 -0.00000000000E+00 -0.45593999997E+02  0.45594000000E+02  0.51100000000E-03 0. -1.
    9900012    2    1    2    0    0  0.27099697415E+02 -0.16790758112E+02 -0.63024941431E+00  0.59301947057E+02  0.50000005525E+02 0.  0.
        -12    1    1    2    0    0 -0.27099697415E+02  0.16790758112E+02  0.63024941431E+00  0.31886052943E+02  0.00000000000E+00 0.  1.
         11    1    3    3    0    0  0.17686631124E+00 -0.30133068053E+01 -0.10903875739E+02  0.11313965087E+02  0.51100000000E-03 0. -1.
        -11    1    3    3    0    0  0.48944061517E+00 -0.12395183823E+02 -0.89310990857E+01  0.15285439649E+02  0.51100000000E-03 0.  1.
         12    1    3    3    0    0  0.26433390489E+02 -0.13822674830E+01  0.19204725411E+02  0.32702542320E+02  0.00000000000E+00 0. -1.
</event>
<event>
 7    1  0.6841384E-013  0.5930196E+02  0.7816164E-02  0.1266605E+00
        -11   -1    0    0    0    0  0.00000000000E+00  0.00000000000E+00  0.45593999997E+02  0.45594000000E+02  0.51100000000E-03 0. -1.
         11   -1    0    0    0    0 -0.00000000000E+00 -0.00000000000E+00 -0.45593999997E+02  0.45594000000E+02  0.51100000000E-03 0.  1.
    9900012    2    1    2    0    0 -0.17775888283E+02  0.25019676175E+02  0.86459963300E+01  0.59301958341E+02  0.50000026104E+02 0.  0.
        -12    1    1    2    0    0  0.17775888283E+02 -0.25019676175E+02 -0.86459963300E+01  0.31886041659E+02  0.00000000000E+00 0.  1.
         11    1    3    3    0    0 -0.12365644139E+02  0.17568069371E+02  0.24116265717E+02  0.32297685502E+02  0.51100000000E-03 0. -1.
        -11    1    3    3    0    0  0.38444766667E+01 -0.51919090792E+01 -0.42653038318E+01  0.77413653683E+01  0.51100000000E-03 0.  1.
        -12    1    3    3    0    0 -0.92547208106E+01  0.12643515883E+02 -0.11204965555E+02  0.19262907471E+02  0.00000000000E+00 0.  1.
</event>
<event>
 7    1  0.6841384E-013  0.5930194E+02  0.7816164E-02  0.1266605E+00
        -11   -1    0    0    0    0  0.00000000000E+00  0.00000000000E+00  0.45593999997E+02  0.45594000000E+02  0.51100000000E-03 0. -1.
         11   -1    0    0    0    0 -0.00000000000E+00 -0.00000000000E+00 -0.45593999997E+02  0.45594000000E+02  0.51100000000E-03 0.  1.
    9900012    2    1    2    0    0 -0.13820956984E+02  0.10936964319E+02  0.26572258600E+02  0.59301937722E+02  0.49999988501E+02 0.  0.
        -12    1    1    2    0    0  0.13820956984E+02 -0.10936964319E+02 -0.26572258600E+02  0.31886062278E+02  0.00000000000E+00 0.  1.
         11    1    3    3    0    0  0.76929119032E+01  0.15101991736E+02  0.11216079903E+01  0.16985554235E+02  0.51100000000E-03 0. -1.
        -11    1    3    3    0    0 -0.52763838141E+01  0.31842423936E+01 -0.43842308820E+01  0.75631413092E+01  0.51100000000E-03 0.  1.
         12    1    3    3    0    0 -0.16237485074E+02 -0.73492698105E+01  0.29834881492E+02  0.34753242178E+02  0.00000000000E+00 0. -1.
</event>
<event>
 7    1  0.6841384E-013  0.5930195E+02  0.7816164E-02  0.1266605E+00
        -11   -1    0    0    0    0  0.00000000000E+00  0.00000000000E+00  0.45593999997E+02  0.45594000000E+02  0.51100000000E-03 0. -1.
         11   -1    0    0    0    0 -0.00000000000E+00 -0.00000000000E+00 -0.45593999997E+02  0.45594000000E+02  0.51100000000E-03 0.  1.
    9900012    2    1    2    0    0  0.43974356932E+01 -0.28159095966E+02  0.14298527140E+02  0.59301952821E+02  0.50000016038E+02 0.  0.
        -12    1    1    2    0    0 -0.43974356932E+01  0.28159095966E+02 -0.14298527140E+02  0.31886047179E+02  0.00000000000E+00 0.  1.
         11    1    3    3    0    0  0.13157976605E+02 -0.88487241885E+00  0.98832127962E+01  0.16480086255E+02  0.51100000000E-03 0. -1.
        -11    1    3    3    0    0  0.50549855717E+01 -0.25686854793E+02 -0.41248164335E+01  0.26502481000E+02  0.51100000000E-03 0.  1.
        -12    1    3    3    0    0 -0.13815526483E+02 -0.15873687542E+01  0.85401307771E+01  0.16319385566E+02  0.00000000000E+00 0.  1.
</event>
<event>
 7    1  0.6841384E-013  0.5930193E+02  0.7816164E-02  0.1266605E+00
        -11   -1    0    0    0    0  0.00000000000E+00  0.00000000000E+00  0.45593999997E+02  0.45594000000E+02  0.51100000000E-03 0. -1.
         11   -1    0    0    0    0 -0.00000000000E+00 -0.00000000000E+00 -0.45593999997E+02  0.45594000000E+02  0.51100000000E-03 0.  1.
    9900012    2    1    2    0    0 -0.94932528576E+01  0.22602885814E+02  0.20388940106E+02  0.59301934461E+02  0.49999982552E+02 0.  0.
        -12    1    1    2    0    0  0.94932528576E+01 -0.22602885814E+02 -0.20388940106E+02  0.31886065539E+02  0.00000000000E+00 0.  1.
         11    1    3    3    0    0 -0.52192064670E+01 -0.12300583125E+01  0.43013130697E+01  0.68741875143E+01  0.51100000000E-03 0. -1.
        -11    1    3    3    0    0 -0.15964372210E+02 -0.29599126821E+01 -0.42903554883E+01  0.16793731379E+02  0.51100000000E-03 0.  1.
        -12    1    3    3    0    0  0.11690325819E+02  0.26792856808E+02  0.20377982524E+02  0.35634015568E+02  0.00000000000E+00 0.  1.
</event>
<event>
 7    1  0.6841384E-013  0.5930196E+02  0.7816164E-02  0.1266605E+00
        -11   -1    0    0    0    0  0.00000000000E+00  0.00000000000E+00  0.45593999997E+02  0.45594000000E+02  0.51100000000E-03 0. -1.
         11   -1    0    0    0    0 -0.00000000000E+00 -0.00000000000E+00 -0.45593999997E+02  0.45594000000E+02  0.51100000000E-03 0.  1.
    9900012    2    1    2    0    0  0.13729492643E+02 -0.27156150968E+02  0.95270317380E+01  0.59301955445E+02  0.50000020823E+02 0.  0.
        -12    1    1    2    0    0 -0.13729492643E+02  0.27156150968E+02 -0.95270317380E+01  0.31886044555E+02  0.00000000000E+00 0.  1.
         11    1    3    3    0    0  0.16660407539E+02  0.34837024923E+01  0.88759154691E+01  0.19196021413E+02  0.51100000000E-03 0. -1.
        -11    1    3    3    0    0 -0.79547263935E+01  0.80299016738E+00 -0.17131129671E+01  0.81766265357E+01  0.51100000000E-03 0.  1.
         12    1    3    3    0    0  0.50238114985E+01 -0.31442843627E+02  0.23642292359E+01  0.31929307497E+02  0.00000000000E+00 0. -1.
</event>
<event>
 7    1  0.6841384E-013  0.5930195E+02  0.7816164E-02  0.1266605E+00
        -11   -1    0    0    0    0  0.00000000000E+00  0.00000000000E+00  0.45593999997E+02  0.45594000000E+02  0.51100000000E-03 0.  1.
         11   -1    0    0    0    0 -0.00000000000E+00 -0.00000000000E+00 -0.45593999997E+02  0.45594000000E+02  0.51100000000E-03 0. -1.
    9900012    2    1    2    0    0  0.14090019774E+02  0.25192037756E+02 -0.13548166427E+02  0.59301949177E+02  0.50000009391E+02 0.  0.
        -12    1    1    2    0    0 -0.14090019774E+02 -0.25192037756E+02  0.13548166427E+02  0.31886050823E+02  0.00000000000E+00 0.  1.
         11    1    3    3    0    0  0.11440833930E+02  0.15420764277E+02 -0.19336208214E+02  0.27250350461E+02  0.51100000000E-03 0. -1.
        -11    1    3    3    0    0 -0.92053230132E+01  0.25153103472E+01 -0.80158421652E+01  0.12462683652E+02  0.51100000000E-03 0.  1.
        -12    1    3    3    0    0  0.11854508857E+02  0.72559631317E+01  0.13803883952E+02  0.19588915064E+02  0.00000000000E+00 0.  1.
</event>
<event>
 7    1  0.6841384E-013  0.5930196E+02  0.7816164E-02  0.1266605E+00
        -11   -1    0    0    0    0  0.00000000000E+00  0.00000000000E+00  0.45593999997E+02  0.45594000000E+02  0.51100000000E-03 0.  1.
         11   -1    0    0    0    0 -0.00000000000E+00 -0.00000000000E+00 -0.45593999997E+02  0.45594000000E+02  0.51100000000E-03 0. -1.
    9900012    2    1    2    0    0  0.17614798212E+02  0.70577311452E+01 -0.25624734860E+02  0.59301957260E+02  0.50000024132E+02 0.  0.
        -12    1    1    2    0    0 -0.17614798212E+02 -0.70577311452E+01  0.25624734860E+02  0.31886042740E+02  0.00000000000E+00 0.  1.
         11    1    3    3    0    0  0.13822852524E+02 -0.37100157678E+01 -0.66236113757E+01  0.15770469137E+02  0.51100000000E-03 0. -1.
        -11    1    3    3    0    0 -0.13610214390E+01 -0.13071155272E+02 -0.12845935006E+02  0.18377310084E+02  0.51100000000E-03 0.  1.
         12    1    3    3    0    0  0.51529671272E+01  0.23838902185E+02 -0.61551884787E+01  0.25154178039E+02  0.00000000000E+00 0. -1.
</event>
<event>
 7    1  0.6841384E-013  0.5930194E+02  0.7816164E-02  0.1266605E+00
        -11   -1    0    0    0    0  0.00000000000E+00  0.00000000000E+00  0.45593999997E+02  0.45594000000E+02  0.51100000000E-03 0.  1.
         11   -1    0    0    0    0 -0.00000000000E+00 -0.00000000000E+00 -0.45593999997E+02  0.45594000000E+02  0.51100000000E-03 0. -1.
    9900012    2    1    2    0    0 -0.23551156561E+02 -0.15214593833E+02 -0.15184867544E+02  0.59301936537E+02  0.49999986338E+02 0.  0.
        -12    1    1    2    0    0  0.23551156561E+02  0.15214593833E+02  0.15184867544E+02  0.31886063463E+02  0.00000000000E+00 0.  1.
         11    1    3    3    0    0  0.22899428363E+01 -0.74289265432E+01 -0.15433313050E+02  0.17280623245E+02  0.51100000000E-03 0. -1.
        -11    1    3    3    0    0 -0.20417619728E+01  0.34191490100E+01  0.12415581476E+02  0.13038636261E+02  0.51100000000E-03 0.  1.
         12    1    3    3    0    0 -0.23799337425E+02 -0.11204816300E+02 -0.12167135969E+02  0.28982677030E+02  0.00000000000E+00 0. -1.
</event>
<event>
 7    1  0.6841384E-013  0.5930195E+02  0.7816164E-02  0.1266605E+00
        -11   -1    0    0    0    0  0.00000000000E+00  0.00000000000E+00  0.45593999997E+02  0.45594000000E+02  0.51100000000E-03 0.  1.
         11   -1    0    0    0    0 -0.00000000000E+00 -0.00000000000E+00 -0.45593999997E+02  0.45594000000E+02  0.51100000000E-03 0. -1.
    9900012    2    1    2    0    0 -0.13732767199E+02 -0.24136436569E+02  0.15670469680E+02  0.59301951559E+02  0.50000013735E+02 0.  0.
        -12    1    1    2    0    0  0.13732767199E+02  0.24136436569E+02 -0.15670469680E+02  0.31886048441E+02  0.00000000000E+00 0.  1.
         11    1    3    3    0    0 -0.82669055520E+01 -0.57061352209E+01  0.85073503364E+01  0.13163461421E+02  0.51100000000E-03 0. -1.
        -11    1    3    3    0    0 -0.14802104903E+02 -0.11969527180E+02  0.20931176586E+02  0.28292862068E+02  0.51100000000E-03 0.  1.
         12    1    3    3    0    0  0.93362432559E+01 -0.64607741681E+01 -0.13768057242E+02  0.17845628070E+02  0.00000000000E+00 0. -1.
</event>
<event>
 7    1  0.6841384E-013  0.5930193E+02  0.7816164E-02  0.1266605E+00
        -11   -1    0    0    0    0  0.00000000000E+00  0.00000000000E+00  0.45593999997E+02  0.45594000000E+02  0.51100000000E-03 0.  1.
         11   -1    0    0    0    0 -0.00000000000E+00 -0.00000000000E+00 -0.45593999997E+02  0.45594000000E+02  0.51100000000E-03 0. -1.
    9900012    2    1    2    0    0 -0.25491660020E+02  0.95121596525E+01 -0.16625744583E+02  0.59301932591E+02  0.49999979143E+02 0.  0.
        -12    1    1    2    0    0  0.25491660020E+02 -0.95121596525E+01  0.16625744583E+02  0.31886067409E+02  0.00000000000E+00 0.  1.
         11    1    3    3    0    0 -0.11366044261E+02  0.73940600035E+00 -0.55240449141E+01  0.12658939760E+02  0.51100000000E-03 0. -1.
        -11    1    3    3    0    0  0.40795988145E+01  0.22269424023E+02 -0.55636007769E+01  0.23313601752E+02  0.51100000000E-03 0.  1.
         12    1    3    3    0    0 -0.18205214574E+02 -0.13496670371E+02 -0.55380988923E+01  0.23329391079E+02  0.00000000000E+00 0. -1.
</event>
<event>
 7    1  0.6841384E-013  0.5930196E+02  0.7816164E-02  0.1266605E+00
        -11   -1    0    0    0    0  0.00000000000E+00  0.00000000000E+00  0.45593999997E+02  0.45594000000E+02  0.51100000000E-03 0.  1.
         11   -1    0    0    0    0 -0.00000000000E+00 -0.00000000000E+00 -0.45593999997E+02  0.45594000000E+02  0.51100000000E-03 0. -1.
    9900012    2    1    2    0    0  0.25554710010E+02 -0.18644062065E+02 -0.40094028951E+01  0.59301959707E+02  0.50000028596E+02 0.  0.
        -12    1    1    2    0    0 -0.25554710010E+02  0.18644062065E+02  0.40094028951E+01  0.31886040293E+02  0.00000000000E+00 0.  1.
         11    1    3    3    0    0  0.13416465204E+02 -0.51603119481E+01 -0.46881896848E+01  0.15119837326E+02  0.51100000000E-03 0. -1.
        -11    1    3    3    0    0  0.15307651410E+02  0.45094607030E+01 -0.13621338712E+02  0.20980950791E+02  0.51100000000E-03 0.  1.
         12    1    3    3    0    0 -0.31694066036E+01 -0.17993210819E+02  0.14300125502E+02  0.23201171591E+02  0.00000000000E+00 0. -1.
</event>
<event>
 7    1  0.6841384E-013  0.5930193E+02  0.7816164E-02  0.1266605E+00
        -11   -1    0    0    0    0  0.00000000000E+00  0.00000000000E+00  0.45593999997E+02  0.45594000000E+02  0.51100000000E-03 0.  1.
         11   -1    0    0    0    0 -0.00000000000E+00 -0.00000000000E+00 -0.45593999997E+02  0.45594000000E+02  0.51100000000E-03 0. -1.
    9900012    2    1    2    0    0 -0.90319471391E+00  0.21542056421E+02 -0.23491389357E+02  0.59301932047E+02  0.49999978151E+02 0.  0.
        -12    1    1    2    0    0  0.90319471391E+00 -0.21542056421E+02  0.23491389357E+02  0.31886067953E+02  0.00000000000E+00 0.  1.
         11    1    3    3    0    0 -0.13180859646E+02  0.62914290918E+01 -0.26338679829E+02  0.30117157841E+02  0.51100000000E-03 0. -1.
        -11    1    3    3    0    0 -0.31695942042E+01  0.25959752359E+01  0.76216476432E+01  0.86530299839E+01  0.51100000000E-03 0.  1.
        -12    1    3    3    0    0  0.15447259136E+02  0.12654652093E+02 -0.47743571712E+01  0.20531744222E+02  0.00000000000E+00 0.  1.
</event>
<event>
 7    1  0.6841384E-013  0.5930197E+02  0.7816164E-02  0.1266605E+00
        -11   -1    0    0    0    0  0.00000000000E+00  0.00000000000E+00  0.45593999997E+02  0.45594000000E+02  0.51100000000E-03 0. -1.
         11   -1    0    0    0    0 -0.00000000000E+00 -0.00000000000E+00 -0.45593999997E+02  0.45594000000E+02  0.51100000000E-03 0.  1.
    9900012    2    1    2    0    0 -0.68272154697E+01  0.72970126005E+01  0.30279728414E+02  0.59301965176E+02  0.50000038569E+02 0.  0.
        -12    1    1    2    0    0  0.68272154697E+01 -0.72970126005E+01 -0.30279728414E+02  0.31886034824E+02  0.00000000000E+00 0.  1.
         11    1    3    3    0    0 -0.15211739689E+02 -0.39916904537E+01  0.68703970666E+01  0.17161962975E+02  0.51100000000E-03 0. -1.
        -11    1    3    3    0    0 -0.93238076825E+01  0.70275492341E+00  0.18804890560E+02  0.21001218141E+02  0.51100000000E-03 0.  1.
        -12    1    3    3    0    0  0.17708331902E+02  0.10585948131E+02  0.46044407878E+01  0.21138784060E+02  0.00000000000E+00 0.  1.
</event>
<event>
 7    1  0.6841384E-013  0.5930201E+02  0.7816164E-02  0.1266605E+00
        -11   -1    0    0    0    0  0.00000000000E+00  0.00000000000E+00  0.45593999997E+02  0.45594000000E+02  0.51100000000E-03 0. -1.
         11   -1    0    0    0    0 -0.00000000000E+00 -0.00000000000E+00 -0.45593999997E+02  0.45594000000E+02  0.51100000000E-03 0.  1.
    9900012    2    1    2    0    0  0.67387602110E+01 -0.21621923818E+02  0.22445446610E+02  0.59302006957E+02  0.50000114769E+02 0.  0.
        -12    1    1    2    0    0 -0.67387602110E+01  0.21621923818E+02 -0.22445446610E+02  0.31885993043E+02  0.00000000000E+00 0.  1.
         11    1    3    3    0    0  0.11665844790E+01  0.44869768457E+01 -0.21234803630E+01  0.50993185499E+01  0.51100000000E-03 0. -1.
        -11    1    3    3    0    0  0.73387426321E+01  0.84084770580E+01 -0.10073388895E+01  0.11205996687E+02  0.51100000000E-03 0.  1.
         12    1    3    3    0    0 -0.17665669001E+01 -0.34517377722E+02  0.25576265863E+02  0.42996691720E+02  0.00000000000E+00 0. -1.
</event>
<event>
 7    1  0.6841384E-013  0.5930196E+02  0.7816164E-02  0.1266605E+00
        -11   -1    0    0    0    0  0.00000000000E+00  0.00000000000E+00  0.45593999997E+02  0.45594000000E+02  0.51100000000E-03 0. -1.
         11   -1    0    0    0    0 -0.00000000000E+00 -0.00000000000E+00 -0.45593999997E+02  0.45594000000E+02  0.51100000000E-03 0.  1.
    9900012    2    1    2    0    0  0.48110974616E+01  0.31033476596E+02  0.55223629337E+01  0.59301955704E+02  0.50000021296E+02 0.  0.
        -12    1    1    2    0    0 -0.48110974616E+01 -0.31033476596E+02 -0.55223629337E+01  0.31886044296E+02  0.00000000000E+00 0.  1.
         11    1    3    3    0    0  0.58815230285E+01  0.34932326533E+02  0.18041711065E+02  0.39753780808E+02  0.51100000000E-03 0. -1.
        -11    1    3    3    0    0  0.67073123008E+01 -0.15925850174E+01 -0.60486982941E+01  0.91712112970E+01  0.51100000000E-03 0.  1.
        -12    1    3    3    0    0 -0.77777378678E+01 -0.23062649192E+01 -0.64706498374E+01  0.10376963599E+02  0.00000000000E+00 0.  1.
</event>
<event>
 7    1  0.6841384E-013  0.5930197E+02  0.7816164E-02  0.1266605E+00
        -11   -1    0    0    0    0  0.00000000000E+00  0.00000000000E+00  0.45593999997E+02  0.45594000000E+02  0.51100000000E-03 0.  1.
         11   -1    0    0    0    0 -0.00000000000E+00 -0.00000000000E+00 -0.45593999997E+02  0.45594000000E+02  0.51100000000E-03 0. -1.
    9900012    2    1    2    0    0  0.26553104267E+02 -0.16740666944E+02  0.56037410124E+01  0.59301965608E+02  0.50000039357E+02 0.  0.
        -12    1    1    2    0    0 -0.26553104267E+02  0.16740666944E+02 -0.56037410124E+01  0.31886034392E+02  0.00000000000E+00 0.  1.
         11    1    3    3    0    0  0.99975409607E+01 -0.18911857423E+02 -0.17781292293E+02  0.27816964829E+02  0.51100000000E-03 0. -1.
        -11    1    3    3    0    0  0.10937613140E+02 -0.42201139908E+01  0.90326458838E+01  0.14799643077E+02  0.51100000000E-03 0.  1.
        -12    1    3    3    0    0  0.56179501663E+01  0.63913044694E+01  0.14352387422E+02  0.16685357701E+02  0.00000000000E+00 0.  1.
</event>
<event>
 7    1  0.6841384E-013  0.5930191E+02  0.7816164E-02  0.1266605E+00
        -11   -1    0    0    0    0  0.00000000000E+00  0.00000000000E+00  0.45593999997E+02  0.45594000000E+02  0.51100000000E-03 0. -1.
         11   -1    0    0    0    0 -0.00000000000E+00 -0.00000000000E+00 -0.45593999997E+02  0.45594000000E+02  0.51100000000E-03 0.  1.
    9900012    2    1    2    0    0  0.71539488789E+01 -0.25687245899E+02  0.17484546303E+02  0.59301906701E+02  0.49999931925E+02 0.  0.
        -12    1    1    2    0    0 -0.71539488789E+01  0.25687245899E+02 -0.17484546303E+02  0.31886093299E+02  0.00000000000E+00 0.  1.
         11    1    3    3    0    0  0.13209731391E+02 -0.11726655304E+01 -0.31224212373E+01  0.13624304111E+02  0.51100000000E-03 0. -1.
        -11    1    3    3    0    0  0.60265774363E+01  0.41669916519E+01 -0.15303006033E+01  0.74850033547E+01  0.51100000000E-03 0.  1.
        -12    1    3    3    0    0 -0.12082359948E+02 -0.28681572020E+02  0.22137268144E+02  0.38192599235E+02  0.00000000000E+00 0.  1.
</event>
<event>
 7    1  0.6841384E-013  0.5930192E+02  0.7816164E-02  0.1266605E+00
        -11   -1    0    0    0    0  0.00000000000E+00  0.00000000000E+00  0.45593999997E+02  0.45594000000E+02  0.51100000000E-03 0.  1.
         11   -1    0    0    0    0 -0.00000000000E+00 -0.00000000000E+00 -0.45593999997E+02  0.45594000000E+02  0.51100000000E-03 0. -1.
    9900012    2    1    2    0    0 -0.16811387727E+02 -0.17744137697E+02 -0.20475470181E+02  0.59301920607E+02  0.49999957286E+02 0.  0.
        -12    1    1    2    0    0  0.16811387727E+02  0.17744137697E+02  0.20475470181E+02  0.31886079393E+02  0.00000000000E+00 0.  1.
         11    1    3    3    0    0 -0.12706902293E+02 -0.12948772611E+02 -0.14623040970E+02  0.23301703918E+02  0.51100000000E-03 0. -1.
        -11    1    3    3    0    0  0.58896452460E+01 -0.55987997607E+01 -0.18296268404E+02  0.20019688250E+02  0.51100000000E-03 0.  1.
        -12    1    3    3    0    0 -0.99941306801E+01  0.80343467429E+00  0.12443839192E+02  0.15980528438E+02  0.00000000000E+00 0.  1.
</event>
<event>
 7    1  0.6841384E-013  0.5930195E+02  0.7816164E-02  0.1266605E+00
        -11   -1    0    0    0    0  0.00000000000E+00  0.00000000000E+00  0.45593999997E+02  0.45594000000E+02  0.51100000000E-03 0.  1.
         11   -1    0    0    0    0 -0.00000000000E+00 -0.00000000000E+00 -0.45593999997E+02  0.45594000000E+02  0.51100000000E-03 0. -1.
    9900012    2    1    2    0    0  0.24097907299E+02  0.20836034184E+02 -0.13677176805E+01  0.59301951196E+02  0.50000013073E+02 0.  0.
        -12    1    1    2    0    0 -0.24097907299E+02 -0.20836034184E+02  0.13677176805E+01  0.31886048804E+02  0.00000000000E+00 0.  1.
         11    1    3    3    0    0 -0.31747894268E+01 -0.42876011430E+01  0.39941802557E+01  0.66645545719E+01  0.51100000000E-03 0. -1.
        -11    1    3    3    0    0  0.18257687224E+02  0.62601731059E+01  0.14234381692E+02  0.23982296231E+02  0.51100000000E-03 0.  1.
         12    1    3    3    0    0  0.90150095017E+01  0.18863462221E+02 -0.19596279629E+02  0.28655100393E+02  0.00000000000E+00 0. -1.
</event>
<event>
 7    1  0.6841384E-013  0.5930195E+02  0.7816164E-02  0.1266605E+00
        -11   -1    0    0    0    0  0.00000000000E+00  0.00000000000E+00  0.45593999997E+02  0.45594000000E+02  0.51100000000E-03 0.  1.
         11   -1    0    0    0    0 -0.00000000000E+00 -0.00000000000E+00 -0.45593999997E+02  0.45594000000E+02  0.51100000000E-03 0. -1.
    9900012    2    1    2    0    0  0.14867876870E+02  0.14136957278E+02 -0.24409279544E+02  0.59301948950E+02  0.50000008977E+02 0.  0.
        -12    1    1    2    0    0 -0.14867876870E+02 -0.14136957278E+02  0.24409279544E+02  0.31886051050E+02  0.00000000000E+00 0.  1.
         11    1    3    3    0    0  0.96147532776E+01 -0.10275107444E+01 -0.15762203066E+00  0.96707861048E+01  0.51100000000E-03 0. -1.
        -11    1    3    3    0    0  0.16808328746E+02 -0.65658966773E+01 -0.14534498656E+02  0.23170726485E+02  0.51100000000E-03 0.  1.
         12    1    3    3    0    0 -0.11555205153E+02  0.21730364699E+02 -0.97171588576E+01  0.26460436360E+02  0.00000000000E+00 0. -1.
</event>
<event>
 7    1  0.6841384E-013  0.5930199E+02  0.7816164E-02  0.1266605E+00
        -11   -1    0    0    0    0  0.00000000000E+00  0.00000000000E+00  0.45593999997E+02  0.45594000000E+02  0.51100000000E-03 0.  1.
         11   -1    0    0    0    0 -0.00000000000E+00 -0.00000000000E+00 -0.45593999997E+02  0.45594000000E+02  0.51100000000E-03 0. -1.
    9900012    2    1    2    0    0  0.25298111150E+02  0.15009080960E+02  0.12306540002E+02  0.59301986360E+02  0.50000077204E+02 0.  0.
        -12    1    1    2    0    0 -0.25298111150E+02 -0.15009080960E+02 -0.12306540002E+02  0.31886013640E+02  0.00000000000E+00 0.  1.
         11    1    3    3    0    0  0.49791602197E+01  0.16483110456E+02 -0.85235531571E+01  0.19212910386E+02  0.51100000000E-03 0. -1.
        -11    1    3    3    0    0  0.16035762935E+02  0.11912266970E+02  0.99618413350E+01  0.22322322467E+02  0.51100000000E-03 0.  1.
        -12    1    3    3    0    0  0.42831879956E+01 -0.13386296466E+02  0.10868251824E+02  0.17766753508E+02  0.00000000000E+00 0.  1.
</event>
<event>
 7    1  0.6841384E-013  0.5930200E+02  0.7816164E-02  0.1266605E+00
        -11   -1    0    0    0    0  0.00000000000E+00  0.00000000000E+00  0.45593999997E+02  0.45594000000E+02  0.51100000000E-03 0.  1.
         11   -1    0    0    0    0 -0.00000000000E+00 -0.00000000000E+00 -0.45593999997E+02  0.45594000000E+02  0.51100000000E-03 0. -1.
    9900012    2    1    2    0    0  0.20645000064E+02  0.19081120905E+02 -0.15046984739E+02  0.59302000684E+02  0.50000103327E+02 0.  0.
        -12    1    1    2    0    0 -0.20645000064E+02 -0.19081120905E+02  0.15046984739E+02  0.31885999316E+02  0.00000000000E+00 0.  1.
         11    1    3    3    0    0  0.42123177748E+01  0.11102700283E+02  0.62626983356E+01  0.13425161650E+02  0.51100000000E-03 0. -1.
        -11    1    3    3    0    0  0.43565523703E+01  0.52225835509E+01  0.10063965389E+02  0.12146535601E+02  0.51100000000E-03 0.  1.
         12    1    3    3    0    0  0.12076129919E+02  0.27558370713E+01 -0.31373648463E+02  0.33730303433E+02  0.00000000000E+00 0. -1.
</event>
<event>
 7    1  0.6841384E-013  0.5930196E+02  0.7816164E-02  0.1266605E+00
        -11   -1    0    0    0    0  0.00000000000E+00  0.00000000000E+00  0.45593999997E+02  0.45594000000E+02  0.51100000000E-03 0.  1.
         11   -1    0    0    0    0 -0.00000000000E+00 -0.00000000000E+00 -0.45593999997E+02  0.45594000000E+02  0.51100000000E-03 0. -1.
    9900012    2    1    2    0    0  0.57381806260E+01 -0.78078990304E+00 -0.31355747656E+02  0.59301964486E+02  0.50000037311E+02 0.  0.
        -12    1    1    2    0    0 -0.57381806260E+01  0.78078990304E+00  0.31355747656E+02  0.31886035514E+02  0.00000000000E+00 0.  1.
         11    1    3    3    0    0  0.47249108402E+01  0.17993047439E+01 -0.14707828497E+02  0.15552572114E+02  0.51100000000E-03 0. -1.
        -11    1    3    3    0    0 -0.91292662113E+01  0.90389014833E+01 -0.23570261889E+02  0.26844040071E+02  0.51100000000E-03 0.  1.
        -12    1    3    3    0    0  0.10142535997E+02 -0.11618996130E+02  0.69223427302E+01  0.16905352300E+02  0.00000000000E+00 0.  1.
</event>
<event>
 7    1  0.6841384E-013  0.5930207E+02  0.7816164E-02  0.1266604E+00
        -11   -1    0    0    0    0  0.00000000000E+00  0.00000000000E+00  0.45593999997E+02  0.45594000000E+02  0.51100000000E-03 0.  1.
         11   -1    0    0    0    0 -0.00000000000E+00 -0.00000000000E+00 -0.45593999997E+02  0.45594000000E+02  0.51100000000E-03 0. -1.
    9900012    2    1    2    0    0  0.27916570372E+02  0.12867776226E+02  0.84733558928E+01  0.59302073223E+02  0.50000235621E+02 0.  0.
        -12    1    1    2    0    0 -0.27916570372E+02 -0.12867776226E+02 -0.84733558928E+01  0.31885926777E+02  0.00000000000E+00 0.  1.
         11    1    3    3    0    0 -0.31554925307E+01 -0.48706643188E+01 -0.10139208868E+02  0.11682639288E+02  0.51100000000E-03 0. -1.
        -11    1    3    3    0    0 -0.83151797006E+00 -0.41997066825E+01  0.49888670928E+01  0.65740211046E+01  0.51100000000E-03 0.  1.
         12    1    3    3    0    0  0.31903580873E+02  0.21938147227E+02  0.13623697668E+02  0.41045412830E+02  0.00000000000E+00 0. -1.
</event>
<event>
 7    1  0.6841384E-013  0.5930174E+02  0.7816164E-02  0.1266605E+00
        -11   -1    0    0    0    0  0.00000000000E+00  0.00000000000E+00  0.45593999997E+02  0.45594000000E+02  0.51100000000E-03 0. -1.
         11   -1    0    0    0    0 -0.00000000000E+00 -0.00000000000E+00 -0.45593999997E+02  0.45594000000E+02  0.51100000000E-03 0.  1.
    9900012    2    1    2    0    0  0.13982943205E+02  0.23679721137E+02  0.16139441604E+02  0.59301741689E+02  0.49999630982E+02 0.  0.
        -12    1    1    2    0    0 -0.13982943205E+02 -0.23679721137E+02 -0.16139441604E+02  0.31886258311E+02  0.00000000000E+00 0.  1.
         11    1    3    3    0    0  0.79890575839E+01  0.10594053559E+02  0.13271785877E+02  0.18766973984E+02  0.51100000000E-03 0. -1.
        -11    1    3    3    0    0 -0.20301325949E+01 -0.10748027624E+02 -0.75746735961E+01  0.13304781716E+02  0.51100000000E-03 0.  1.
         12    1    3    3    0    0  0.80240182157E+01  0.23833695202E+02  0.10442329322E+02  0.27229985989E+02  0.00000000000E+00 0. -1.
</event>
<event>
 7    1  0.6841384E-013  0.5930183E+02  0.7816164E-02  0.1266605E+00
        -11   -1    0    0    0    0  0.00000000000E+00  0.00000000000E+00  0.45593999997E+02  0.45594000000E+02  0.51100000000E-03 0. -1.
         11   -1    0    0    0    0 -0.00000000000E+00 -0.00000000000E+00 -0.45593999997E+02  0.45594000000E+02  0.51100000000E-03 0.  1.
    9900012    2    1    2    0    0 -0.10411690993E+02  0.17763675741E+02  0.24346994244E+02  0.59301833503E+02  0.49999798428E+02 0.  0.
        -12    1    1    2    0    0  0.10411690993E+02 -0.17763675741E+02 -0.24346994244E+02  0.31886166497E+02  0.00000000000E+00 0.  1.
         11    1    3    3    0    0 -0.71297953533E+01  0.14588357336E+02 -0.15501832037E+01  0.16311260520E+02  0.51100000000E-03 0.  1.
        -11    1    3    3    0    0  0.14243169492E+02  0.15230873675E+01  0.19639941691E+02  0.24308742917E+02  0.51100000000E-03 0. -1.
         12    1    3    3    0    0 -0.17525065132E+02  0.16522310380E+01  0.62572357567E+01  0.18681830065E+02  0.00000000000E+00 0. -1.
</event>
<event>
 7    1  0.6841384E-013  0.5930194E+02  0.7816164E-02  0.1266605E+00
        -11   -1    0    0    0    0  0.00000000000E+00  0.00000000000E+00  0.45593999997E+02  0.45594000000E+02  0.51100000000E-03 0.  1.
         11   -1    0    0    0    0 -0.00000000000E+00 -0.00000000000E+00 -0.45593999997E+02  0.45594000000E+02  0.51100000000E-03 0. -1.
    9900012    2    1    2    0    0  0.26565885416E+01 -0.26622708430E+02 -0.17346325243E+02  0.59301936175E+02  0.49999985678E+02 0.  0.
        -12    1    1    2    0    0 -0.26565885416E+01  0.26622708430E+02  0.17346325243E+02  0.31886063825E+02  0.00000000000E+00 0.  1.
         11    1    3    3    0    0  0.58675397312E+01 -0.68943128023E+01  0.24305919720E+01  0.93737585369E+01  0.51100000000E-03 0. -1.
        -11    1    3    3    0    0  0.15602441660E+02 -0.78831546831E+01  0.34043487835E+01  0.17809264567E+02  0.51100000000E-03 0.  1.
         12    1    3    3    0    0 -0.18813392850E+02 -0.11845240945E+02 -0.23181265999E+02  0.32118913071E+02  0.00000000000E+00 0. -1.
</event>
<event>
 7    1  0.6841384E-013  0.5930193E+02  0.7816164E-02  0.1266605E+00
        -11   -1    0    0    0    0  0.00000000000E+00  0.00000000000E+00  0.45593999997E+02  0.45594000000E+02  0.51100000000E-03 0. -1.
         11   -1    0    0    0    0 -0.00000000000E+00 -0.00000000000E+00 -0.45593999997E+02  0.45594000000E+02  0.51100000000E-03 0.  1.
    9900012    2    1    2    0    0  0.21511876688E+01  0.30872941446E+02  0.76782188096E+01  0.59301934611E+02  0.49999982827E+02 0.  0.
        -12    1    1    2    0    0 -0.21511876688E+01 -0.30872941446E+02 -0.76782188096E+01  0.31886065389E+02  0.00000000000E+00 0.  1.
         11    1    3    3    0    0 -0.20458875440E+02  0.13670041451E+02  0.12868854276E+02  0.27767661554E+02  0.51100000000E-03 0. -1.
        -11    1    3    3    0    0 -0.11187101033E+01 -0.74665430423E+00 -0.35308389418E+00  0.13905658714E+01  0.51100000000E-03 0.  1.
        -12    1    3    3    0    0  0.23728773212E+02  0.17949554299E+02 -0.48375515722E+01  0.30143707186E+02  0.00000000000E+00 0.  1.
</event>
<event>
 7    1  0.6841384E-013  0.5930192E+02  0.7816164E-02  0.1266605E+00
        -11   -1    0    0    0    0  0.00000000000E+00  0.00000000000E+00  0.45593999997E+02  0.45594000000E+02  0.51100000000E-03 0.  1.
         11   -1    0    0    0    0 -0.00000000000E+00 -0.00000000000E+00 -0.45593999997E+02  0.45594000000E+02  0.51100000000E-03 0. -1.
    9900012    2    1    2    0    0  0.22551576637E+02  0.16542036598E+02  0.15313698160E+02  0.59301922553E+02  0.49999960836E+02 0.  0.
        -12    1    1    2    0    0 -0.22551576637E+02 -0.16542036598E+02 -0.15313698160E+02  0.31886077447E+02  0.00000000000E+00 0.  1.
         11    1    3    3    0    0  0.11714984735E+00 -0.10177737271E+02  0.84905368606E+01  0.13254783155E+02  0.51100000000E-03 0. -1.
        -11    1    3    3    0    0 -0.23026708324E+01  0.50445311537E+00 -0.70437546987E+01  0.74277349458E+01  0.51100000000E-03 0.  1.
         12    1    3    3    0    0  0.24737097622E+02  0.26215320754E+02  0.13866915998E+02  0.38619404452E+02  0.00000000000E+00 0. -1.
</event>
<event>
 7    1  0.6841384E-013  0.5930194E+02  0.7816164E-02  0.1266605E+00
        -11   -1    0    0    0    0  0.00000000000E+00  0.00000000000E+00  0.45593999997E+02  0.45594000000E+02  0.51100000000E-03 0.  1.
         11   -1    0    0    0    0 -0.00000000000E+00 -0.00000000000E+00 -0.45593999997E+02  0.45594000000E+02  0.51100000000E-03 0. -1.
    9900012    2    1    2    0    0 -0.30951857306E+02 -0.75073622274E+01  0.15307225099E+01  0.59301936121E+02  0.49999985580E+02 0.  0.
        -12    1    1    2    0    0  0.30951857306E+02  0.75073622274E+01 -0.15307225099E+01  0.31886063879E+02  0.00000000000E+00 0.  1.
         11    1    3    3    0    0 -0.19772146731E+02 -0.99151864490E+01 -0.61286511457E+01  0.22952321752E+02  0.51100000000E-03 0. -1.
        -11    1    3    3    0    0 -0.20850351038E+02 -0.70281075431E+01  0.41659645826E+01  0.22393898616E+02  0.51100000000E-03 0.  1.
        -12    1    3    3    0    0  0.96706404636E+01  0.94359317646E+01  0.34934090730E+01  0.13955715754E+02  0.00000000000E+00 0.  1.
</event>
<event>
 7    1  0.6841384E-013  0.5930195E+02  0.7816164E-02  0.1266605E+00
        -11   -1    0    0    0    0  0.00000000000E+00  0.00000000000E+00  0.45593999997E+02  0.45594000000E+02  0.51100000000E-03 0.  1.
         11   -1    0    0    0    0 -0.00000000000E+00 -0.00000000000E+00 -0.45593999997E+02  0.45594000000E+02  0.51100000000E-03 0. -1.
    9900012    2    1    2    0    0 -0.63186196002E+01 -0.48406437420E+00 -0.31249974918E+02  0.59301949690E+02  0.50000010327E+02 0.  0.
        -12    1    1    2    0    0  0.63186196002E+01  0.48406437420E+00  0.31249974918E+02  0.31886050310E+02  0.00000000000E+00 0.  1.
         11    1    3    3    0    0 -0.10418456287E+02 -0.23178254766E+02 -0.84467185736E+01  0.26779148237E+02  0.51100000000E-03 0.  1.
        -11    1    3    3    0    0  0.29488246775E+01  0.11254870035E+02 -0.10325052200E+02  0.15555525375E+02  0.51100000000E-03 0. -1.
        -12    1    3    3    0    0  0.11510120093E+01  0.11439320356E+02 -0.12478204145E+02  0.16967276079E+02  0.00000000000E+00 0.  1.
</event>
<event>
 7    1  0.6841384E-013  0.5930194E+02  0.7816164E-02  0.1266605E+00
        -11   -1    0    0    0    0  0.00000000000E+00  0.00000000000E+00  0.45593999997E+02  0.45594000000E+02  0.51100000000E-03 0. -1.
         11   -1    0    0    0    0 -0.00000000000E+00 -0.00000000000E+00 -0.45593999997E+02  0.45594000000E+02  0.51100000000E-03 0.  1.
    9900012    2    1    2    0    0 -0.15656880478E+02  0.27565878711E+02 -0.34212896742E+01  0.59301940374E+02  0.49999993337E+02 0.  0.
        -12    1    1    2    0    0  0.15656880478E+02 -0.27565878711E+02  0.34212896742E+01  0.31886059626E+02  0.00000000000E+00 0.  1.
         11    1    3    3    0    0 -0.13371889564E+01  0.10904341312E+02 -0.13044960938E+01  0.11063202253E+02  0.51100000000E-03 0.  1.
        -11    1    3    3    0    0 -0.16175582850E+02  0.30077430418E+02  0.16183402222E+01  0.34189476837E+02  0.51100000000E-03 0. -1.
         12    1    3    3    0    0  0.18558913283E+01 -0.13415893019E+02 -0.37351338026E+01  0.14049261284E+02  0.00000000000E+00 0. -1.
</event>
<event>
 7    1  0.6841384E-013  0.5930195E+02  0.7816164E-02  0.1266605E+00
        -11   -1    0    0    0    0  0.00000000000E+00  0.00000000000E+00  0.45593999997E+02  0.45594000000E+02  0.51100000000E-03 0.  1.
         11   -1    0    0    0    0 -0.00000000000E+00 -0.00000000000E+00 -0.45593999997E+02  0.45594000000E+02  0.51100000000E-03 0. -1.
    9900012    2    1    2    0    0  0.97356283182E+01 -0.65363875455E+01 -0.29651532347E+02  0.59301949893E+02  0.50000010698E+02 0.  0.
        -12    1    1    2    0    0 -0.97356283182E+01  0.65363875455E+01  0.29651532347E+02  0.31886050107E+02  0.00000000000E+00 0.  1.
         11    1    3    3    0    0  0.91793105817E+01 -0.14601825928E+02 -0.13382009290E+01  0.17299244063E+02  0.51100000000E-03 0. -1.
        -11    1    3    3    0    0  0.50924765571E+01 -0.88315363877E+01 -0.19764101810E+01  0.10384389723E+02  0.51100000000E-03 0.  1.
         12    1    3    3    0    0 -0.45361588206E+01  0.16896974770E+02 -0.26336921237E+02  0.31618316107E+02  0.00000000000E+00 0. -1.
</event>
<event>
 7    1  0.6841384E-013  0.5930195E+02  0.7816164E-02  0.1266605E+00
        -11   -1    0    0    0    0  0.00000000000E+00  0.00000000000E+00  0.45593999997E+02  0.45594000000E+02  0.51100000000E-03 0. -1.
         11   -1    0    0    0    0 -0.00000000000E+00 -0.00000000000E+00 -0.45593999997E+02  0.45594000000E+02  0.51100000000E-03 0.  1.
    9900012    2    1    2    0    0  0.82239942859E+01  0.30358060967E+02  0.52415877003E+01  0.59301949926E+02  0.50000010758E+02 0.  0.
        -12    1    1    2    0    0 -0.82239942859E+01 -0.30358060967E+02 -0.52415877003E+01  0.31886050074E+02  0.00000000000E+00 0.  1.
         11    1    3    3    0    0 -0.86846522944E+01  0.14664412005E+02  0.26879586049E+01  0.17253790501E+02  0.51100000000E-03 0. -1.
        -11    1    3    3    0    0  0.66560304666E+01  0.18516522269E+02 -0.12725300063E+02  0.23432831679E+02  0.51100000000E-03 0.  1.
         12    1    3    3    0    0  0.10252616114E+02 -0.28228733073E+01  0.15278929159E+02  0.18615327747E+02  0.00000000000E+00 0. -1.
</event>
<event>
 7    1  0.6841384E-013  0.5930193E+02  0.7816164E-02  0.1266605E+00
        -11   -1    0    0    0    0  0.00000000000E+00  0.00000000000E+00  0.45593999997E+02  0.45594000000E+02  0.51100000000E-03 0.  1.
         11   -1    0    0    0    0 -0.00000000000E+00 -0.00000000000E+00 -0.45593999997E+02  0.45594000000E+02  0.51100000000E-03 0. -1.
    9900012    2    1    2    0    0 -0.41413566009E+01  0.28957862426E+02 -0.12689092940E+02  0.59301926074E+02  0.49999967257E+02 0.  0.
        -12    1    1    2    0    0  0.41413566009E+01 -0.28957862426E+02  0.12689092940E+02  0.31886073926E+02  0.00000000000E+00 0.  1.
         11    1    3    3    0    0  0.32331275908E-02 -0.23530062687E+01  0.18830902479E+01  0.30137481807E+01  0.51100000000E-03 0. -1.
        -11    1    3    3    0    0  0.72636259600E+01 -0.93205012499E+01 -0.58843325781E+01  0.13200658157E+02  0.51100000000E-03 0.  1.
         12    1    3    3    0    0 -0.11408215689E+02  0.40631369945E+02 -0.86878506100E+01  0.43087519736E+02  0.00000000000E+00 0. -1.
</event>
<event>
 7    1  0.6841384E-013  0.5930195E+02  0.7816164E-02  0.1266605E+00
        -11   -1    0    0    0    0  0.00000000000E+00  0.00000000000E+00  0.45593999997E+02  0.45594000000E+02  0.51100000000E-03 0.  1.
         11   -1    0    0    0    0 -0.00000000000E+00 -0.00000000000E+00 -0.45593999997E+02  0.45594000000E+02  0.51100000000E-03 0. -1.
    9900012    2    1    2    0    0  0.24200737560E+02  0.20653347803E+02 -0.21175283007E+01  0.59301946621E+02  0.50000004730E+02 0.  0.
        -12    1    1    2    0    0 -0.24200737560E+02 -0.20653347803E+02  0.21175283007E+01  0.31886053379E+02  0.00000000000E+00 0.  1.
         11    1    3    3    0    0 -0.26980178442E+01  0.60451114346E+01  0.15100226940E+02  0.16487556715E+02  0.51100000000E-03 0. -1.
        -11    1    3    3    0    0  0.13172109589E+02  0.15200940722E+02  0.83097939737E+00  0.20131159849E+02  0.51100000000E-03 0.  1.
         12    1    3    3    0    0  0.13726645816E+02 -0.59270435353E+00 -0.18048734638E+02  0.22683230057E+02  0.00000000000E+00 0. -1.
</event>
<event>
 7    1  0.6841384E-013  0.5930192E+02  0.7816164E-02  0.1266605E+00
        -11   -1    0    0    0    0  0.00000000000E+00  0.00000000000E+00  0.45593999997E+02  0.45594000000E+02  0.51100000000E-03 0.  1.
         11   -1    0    0    0    0 -0.00000000000E+00 -0.00000000000E+00 -0.45593999997E+02  0.45594000000E+02  0.51100000000E-03 0. -1.
    9900012    2    1    2    0    0  0.29260062680E+02 -0.12118291867E+02 -0.37037681921E+01  0.59301918952E+02  0.49999954268E+02 0.  0.
        -12    1    1    2    0    0 -0.29260062680E+02  0.12118291867E+02  0.37037681921E+01  0.31886081048E+02  0.00000000000E+00 0.  1.
         11    1    3    3    0    0  0.69467045253E+01 -0.50934375296E+01  0.35520521442E+01  0.93175578520E+01  0.51100000000E-03 0. -1.
        -11    1    3    3    0    0  0.12725643464E+01  0.16613248645E+02  0.25454342534E+01  0.16855227271E+02  0.51100000000E-03 0.  1.
         12    1    3    3    0    0  0.21040793808E+02 -0.23638102983E+02 -0.98012545896E+01  0.33129133828E+02  0.00000000000E+00 0. -1.
</event>
<event>
 7    1  0.6841384E-013  0.5930195E+02  0.7816164E-02  0.1266605E+00
        -11   -1    0    0    0    0  0.00000000000E+00  0.00000000000E+00  0.45593999997E+02  0.45594000000E+02  0.51100000000E-03 0.  1.
         11   -1    0    0    0    0 -0.00000000000E+00 -0.00000000000E+00 -0.45593999997E+02  0.45594000000E+02  0.51100000000E-03 0. -1.
    9900012    2    1    2    0    0 -0.39811042585E+01  0.63340000932E+01 -0.30995993891E+02  0.59301946849E+02  0.50000005145E+02 0.  0.
        -12    1    1    2    0    0  0.39811042585E+01 -0.63340000932E+01  0.30995993891E+02  0.31886053151E+02  0.00000000000E+00 0.  1.
         11    1    3    3    0    0 -0.30154063281E+00  0.22294496504E+01  0.48285022535E+00  0.23009817683E+01  0.51100000000E-03 0. -1.
        -11    1    3    3    0    0 -0.10330370955E+02 -0.70696759830E+01  0.83870639107E+01  0.15067837399E+02  0.51100000000E-03 0.  1.
         12    1    3    3    0    0  0.66508073297E+01  0.11174226426E+02 -0.39865908027E+02  0.41933127681E+02  0.00000000000E+00 0. -1.
</event>
<event>
 7    1  0.6841384E-013  0.5930215E+02  0.7816164E-02  0.1266604E+00
        -11   -1    0    0    0    0  0.00000000000E+00  0.00000000000E+00  0.45593999997E+02  0.45594000000E+02  0.51100000000E-03 0.  1.
         11   -1    0    0    0    0 -0.00000000000E+00 -0.00000000000E+00 -0.45593999997E+02  0.45594000000E+02  0.51100000000E-03 0. -1.
    9900012    2    1    2    0    0 -0.27296034618E+01 -0.23855453928E+02 -0.20980318864E+02  0.59302153660E+02  0.50000382318E+02 0.  0.
        -12    1    1    2    0    0  0.27296034618E+01  0.23855453928E+02  0.20980318864E+02  0.31885846340E+02  0.00000000000E+00 0.  1.
         11    1    3    3    0    0  0.43555203812E+01 -0.95404786235E+01 -0.35984482169E+01  0.11087836578E+02  0.51100000000E-03 0. -1.
        -11    1    3    3    0    0 -0.23811618241E+01 -0.29040890283E+02 -0.14271138408E+02  0.32445471668E+02  0.51100000000E-03 0.  1.
         12    1    3    3    0    0 -0.47039620189E+01  0.14725914979E+02 -0.31107322396E+01  0.15768845414E+02  0.00000000000E+00 0. -1.
</event>
<event>
 7    1  0.6841384E-013  0.5930190E+02  0.7816164E-02  0.1266605E+00
        -11   -1    0    0    0    0  0.00000000000E+00  0.00000000000E+00  0.45593999997E+02  0.45594000000E+02  0.51100000000E-03 0.  1.
         11   -1    0    0    0    0 -0.00000000000E+00 -0.00000000000E+00 -0.45593999997E+02  0.45594000000E+02  0.51100000000E-03 0. -1.
    9900012    2    1    2    0    0 -0.78012872962E+01 -0.20720756791E+02 -0.22945879458E+02  0.59301902253E+02  0.49999923812E+02 0.  0.
        -12    1    1    2    0    0  0.78012872962E+01  0.20720756791E+02  0.22945879458E+02  0.31886097747E+02  0.00000000000E+00 0.  1.
         11    1    3    3    0    0 -0.18079093721E+02 -0.18784449575E+02 -0.47864378711E+01  0.26506964431E+02  0.51100000000E-03 0. -1.
        -11    1    3    3    0    0 -0.19729987431E+01  0.44186096625E+01  0.42739614883E+01  0.64562824020E+01  0.51100000000E-03 0.  1.
        -12    1    3    3    0    0  0.12250805167E+02 -0.63549168782E+01 -0.22433403075E+02  0.26338655420E+02  0.00000000000E+00 0.  1.
</event>
<event>
 7    1  0.6841384E-013  0.5930195E+02  0.7816164E-02  0.1266605E+00
        -11   -1    0    0    0    0  0.00000000000E+00  0.00000000000E+00  0.45593999997E+02  0.45594000000E+02  0.51100000000E-03 0.  1.
         11   -1    0    0    0    0 -0.00000000000E+00 -0.00000000000E+00 -0.45593999997E+02  0.45594000000E+02  0.51100000000E-03 0. -1.
    9900012    2    1    2    0    0 -0.19475675780E+02  0.24667925948E+02 -0.53769751806E+01  0.59301946940E+02  0.50000005311E+02 0.  0.
        -12    1    1    2    0    0  0.19475675780E+02 -0.24667925948E+02  0.53769751806E+01  0.31886053060E+02  0.00000000000E+00 0.  1.
         11    1    3    3    0    0 -0.12253835293E+02  0.18633212621E+02  0.63860678323E+01  0.23197735979E+02  0.51100000000E-03 0.  1.
        -11    1    3    3    0    0  0.48958398429E-01 -0.11427286588E+02  0.33329132515E+01  0.11903511528E+02  0.51100000000E-03 0. -1.
         12    1    3    3    0    0 -0.72707988853E+01  0.17461999916E+02 -0.15095956264E+02  0.24200699432E+02  0.00000000000E+00 0. -1.
</event>
<event>
 7    1  0.6841384E-013  0.5930195E+02  0.7816164E-02  0.1266605E+00
        -11   -1    0    0    0    0  0.00000000000E+00  0.00000000000E+00  0.45593999997E+02  0.45594000000E+02  0.51100000000E-03 0. -1.
         11   -1    0    0    0    0 -0.00000000000E+00 -0.00000000000E+00 -0.45593999997E+02  0.45594000000E+02  0.51100000000E-03 0.  1.
    9900012    2    1    2    0    0 -0.29986529293E+02  0.10827165240E+02  0.54815182464E+00  0.59301954203E+02  0.50000018557E+02 0.  0.
        -12    1    1    2    0    0  0.29986529293E+02 -0.10827165240E+02 -0.54815182464E+00  0.31886045797E+02  0.00000000000E+00 0.  1.
         11    1    3    3    0    0 -0.81796130807E+00 -0.11175108660E+02  0.69091807273E+01  0.13163923916E+02  0.51100000000E-03 0. -1.
        -11    1    3    3    0    0  0.57789988497E-01 -0.52319562791E+01  0.14577738525E+01  0.54315569642E+01  0.51100000000E-03 0.  1.
        -12    1    3    3    0    0 -0.29226357973E+02  0.27234230180E+02 -0.78188027551E+01  0.40706473323E+02  0.00000000000E+00 0.  1.
</event>
<event>
 7    1  0.6841384E-013  0.5930195E+02  0.7816164E-02  0.1266605E+00
        -11   -1    0    0    0    0  0.00000000000E+00  0.00000000000E+00  0.45593999997E+02  0.45594000000E+02  0.51100000000E-03 0. -1.
         11   -1    0    0    0    0 -0.00000000000E+00 -0.00000000000E+00 -0.45593999997E+02  0.45594000000E+02  0.51100000000E-03 0.  1.
    9900012    2    1    2    0    0 -0.17338031832E+02  0.59968014662E+01  0.26079712088E+02  0.59301947277E+02  0.50000005926E+02 0.  0.
        -12    1    1    2    0    0  0.17338031832E+02 -0.59968014662E+01 -0.26079712088E+02  0.31886052723E+02  0.00000000000E+00 0.  1.
         11    1    3    3    0    0  0.63881530593E+00  0.36083263417E+01  0.95901638521E+01  0.10266418409E+02  0.51100000000E-03 0. -1.
        -11    1    3    3    0    0  0.97049624914E+01 -0.40402485669E+01  0.17705387316E+02  0.20591033138E+02  0.51100000000E-03 0.  1.
        -12    1    3    3    0    0 -0.27681809629E+02  0.64287236915E+01 -0.12158390793E+01  0.28444495730E+02  0.00000000000E+00 0.  1.
</event>
<event>
 7    1  0.6841384E-013  0.5930192E+02  0.7816164E-02  0.1266605E+00
        -11   -1    0    0    0    0  0.00000000000E+00  0.00000000000E+00  0.45593999997E+02  0.45594000000E+02  0.51100000000E-03 0.  1.
         11   -1    0    0    0    0 -0.00000000000E+00 -0.00000000000E+00 -0.45593999997E+02  0.45594000000E+02  0.51100000000E-03 0. -1.
    9900012    2    1    2    0    0  0.22792863311E+02  0.21397326770E+02 -0.62738862508E+01  0.59301923736E+02  0.49999962993E+02 0.  0.
        -12    1    1    2    0    0 -0.22792863311E+02 -0.21397326770E+02  0.62738862508E+01  0.31886076264E+02  0.00000000000E+00 0.  1.
         11    1    3    3    0    0 -0.56718148553E+01 -0.66376362641E+01 -0.29804386080E+01  0.92255467851E+01  0.51100000000E-03 0. -1.
        -11    1    3    3    0    0  0.12840947961E+02 -0.25836854204E+01  0.60890693980E+01  0.14444450190E+02  0.51100000000E-03 0.  1.
         12    1    3    3    0    0  0.15623730205E+02  0.30618648455E+02 -0.93825170408E+01  0.35631926761E+02  0.00000000000E+00 0. -1.
</event>
<event>
 7    1  0.6841384E-013  0.5930206E+02  0.7816164E-02  0.1266604E+00
        -11   -1    0    0    0    0  0.00000000000E+00  0.00000000000E+00  0.45593999997E+02  0.45594000000E+02  0.51100000000E-03 0.  1.
         11   -1    0    0    0    0 -0.00000000000E+00 -0.00000000000E+00 -0.45593999997E+02  0.45594000000E+02  0.51100000000E-03 0. -1.
    9900012    2    1    2    0    0  0.29875159328E+01 -0.28195666677E+02 -0.14587392304E+02  0.59302064464E+02  0.50000219646E+02 0.  0.
        -12    1    1    2    0    0 -0.29875159328E+01  0.28195666677E+02  0.14587392304E+02  0.31885935536E+02  0.00000000000E+00 0.  1.
         11    1    3    3    0    0 -0.13678920952E+02 -0.19303624916E+02 -0.17524872137E+02  0.29442553507E+02  0.51100000000E-03 0. -1.
        -11    1    3    3    0    0  0.52866903745E+01 -0.14370846179E+02  0.66516430321E+01  0.16694749783E+02  0.51100000000E-03 0.  1.
        -12    1    3    3    0    0  0.11379746510E+02  0.54788044186E+01 -0.37141631989E+01  0.13164761174E+02  0.00000000000E+00 0.  1.
</event>
<event>
 7    1  0.6841384E-013  0.5930194E+02  0.7816164E-02  0.1266605E+00
        -11   -1    0    0    0    0  0.00000000000E+00  0.00000000000E+00  0.45593999997E+02  0.45594000000E+02  0.51100000000E-03 0.  1.
         11   -1    0    0    0    0 -0.00000000000E+00 -0.00000000000E+00 -0.45593999997E+02  0.45594000000E+02  0.51100000000E-03 0. -1.
    9900012    2    1    2    0    0  0.45278426340E+01  0.29725599189E+02 -0.10611706504E+02  0.59301938453E+02  0.49999989832E+02 0.  0.
        -12    1    1    2    0    0 -0.45278426340E+01 -0.29725599189E+02  0.10611706504E+02  0.31886061547E+02  0.00000000000E+00 0.  1.
         11    1    3    3    0    0 -0.11059145783E+02  0.65607514666E+01 -0.14257512397E+02  0.19199604820E+02  0.51100000000E-03 0. -1.
        -11    1    3    3    0    0  0.59329984332E+00  0.14717874642E+01  0.12258714615E+02  0.12360997019E+02  0.51100000000E-03 0.  1.
         12    1    3    3    0    0  0.14993688574E+02  0.21693060258E+02 -0.86129087219E+01  0.27741336613E+02  0.00000000000E+00 0. -1.
</event>
<event>
 7    1  0.6841384E-013  0.5930194E+02  0.7816164E-02  0.1266605E+00
        -11   -1    0    0    0    0  0.00000000000E+00  0.00000000000E+00  0.45593999997E+02  0.45594000000E+02  0.51100000000E-03 0. -1.
         11   -1    0    0    0    0 -0.00000000000E+00 -0.00000000000E+00 -0.45593999997E+02  0.45594000000E+02  0.51100000000E-03 0.  1.
    9900012    2    1    2    0    0 -0.15848905073E+02  0.60969369203E+01  0.26988153971E+02  0.59301938992E+02  0.49999990817E+02 0.  0.
        -12    1    1    2    0    0  0.15848905073E+02 -0.60969369203E+01 -0.26988153971E+02  0.31886061008E+02  0.00000000000E+00 0.  1.
         11    1    3    3    0    0 -0.14322912251E+02  0.66675869148E+01  0.17868060404E+02  0.23850998165E+02  0.51100000000E-03 0.  1.
        -11    1    3    3    0    0 -0.70544553479E+01  0.10405682608E+02  0.16781785619E+02  0.20968354719E+02  0.51100000000E-03 0. -1.
        -12    1    3    3    0    0  0.55284625261E+01 -0.10976332603E+02 -0.76616920513E+01  0.14482586109E+02  0.00000000000E+00 0.  1.
</event>
<event>
 7    1  0.6841384E-013  0.5930194E+02  0.7816164E-02  0.1266605E+00
        -11   -1    0    0    0    0  0.00000000000E+00  0.00000000000E+00  0.45593999997E+02  0.45594000000E+02  0.51100000000E-03 0.  1.
         11   -1    0    0    0    0 -0.00000000000E+00 -0.00000000000E+00 -0.45593999997E+02  0.45594000000E+02  0.51100000000E-03 0. -1.
    9900012    2    1    2    0    0  0.10191381037E+02 -0.32723261436E+01 -0.30035791160E+02  0.59301935388E+02  0.49999984243E+02 0.  0.
        -12    1    1    2    0    0 -0.10191381037E+02  0.32723261436E+01  0.30035791160E+02  0.31886064612E+02  0.00000000000E+00 0.  1.
         11    1    3    3    0    0  0.21422204635E+02 -0.11696554384E+02 -0.14923854258E+02  0.28608419426E+02  0.51100000000E-03 0. -1.
        -11    1    3    3    0    0  0.30127476837E+01 -0.48050441221E+01 -0.83852495538E+01  0.10123117502E+02  0.51100000000E-03 0.  1.
        -12    1    3    3    0    0 -0.14243571282E+02  0.13229272363E+02 -0.67266873484E+01  0.20570398460E+02  0.00000000000E+00 0.  1.
</event>
<event>
 7    1  0.6841384E-013  0.5930194E+02  0.7816164E-02  0.1266605E+00
        -11   -1    0    0    0    0  0.00000000000E+00  0.00000000000E+00  0.45593999997E+02  0.45594000000E+02  0.51100000000E-03 0. -1.
         11   -1    0    0    0    0 -0.00000000000E+00 -0.00000000000E+00 -0.45593999997E+02  0.45594000000E+02  0.51100000000E-03 0.  1.
    9900012    2    1    2    0    0  0.26172611478E+02  0.13134009312E+02  0.12617968188E+02  0.59301938572E+02  0.49999990050E+02 0.  0.
        -12    1    1    2    0    0 -0.26172611478E+02 -0.13134009312E+02 -0.12617968188E+02  0.31886061428E+02  0.00000000000E+00 0.  1.
         11    1    3    3    0    0  0.95327507985E+01 -0.39946854533E+01 -0.43448094409E+01  0.11211967668E+02  0.51100000000E-03 0. -1.
        -11    1    3    3    0    0  0.66207301631E+01  0.14692556869E+02 -0.10175411796E+02  0.19058969036E+02  0.51100000000E-03 0.  1.
         12    1    3    3    0    0  0.10019130517E+02  0.24361378965E+01  0.27138189425E+02  0.29031001867E+02  0.00000000000E+00 0. -1.
</event>
<event>
 7    1  0.6841384E-013  0.5930195E+02  0.7816164E-02  0.1266605E+00
        -11   -1    0    0    0    0  0.00000000000E+00  0.00000000000E+00  0.45593999997E+02  0.45594000000E+02  0.51100000000E-03 0. -1.
         11   -1    0    0    0    0 -0.00000000000E+00 -0.00000000000E+00 -0.45593999997E+02  0.45594000000E+02  0.51100000000E-03 0.  1.
    9900012    2    1    2    0    0 -0.21831487922E+01  0.25815353585E+02 -0.18588216195E+02  0.59301946612E+02  0.50000004712E+02 0.  0.
        -12    1    1    2    0    0  0.21831487922E+01 -0.25815353585E+02  0.18588216195E+02  0.31886053388E+02  0.00000000000E+00 0.  1.
         11    1    3    3    0    0  0.11032155268E+01  0.66023738669E+01  0.13706920572E+02  0.15254117378E+02  0.51100000000E-03 0. -1.
        -11    1    3    3    0    0  0.31233132579E+01  0.13090434920E+02 -0.34805288394E+01  0.13900670968E+02  0.51100000000E-03 0.  1.
        -12    1    3    3    0    0 -0.64096775769E+01  0.61225447982E+01 -0.28814607927E+02  0.30147158265E+02  0.00000000000E+00 0.  1.
</event>
<event>
 7    1  0.6841384E-013  0.5930195E+02  0.7816164E-02  0.1266605E+00
        -11   -1    0    0    0    0  0.00000000000E+00  0.00000000000E+00  0.45593999997E+02  0.45594000000E+02  0.51100000000E-03 0. -1.
         11   -1    0    0    0    0 -0.00000000000E+00 -0.00000000000E+00 -0.45593999997E+02  0.45594000000E+02  0.51100000000E-03 0.  1.
    9900012    2    1    2    0    0 -0.21713114017E+01  0.29164277535E+02 -0.12706321209E+02  0.59301948567E+02  0.50000008278E+02 0.  0.
        -12    1    1    2    0    0  0.21713114017E+01 -0.29164277535E+02  0.12706321209E+02  0.31886051433E+02  0.00000000000E+00 0.  1.
         11    1    3    3    0    0 -0.11422227810E+02  0.34148709698E+02 -0.85509915576E+00  0.36018507145E+02  0.51100000000E-03 0. -1.
        -11    1    3    3    0    0  0.61891319276E+01  0.60043660503E+01 -0.54876435294E+01  0.10221154409E+02  0.51100000000E-03 0.  1.
        -12    1    3    3    0    0  0.30617844809E+01 -0.10988798213E+02 -0.63635785237E+01  0.13062287012E+02  0.00000000000E+00 0.  1.
</event>
<event>
 7    1  0.6841384E-013  0.5930196E+02  0.7816164E-02  0.1266605E+00
        -11   -1    0    0    0    0  0.00000000000E+00  0.00000000000E+00  0.45593999997E+02  0.45594000000E+02  0.51100000000E-03 0.  1.
         11   -1    0    0    0    0 -0.00000000000E+00 -0.00000000000E+00 -0.45593999997E+02  0.45594000000E+02  0.51100000000E-03 0. -1.
    9900012    2    1    2    0    0 -0.29463209778E+02 -0.11881071149E+02  0.27348141467E+01  0.59301956180E+02  0.50000022163E+02 0.  0.
        -12    1    1    2    0    0  0.29463209778E+02  0.11881071149E+02 -0.27348141467E+01  0.31886043820E+02  0.00000000000E+00 0.  1.
         11    1    3    3    0    0 -0.97580349360E+01 -0.53463533763E+00 -0.83983500851E+01  0.12885548695E+02  0.51100000000E-03 0. -1.
        -11    1    3    3    0    0 -0.12358819823E+02  0.63074259698E+00 -0.13340384751E+02  0.18196266903E+02  0.51100000000E-03 0.  1.
        -12    1    3    3    0    0 -0.73463550190E+01 -0.11977178408E+02  0.24473548982E+02  0.28220140582E+02  0.00000000000E+00 0.  1.
</event>
<event>
 7    1  0.6841384E-013  0.5930191E+02  0.7816164E-02  0.1266605E+00
        -11   -1    0    0    0    0  0.00000000000E+00  0.00000000000E+00  0.45593999997E+02  0.45594000000E+02  0.51100000000E-03 0.  1.
         11   -1    0    0    0    0 -0.00000000000E+00 -0.00000000000E+00 -0.45593999997E+02  0.45594000000E+02  0.51100000000E-03 0. -1.
    9900012    2    1    2    0    0  0.30034535074E+02 -0.10453745728E+01 -0.10656308417E+02  0.59301905630E+02  0.49999929972E+02 0.  0.
        -12    1    1    2    0    0 -0.30034535074E+02  0.10453745728E+01  0.10656308417E+02  0.31886094370E+02  0.00000000000E+00 0.  1.
         11    1    3    3    0    0  0.13643679733E+02  0.47463049371E+01 -0.18385687311E+02  0.23381849913E+02  0.51100000000E-03 0.  1.
        -11    1    3    3    0    0  0.13005627325E+02  0.14064371527E+01 -0.10014589514E+02  0.16474720361E+02  0.51100000000E-03 0. -1.
        -12    1    3    3    0    0  0.33852280155E+01 -0.71981166625E+01  0.17743968409E+02  0.19445335356E+02  0.00000000000E+00 0.  1.
</event>
<event>
 7    1  0.6841384E-013  0.5930194E+02  0.7816164E-02  0.1266605E+00
        -11   -1    0    0    0    0  0.00000000000E+00  0.00000000000E+00  0.45593999997E+02  0.45594000000E+02  0.51100000000E-03 0. -1.
         11   -1    0    0    0    0 -0.00000000000E+00 -0.00000000000E+00 -0.45593999997E+02  0.45594000000E+02  0.51100000000E-03 0.  1.
    9900012    2    1    2    0    0 -0.17485360537E+02  0.53116638372E+01  0.26129849431E+02  0.59301942904E+02  0.49999997951E+02 0.  0.
        -12    1    1    2    0    0  0.17485360537E+02 -0.53116638372E+01 -0.26129849431E+02  0.31886057096E+02  0.00000000000E+00 0.  1.
         11    1    3    3    0    0  0.10020027636E+02 -0.27520037757E+01 -0.13835475321E+01  0.10482780291E+02  0.51100000000E-03 0. -1.
        -11    1    3    3    0    0 -0.12759193031E+02  0.70854070405E+00 -0.38874343965E+01  0.13357064916E+02  0.51100000000E-03 0.  1.
         12    1    3    3    0    0 -0.14746195142E+02  0.73551269089E+01  0.31400831359E+02  0.35462097697E+02  0.00000000000E+00 0. -1.
</event>
<event>
 7    1  0.6841384E-013  0.5930195E+02  0.7816164E-02  0.1266605E+00
        -11   -1    0    0    0    0  0.00000000000E+00  0.00000000000E+00  0.45593999997E+02  0.45594000000E+02  0.51100000000E-03 0.  1.
         11   -1    0    0    0    0 -0.00000000000E+00 -0.00000000000E+00 -0.45593999997E+02  0.45594000000E+02  0.51100000000E-03 0. -1.
    9900012    2    1    2    0    0 -0.42132769866E+01 -0.63042159316E+01 -0.30971368311E+02  0.59301945109E+02  0.50000001972E+02 0.  0.
        -12    1    1    2    0    0  0.42132769866E+01  0.63042159316E+01  0.30971368311E+02  0.31886054891E+02  0.00000000000E+00 0.  1.
         11    1    3    3    0    0  0.82534762164E+01  0.46240866984E+01  0.67035611977E+01  0.11594816965E+02  0.51100000000E-03 0. -1.
        -11    1    3    3    0    0 -0.91328098689E+01 -0.24978911477E+01 -0.54220797694E+00  0.94837580125E+01  0.51100000000E-03 0.  1.
         12    1    3    3    0    0 -0.33339433341E+01 -0.84304114822E+01 -0.37132721531E+02  0.38223370132E+02  0.00000000000E+00 0. -1.
</event>
<event>
 7    1  0.6841384E-013  0.5930196E+02  0.7816164E-02  0.1266605E+00
        -11   -1    0    0    0    0  0.00000000000E+00  0.00000000000E+00  0.45593999997E+02  0.45594000000E+02  0.51100000000E-03 0.  1.
         11   -1    0    0    0    0 -0.00000000000E+00 -0.00000000000E+00 -0.45593999997E+02  0.45594000000E+02  0.51100000000E-03 0. -1.
    9900012    2    1    2    0    0  0.35449854029E+01 -0.44338076820E+00 -0.31685264278E+02  0.59301961043E+02  0.50000031032E+02 0.  0.
        -12    1    1    2    0    0 -0.35449854029E+01  0.44338076820E+00  0.31685264278E+02  0.31886038957E+02  0.00000000000E+00 0.  1.
         11    1    3    3    0    0  0.15256645537E+02 -0.75832231789E+01 -0.30271446480E+01  0.17304164580E+02  0.51100000000E-03 0. -1.
        -11    1    3    3    0    0  0.63135728742E+01  0.94357059396E+00  0.12764273120E+01  0.65100533675E+01  0.51100000000E-03 0.  1.
        -12    1    3    3    0    0 -0.18025233008E+02  0.61962718168E+01 -0.29934546942E+02  0.35487743096E+02  0.00000000000E+00 0.  1.
</event>
<event>
 7    1  0.6841384E-013  0.5930198E+02  0.7816164E-02  0.1266605E+00
        -11   -1    0    0    0    0  0.00000000000E+00  0.00000000000E+00  0.45593999997E+02  0.45594000000E+02  0.51100000000E-03 0.  1.
         11   -1    0    0    0    0 -0.00000000000E+00 -0.00000000000E+00 -0.45593999997E+02  0.45594000000E+02  0.51100000000E-03 0. -1.
    9900012    2    1    2    0    0 -0.15973386171E+02  0.26201702821E+02 -0.86625714941E+01  0.59301977336E+02  0.50000060745E+02 0.  0.
        -12    1    1    2    0    0  0.15973386171E+02 -0.26201702821E+02  0.86625714941E+01  0.31886022664E+02  0.00000000000E+00 0.  1.
         11    1    3    3    0    0 -0.31190310046E+01 -0.64110753136E+01 -0.44850581802E+01  0.84229441543E+01  0.51100000000E-03 0. -1.
        -11    1    3    3    0    0 -0.17937121264E+02  0.12578093982E+02  0.11680601429E+02  0.24827106506E+02  0.51100000000E-03 0.  1.
         12    1    3    3    0    0  0.50827660971E+01  0.20034684153E+02 -0.15858114743E+02  0.26051926676E+02  0.00000000000E+00 0. -1.
</event>
<event>
 7    1  0.6841384E-013  0.5930194E+02  0.7816164E-02  0.1266605E+00
        -11   -1    0    0    0    0  0.00000000000E+00  0.00000000000E+00  0.45593999997E+02  0.45594000000E+02  0.51100000000E-03 0.  1.
         11   -1    0    0    0    0 -0.00000000000E+00 -0.00000000000E+00 -0.45593999997E+02  0.45594000000E+02  0.51100000000E-03 0. -1.
    9900012    2    1    2    0    0  0.85424814725E+01  0.11605086742E+02 -0.28444139391E+02  0.59301935745E+02  0.49999984894E+02 0.  0.
        -12    1    1    2    0    0 -0.85424814725E+01 -0.11605086742E+02  0.28444139391E+02  0.31886064255E+02  0.00000000000E+00 0.  1.
         11    1    3    3    0    0  0.13009695776E+02 -0.21193386390E+01 -0.18337177288E+02  0.22583087734E+02  0.51100000000E-03 0. -1.
        -11    1    3    3    0    0 -0.68898654025E+01 -0.19928919066E+01 -0.17698711849E+02  0.19096760584E+02  0.51100000000E-03 0.  1.
        -12    1    3    3    0    0  0.24226510986E+01  0.15717317288E+02  0.75917497463E+01  0.17622087427E+02  0.00000000000E+00 0.  1.
</event>
<event>
 7    1  0.6841384E-013  0.5930194E+02  0.7816164E-02  0.1266605E+00
        -11   -1    0    0    0    0  0.00000000000E+00  0.00000000000E+00  0.45593999997E+02  0.45594000000E+02  0.51100000000E-03 0.  1.
         11   -1    0    0    0    0 -0.00000000000E+00 -0.00000000000E+00 -0.45593999997E+02  0.45594000000E+02  0.51100000000E-03 0. -1.
    9900012    2    1    2    0    0 -0.25903009689E+02 -0.63618457427E+01 -0.17472310592E+02  0.59301943022E+02  0.49999998165E+02 0.  0.
        -12    1    1    2    0    0  0.25903009689E+02  0.63618457427E+01  0.17472310592E+02  0.31886056978E+02  0.00000000000E+00 0.  1.
         11    1    3    3    0    0 -0.30435587891E+02  0.27449417593E+01  0.49571402107E+00  0.30563138716E+02  0.51100000000E-03 0. -1.
        -11    1    3    3    0    0 -0.92286017189E+00 -0.58734125478E+01 -0.20916609263E+02  0.21745187725E+02  0.51100000000E-03 0.  1.
        -12    1    3    3    0    0  0.54554383742E+01 -0.32333749542E+01  0.29485846496E+01  0.69936165812E+01  0.00000000000E+00 0.  1.
</event>
<event>
 7    1  0.6841384E-013  0.5930193E+02  0.7816164E-02  0.1266605E+00
        -11   -1    0    0    0    0  0.00000000000E+00  0.00000000000E+00  0.45593999997E+02  0.45594000000E+02  0.51100000000E-03 0. -1.
         11   -1    0    0    0    0 -0.00000000000E+00 -0.00000000000E+00 -0.45593999997E+02  0.45594000000E+02  0.51100000000E-03 0.  1.
    9900012    2    1    2    0    0 -0.23914712198E+02 -0.18180945824E+02  0.10689295255E+02  0.59301932766E+02  0.49999979461E+02 0.  0.
        -12    1    1    2    0    0  0.23914712198E+02  0.18180945824E+02 -0.10689295255E+02  0.31886067234E+02  0.00000000000E+00 0.  1.
         11    1    3    3    0    0  0.67702557797E+00 -0.16435515806E+02 -0.67303002935E+01  0.17773055048E+02  0.51100000000E-03 0. -1.
        -11    1    3    3    0    0 -0.11884282152E+02 -0.13762769144E+02  0.21484416580E+01  0.18310264296E+02  0.51100000000E-03 0.  1.
         12    1    3    3    0    0 -0.12707455624E+02  0.12017339125E+02  0.15271153891E+02  0.23218613422E+02  0.00000000000E+00 0. -1.
</event>
<event>
 7    1  0.6841384E-013  0.5930196E+02  0.7816164E-02  0.1266605E+00
        -11   -1    0    0    0    0  0.00000000000E+00  0.00000000000E+00  0.45593999997E+02  0.45594000000E+02  0.51100000000E-03 0. -1.
         11   -1    0    0    0    0 -0.00000000000E+00 -0.00000000000E+00 -0.45593999997E+02  0.45594000000E+02  0.51100000000E-03 0.  1.
    9900012    2    1    2    0    0 -0.56845752169E+01 -0.24445759398E+02  0.19667492448E+02  0.59301955919E+02  0.50000021687E+02 0.  0.
        -12    1    1    2    0    0  0.56845752169E+01  0.24445759398E+02 -0.19667492448E+02  0.31886044081E+02  0.00000000000E+00 0.  1.
         11    1    3    3    0    0  0.12471898652E+02 -0.94119878598E+01  0.10132595183E+02  0.18622654399E+02  0.51100000000E-03 0. -1.
        -11    1    3    3    0    0  0.86707935301E+01  0.21770789963E+00  0.25257423770E+01  0.90337938867E+01  0.51100000000E-03 0.  1.
        -12    1    3    3    0    0 -0.26827267399E+02 -0.15251479438E+02  0.70091548877E+01  0.31645507633E+02  0.00000000000E+00 0.  1.
</event>
<event>
 7    1  0.6841384E-013  0.5930193E+02  0.7816164E-02  0.1266605E+00
        -11   -1    0    0    0    0  0.00000000000E+00  0.00000000000E+00  0.45593999997E+02  0.45594000000E+02  0.51100000000E-03 0.  1.
         11   -1    0    0    0    0 -0.00000000000E+00 -0.00000000000E+00 -0.45593999997E+02  0.45594000000E+02  0.51100000000E-03 0. -1.
    9900012    2    1    2    0    0  0.54357224061E+01 -0.78885545126E+01 -0.30412906405E+02  0.59301933351E+02  0.49999980528E+02 0.  0.
        -12    1    1    2    0    0 -0.54357224061E+01  0.78885545126E+01  0.30412906405E+02  0.31886066649E+02  0.00000000000E+00 0.  1.
         11    1    3    3    0    0  0.75553593405E+01  0.93092425041E+01 -0.23520465938E+02  0.26399957746E+02  0.51100000000E-03 0. -1.
        -11    1    3    3    0    0  0.59725061611E+01 -0.21599811949E+02 -0.20744521054E+01  0.22506133783E+02  0.51100000000E-03 0.  1.
         12    1    3    3    0    0 -0.80921430955E+01  0.44020149321E+01 -0.48179883608E+01  0.10395841822E+02  0.00000000000E+00 0. -1.
</event>
<event>
 7    1  0.6841384E-013  0.5930194E+02  0.7816164E-02  0.1266605E+00
        -11   -1    0    0    0    0  0.00000000000E+00  0.00000000000E+00  0.45593999997E+02  0.45594000000E+02  0.51100000000E-03 0. -1.
         11   -1    0    0    0    0 -0.00000000000E+00 -0.00000000000E+00 -0.45593999997E+02  0.45594000000E+02  0.51100000000E-03 0.  1.
    9900012    2    1    2    0    0  0.13678142432E+02  0.28673065876E+02 -0.27358082257E+01  0.59301938252E+02  0.49999989466E+02 0.  0.
        -12    1    1    2    0    0 -0.13678142432E+02 -0.28673065876E+02  0.27358082257E+01  0.31886061748E+02  0.00000000000E+00 0.  1.
         11    1    3    3    0    0  0.91074873874E+01  0.51131369276E+00 -0.48678071372E+01  0.10339405921E+02  0.51100000000E-03 0. -1.
        -11    1    3    3    0    0 -0.27822569572E+01 -0.58358881249E+01  0.11275176085E+02  0.12997235860E+02  0.51100000000E-03 0.  1.
         12    1    3    3    0    0  0.73529120021E+01  0.33997640309E+02 -0.91431771738E+01  0.35965296472E+02  0.00000000000E+00 0. -1.
</event>
<event>
 7    1  0.6841384E-013  0.5930195E+02  0.7816164E-02  0.1266605E+00
        -11   -1    0    0    0    0  0.00000000000E+00  0.00000000000E+00  0.45593999997E+02  0.45594000000E+02  0.51100000000E-03 0.  1.
         11   -1    0    0    0    0 -0.00000000000E+00 -0.00000000000E+00 -0.45593999997E+02  0.45594000000E+02  0.51100000000E-03 0. -1.
    9900012    2    1    2    0    0  0.16644139196E+02  0.19197352501E+02 -0.19265373665E+02  0.59301947640E+02  0.50000006589E+02 0.  0.
        -12    1    1    2    0    0 -0.16644139196E+02 -0.19197352501E+02  0.19265373665E+02  0.31886052360E+02  0.00000000000E+00 0.  1.
         11    1    3    3    0    0  0.52701986514E+01  0.12218759912E+02  0.67861475190E+01  0.14937365431E+02  0.51100000000E-03 0. -1.
        -11    1    3    3    0    0  0.73035682332E+01  0.11543395667E+02  0.35696647139E+01  0.14118590542E+02  0.51100000000E-03 0.  1.
         12    1    3    3    0    0  0.40703723118E+01 -0.45648030788E+01 -0.29621185898E+02  0.30245991667E+02  0.00000000000E+00 0. -1.
</event>
<event>
 7    1  0.6841384E-013  0.5930195E+02  0.7816164E-02  0.1266605E+00
        -11   -1    0    0    0    0  0.00000000000E+00  0.00000000000E+00  0.45593999997E+02  0.45594000000E+02  0.51100000000E-03 0.  1.
         11   -1    0    0    0    0 -0.00000000000E+00 -0.00000000000E+00 -0.45593999997E+02  0.45594000000E+02  0.51100000000E-03 0. -1.
    9900012    2    1    2    0    0  0.97733176672E+01 -0.57189608317E+01 -0.29807651079E+02  0.59301947970E+02  0.50000007189E+02 0.  0.
        -12    1    1    2    0    0 -0.97733176672E+01  0.57189608317E+01  0.29807651079E+02  0.31886052030E+02  0.00000000000E+00 0.  1.
         11    1    3    3    0    0  0.16984705852E+02 -0.59967596300E+01  0.42380211979E+00  0.18017240838E+02  0.51100000000E-03 0. -1.
        -11    1    3    3    0    0 -0.17823778021E+01 -0.20498714151E+01  0.49309148466E+01  0.56296327530E+01  0.51100000000E-03 0.  1.
        -12    1    3    3    0    0 -0.54290103825E+01  0.23276702134E+01 -0.35162368046E+02  0.35655074378E+02  0.00000000000E+00 0.  1.
</event>
<event>
 7    1  0.6841384E-013  0.5930211E+02  0.7816164E-02  0.1266604E+00
        -11   -1    0    0    0    0  0.00000000000E+00  0.00000000000E+00  0.45593999997E+02  0.45594000000E+02  0.51100000000E-03 0. -1.
         11   -1    0    0    0    0 -0.00000000000E+00 -0.00000000000E+00 -0.45593999997E+02  0.45594000000E+02  0.51100000000E-03 0.  1.
    9900012    2    1    2    0    0  0.30532197779E+02 -0.90108592563E+01  0.18163097734E+01  0.59302114926E+02  0.50000311676E+02 0.  0.
        -12    1    1    2    0    0 -0.30532197779E+02  0.90108592563E+01 -0.18163097734E+01  0.31885885074E+02  0.00000000000E+00 0.  1.
         11    1    3    3    0    0  0.63537177403E+01 -0.15241900076E+02 -0.52103159577E+01  0.17315676125E+02  0.51100000000E-03 0. -1.
        -11    1    3    3    0    0  0.61279129063E+01 -0.11785310140E+02 -0.44652496810E+01  0.14013682837E+02  0.51100000000E-03 0.  1.
         12    1    3    3    0    0  0.18050567133E+02  0.18016350959E+02  0.11491875412E+02  0.27972755963E+02  0.00000000000E+00 0. -1.
</event>
<event>
 7    1  0.6841384E-013  0.5930192E+02  0.7816164E-02  0.1266605E+00
        -11   -1    0    0    0    0  0.00000000000E+00  0.00000000000E+00  0.45593999997E+02  0.45594000000E+02  0.51100000000E-03 0.  1.
         11   -1    0    0    0    0 -0.00000000000E+00 -0.00000000000E+00 -0.45593999997E+02  0.45594000000E+02  0.51100000000E-03 0. -1.
    9900012    2    1    2    0    0  0.26411281946E+01 -0.27244706373E+02 -0.16354590367E+02  0.59301918247E+02  0.49999952982E+02 0.  0.
        -12    1    1    2    0    0 -0.26411281946E+01  0.27244706373E+02  0.16354590367E+02  0.31886081753E+02  0.00000000000E+00 0.  1.
         11    1    3    3    0    0  0.57911897887E+01  0.16317906161E+01 -0.13729137614E+01  0.61713460639E+01  0.51100000000E-03 0. -1.
        -11    1    3    3    0    0 -0.83458457393E+01 -0.65134238829E+01 -0.25698539367E+02  0.27793753932E+02  0.51100000000E-03 0.  1.
         12    1    3    3    0    0  0.51957841452E+01 -0.22363073106E+02  0.10716862761E+02  0.25336818251E+02  0.00000000000E+00 0. -1.
</event>
<event>
 7    1  0.6841384E-013  0.5930190E+02  0.7816164E-02  0.1266605E+00
        -11   -1    0    0    0    0  0.00000000000E+00  0.00000000000E+00  0.45593999997E+02  0.45594000000E+02  0.51100000000E-03 0.  1.
         11   -1    0    0    0    0 -0.00000000000E+00 -0.00000000000E+00 -0.45593999997E+02  0.45594000000E+02  0.51100000000E-03 0. -1.
    9900012    2    1    2    0    0  0.79613250905E+01  0.24441797154E+01 -0.30779321105E+02  0.59301900844E+02  0.49999921243E+02 0.  0.
        -12    1    1    2    0    0 -0.79613250905E+01 -0.24441797154E+01  0.30779321105E+02  0.31886099156E+02  0.00000000000E+00 0.  1.
         11    1    3    3    0    0 -0.30400384415E+01  0.67080724296E+00  0.45282898321E+01  0.54952001918E+01  0.51100000000E-03 0. -1.
        -11    1    3    3    0    0  0.12627036438E+02  0.19214730899E+02 -0.21830713484E+02  0.31705330533E+02  0.51100000000E-03 0.  1.
         12    1    3    3    0    0 -0.16256729061E+01 -0.17441358427E+02 -0.13476897454E+02  0.22101370119E+02  0.00000000000E+00 0. -1.
</event>
<event>
 7    1  0.6841384E-013  0.5930208E+02  0.7816164E-02  0.1266604E+00
        -11   -1    0    0    0    0  0.00000000000E+00  0.00000000000E+00  0.45593999997E+02  0.45594000000E+02  0.51100000000E-03 0.  1.
         11   -1    0    0    0    0 -0.00000000000E+00 -0.00000000000E+00 -0.45593999997E+02  0.45594000000E+02  0.51100000000E-03 0. -1.
    9900012    2    1    2    0    0  0.55138128807E+01  0.99850827624E+01 -0.29775964538E+02  0.59302077175E+02  0.50000242827E+02 0.  0.
        -12    1    1    2    0    0 -0.55138128807E+01 -0.99850827624E+01  0.29775964538E+02  0.31885922825E+02  0.00000000000E+00 0.  1.
         11    1    3    3    0    0 -0.10457786391E+01  0.13565434468E+02 -0.63128127303E+01  0.14998875628E+02  0.51100000000E-03 0. -1.
        -11    1    3    3    0    0  0.38790929207E+01  0.11066820201E+02 -0.26613966169E+02  0.29083071824E+02  0.51100000000E-03 0.  1.
        -12    1    3    3    0    0  0.26804985991E+01 -0.14647171907E+02  0.31508143608E+01  0.15220129722E+02  0.00000000000E+00 0.  1.
</event>
<event>
 7    1  0.6841384E-013  0.5930194E+02  0.7816164E-02  0.1266605E+00
        -11   -1    0    0    0    0  0.00000000000E+00  0.00000000000E+00  0.45593999997E+02  0.45594000000E+02  0.51100000000E-03 0. -1.
         11   -1    0    0    0    0 -0.00000000000E+00 -0.00000000000E+00 -0.45593999997E+02  0.45594000000E+02  0.51100000000E-03 0.  1.
    9900012    2    1    2    0    0  0.25186244630E+02 -0.13367375053E+02  0.14271899047E+02  0.59301941341E+02  0.49999995100E+02 0.  0.
        -12    1    1    2    0    0 -0.25186244630E+02  0.13367375053E+02 -0.14271899047E+02  0.31886058659E+02  0.00000000000E+00 0.  1.
         11    1    3    3    0    0  0.67810981487E+01  0.14426985306E+01  0.68860673471E+01  0.97715195810E+01  0.51100000000E-03 0. -1.
        -11    1    3    3    0    0  0.15135837434E+01 -0.86062690989E+01  0.23688579563E+02  0.25248912958E+02  0.51100000000E-03 0.  1.
         12    1    3    3    0    0  0.16891562738E+02 -0.62038044850E+01 -0.16302747863E+02  0.24281508802E+02  0.00000000000E+00 0. -1.
</event>
<event>
 7    1  0.6841384E-013  0.5930195E+02  0.7816164E-02  0.1266605E+00
        -11   -1    0    0    0    0  0.00000000000E+00  0.00000000000E+00  0.45593999997E+02  0.45594000000E+02  0.51100000000E-03 0. -1.
         11   -1    0    0    0    0 -0.00000000000E+00 -0.00000000000E+00 -0.45593999997E+02  0.45594000000E+02  0.51100000000E-03 0.  1.
    9900012    2    1    2    0    0  0.29799680415E+02  0.18321993431E+01  0.11195633128E+02  0.59301951195E+02  0.50000013071E+02 0.  0.
        -12    1    1    2    0    0 -0.29799680415E+02 -0.18321993431E+01 -0.11195633128E+02  0.31886048805E+02  0.00000000000E+00 0.  1.
         11    1    3    3    0    0  0.21770161688E+02  0.94889463140E+01  0.86190483093E+01  0.25263967148E+02  0.51100000000E-03 0. -1.
        -11    1    3    3    0    0  0.14721892260E+02  0.78708165675E+01 -0.11160370202E+01  0.16731090940E+02  0.51100000000E-03 0.  1.
         12    1    3    3    0    0 -0.66923735331E+01 -0.15527563538E+02  0.36926218384E+01  0.17306893106E+02  0.00000000000E+00 0. -1.
</event>
<event>
 7    1  0.6841384E-013  0.5930193E+02  0.7816164E-02  0.1266605E+00
        -11   -1    0    0    0    0  0.00000000000E+00  0.00000000000E+00  0.45593999997E+02  0.45594000000E+02  0.51100000000E-03 0.  1.
         11   -1    0    0    0    0 -0.00000000000E+00 -0.00000000000E+00 -0.45593999997E+02  0.45594000000E+02  0.51100000000E-03 0. -1.
    9900012    2    1    2    0    0  0.22440728102E+01  0.31689609436E+02  0.27302356778E+01  0.59301931007E+02  0.49999976253E+02 0.  0.
        -12    1    1    2    0    0 -0.22440728102E+01 -0.31689609436E+02 -0.27302356778E+01  0.31886068993E+02  0.00000000000E+00 0.  1.
         11    1    3    3    0    0  0.44126318667E+01  0.15909132898E+02 -0.91032517614E+01  0.18853143570E+02  0.51100000000E-03 0. -1.
        -11    1    3    3    0    0  0.13083333409E+02  0.17248623051E+02  0.12704513124E+02  0.25101658595E+02  0.51100000000E-03 0.  1.
         12    1    3    3    0    0 -0.15251892465E+02 -0.14681465133E+01 -0.87102568507E+00  0.15347128842E+02  0.00000000000E+00 0. -1.
</event>
<event>
 7    1  0.6841384E-013  0.5930196E+02  0.7816164E-02  0.1266605E+00
        -11   -1    0    0    0    0  0.00000000000E+00  0.00000000000E+00  0.45593999997E+02  0.45594000000E+02  0.51100000000E-03 0. -1.
         11   -1    0    0    0    0 -0.00000000000E+00 -0.00000000000E+00 -0.45593999997E+02  0.45594000000E+02  0.51100000000E-03 0.  1.
    9900012    2    1    2    0    0  0.22299038948E+02 -0.49771178756E+00  0.22786502903E+02  0.59301959644E+02  0.50000028480E+02 0.  0.
        -12    1    1    2    0    0 -0.22299038948E+02  0.49771178756E+00 -0.22786502903E+02  0.31886040356E+02  0.00000000000E+00 0.  1.
         11    1    3    3    0    0 -0.21340001824E+01 -0.13125941712E+01  0.59575465369E+01  0.64629112045E+01  0.51100000000E-03 0. -1.
        -11    1    3    3    0    0  0.16431809119E+01 -0.11543146779E+02 -0.10124164084E+02  0.15441599002E+02  0.51100000000E-03 0.  1.
        -12    1    3    3    0    0  0.22789858219E+02  0.12358029163E+02  0.26953120450E+02  0.37397449437E+02  0.00000000000E+00 0.  1.
</event>
<event>
 7    1  0.6841384E-013  0.5930195E+02  0.7816164E-02  0.1266605E+00
        -11   -1    0    0    0    0  0.00000000000E+00  0.00000000000E+00  0.45593999997E+02  0.45594000000E+02  0.51100000000E-03 0. -1.
         11   -1    0    0    0    0 -0.00000000000E+00 -0.00000000000E+00 -0.45593999997E+02  0.45594000000E+02  0.51100000000E-03 0.  1.
    9900012    2    1    2    0    0 -0.53038941427E+01 -0.23333096174E+02  0.21074995971E+02  0.59301950930E+02  0.50000012589E+02 0.  0.
        -12    1    1    2    0    0  0.53038941427E+01  0.23333096174E+02 -0.21074995971E+02  0.31886049070E+02  0.00000000000E+00 0.  1.
         11    1    3    3    0    0  0.12491119144E+01  0.92318701118E+01  0.65901612683E+01  0.11411307206E+02  0.51100000000E-03 0. -1.
        -11    1    3    3    0    0  0.47191835762E+01  0.47294561241E+01  0.23891053286E+01  0.70955107912E+01  0.51100000000E-03 0.  1.
        -12    1    3    3    0    0 -0.11272189633E+02 -0.37294422409E+02  0.12095729374E+02  0.40795132934E+02  0.00000000000E+00 0.  1.
</event>
<event>
 7    1  0.6841384E-013  0.5930193E+02  0.7816164E-02  0.1266605E+00
        -11   -1    0    0    0    0  0.00000000000E+00  0.00000000000E+00  0.45593999997E+02  0.45594000000E+02  0.51100000000E-03 0.  1.
         11   -1    0    0    0    0 -0.00000000000E+00 -0.00000000000E+00 -0.45593999997E+02  0.45594000000E+02  0.51100000000E-03 0. -1.
    9900012    2    1    2    0    0  0.72931311816E+01 -0.24772385098E+02 -0.18704567265E+02  0.59301926826E+02  0.49999968629E+02 0.  0.
        -12    1    1    2    0    0 -0.72931311816E+01  0.24772385098E+02  0.18704567265E+02  0.31886073174E+02  0.00000000000E+00 0.  1.
         11    1    3    3    0    0  0.62276524398E+01 -0.15063050122E+02 -0.12983557963E+01  0.16351295420E+02  0.51100000000E-03 0. -1.
        -11    1    3    3    0    0  0.90201136895E+01 -0.38048621061E+01  0.98878615134E+01  0.13914353459E+02  0.51100000000E-03 0.  1.
         12    1    3    3    0    0 -0.79546349477E+01 -0.59044728695E+01 -0.27294072983E+02  0.29036277947E+02  0.00000000000E+00 0. -1.
</event>
<event>
 7    1  0.6841384E-013  0.5930194E+02  0.7816164E-02  0.1266605E+00
        -11   -1    0    0    0    0  0.00000000000E+00  0.00000000000E+00  0.45593999997E+02  0.45594000000E+02  0.51100000000E-03 0.  1.
         11   -1    0    0    0    0 -0.00000000000E+00 -0.00000000000E+00 -0.45593999997E+02  0.45594000000E+02  0.51100000000E-03 0. -1.
    9900012    2    1    2    0    0  0.13647029967E+02 -0.22028695635E+02 -0.18579980976E+02  0.59301944249E+02  0.50000000404E+02 0.  0.
        -12    1    1    2    0    0 -0.13647029967E+02  0.22028695635E+02  0.18579980976E+02  0.31886055751E+02  0.00000000000E+00 0.  1.
         11    1    3    3    0    0  0.26318726940E+02 -0.16230202654E+02 -0.22406724781E+01  0.31001862514E+02  0.51100000000E-03 0. -1.
        -11    1    3    3    0    0 -0.37166009313E+01 -0.33513330684E+01  0.36941185927E+01  0.62202144864E+01  0.51100000000E-03 0.  1.
        -12    1    3    3    0    0 -0.89550960415E+01 -0.24471599127E+01 -0.20033427090E+02  0.22079867249E+02  0.00000000000E+00 0.  1.
</event>
<event>
 7    1  0.6841384E-013  0.5930192E+02  0.7816164E-02  0.1266605E+00
        -11   -1    0    0    0    0  0.00000000000E+00  0.00000000000E+00  0.45593999997E+02  0.45594000000E+02  0.51100000000E-03 0.  1.
         11   -1    0    0    0    0 -0.00000000000E+00 -0.00000000000E+00 -0.45593999997E+02  0.45594000000E+02  0.51100000000E-03 0. -1.
    9900012    2    1    2    0    0  0.45671294839E+01 -0.11804358762E+02 -0.29266371987E+02  0.59301920172E+02  0.49999956492E+02 0.  0.
        -12    1    1    2    0    0 -0.45671294839E+01  0.11804358762E+02  0.29266371987E+02  0.31886079828E+02  0.00000000000E+00 0.  1.
         11    1    3    3    0    0  0.12292067926E+02  0.37044364785E+01 -0.17247118799E+02  0.21500718375E+02  0.51100000000E-03 0. -1.
        -11    1    3    3    0    0 -0.78969652809E+01 -0.17088564474E+02  0.59645484383E+01  0.19747327281E+02  0.51100000000E-03 0.  1.
         12    1    3    3    0    0  0.17202683882E+00  0.15797692331E+01 -0.17983801626E+02  0.18053874515E+02  0.00000000000E+00 0. -1.
</event>
<event>
 7    1  0.6841384E-013  0.5930195E+02  0.7816164E-02  0.1266605E+00
        -11   -1    0    0    0    0  0.00000000000E+00  0.00000000000E+00  0.45593999997E+02  0.45594000000E+02  0.51100000000E-03 0. -1.
         11   -1    0    0    0    0 -0.00000000000E+00 -0.00000000000E+00 -0.45593999997E+02  0.45594000000E+02  0.51100000000E-03 0.  1.
    9900012    2    1    2    0    0  0.11740849465E+02  0.16508615626E+02  0.24623935872E+02  0.59301950482E+02  0.50000011771E+02 0.  0.
        -12    1    1    2    0    0 -0.11740849465E+02 -0.16508615626E+02 -0.24623935872E+02  0.31886049518E+02  0.00000000000E+00 0.  1.
         11    1    3    3    0    0  0.94037978294E+01  0.10305306385E+02  0.36734888743E+00  0.13955848193E+02  0.51100000000E-03 0. -1.
        -11    1    3    3    0    0 -0.12298540061E+02 -0.89027785218E+01  0.30659372229E+01  0.15489142144E+02  0.51100000000E-03 0.  1.
         12    1    3    3    0    0  0.14635591697E+02  0.15106087762E+02  0.21190649762E+02  0.29856960145E+02  0.00000000000E+00 0. -1.
</event>
<event>
 7    1  0.6841384E-013  0.5930195E+02  0.7816164E-02  0.1266605E+00
        -11   -1    0    0    0    0  0.00000000000E+00  0.00000000000E+00  0.45593999997E+02  0.45594000000E+02  0.51100000000E-03 0. -1.
         11   -1    0    0    0    0 -0.00000000000E+00 -0.00000000000E+00 -0.45593999997E+02  0.45594000000E+02  0.51100000000E-03 0.  1.
    9900012    2    1    2    0    0  0.31387275202E+02 -0.54299101335E+01 -0.14405097297E+01  0.59301952316E+02  0.50000015115E+02 0.  0.
        -12    1    1    2    0    0 -0.31387275202E+02  0.54299101335E+01  0.14405097297E+01  0.31886047684E+02  0.00000000000E+00 0.  1.
         11    1    3    3    0    0  0.52967805735E+01 -0.48244238165E+01 -0.15004562534E+02  0.16627322295E+02  0.51100000000E-03 0. -1.
        -11    1    3    3    0    0  0.19059035125E+02  0.10535104631E+02 -0.24768529007E+01  0.21917345871E+02  0.51100000000E-03 0.  1.
        -12    1    3    3    0    0  0.70314595033E+01 -0.11140590948E+02  0.16040905705E+02  0.20757284149E+02  0.00000000000E+00 0.  1.
</event>
<event>
 7    1  0.6841384E-013  0.5930194E+02  0.7816164E-02  0.1266605E+00
        -11   -1    0    0    0    0  0.00000000000E+00  0.00000000000E+00  0.45593999997E+02  0.45594000000E+02  0.51100000000E-03 0. -1.
         11   -1    0    0    0    0 -0.00000000000E+00 -0.00000000000E+00 -0.45593999997E+02  0.45594000000E+02  0.51100000000E-03 0.  1.
    9900012    2    1    2    0    0  0.12069095701E+02  0.10010374856E+02  0.27764188494E+02  0.59301939746E+02  0.49999992191E+02 0.  0.
        -12    1    1    2    0    0 -0.12069095701E+02 -0.10010374856E+02 -0.27764188494E+02  0.31886060254E+02  0.00000000000E+00 0.  1.
         11    1    3    3    0    0 -0.12893851781E+02  0.15270938202E+02  0.14572591122E+02  0.24734861624E+02  0.51100000000E-03 0. -1.
        -11    1    3    3    0    0  0.18963887953E+01 -0.24667710952E+01  0.10764919748E+02  0.11205567702E+02  0.51100000000E-03 0.  1.
        -12    1    3    3    0    0  0.23066558687E+02 -0.27937922510E+01  0.24266776242E+01  0.23361510419E+02  0.00000000000E+00 0.  1.
</event>
<event>
 7    1  0.6841384E-013  0.5930197E+02  0.7816164E-02  0.1266605E+00
        -11   -1    0    0    0    0  0.00000000000E+00  0.00000000000E+00  0.45593999997E+02  0.45594000000E+02  0.51100000000E-03 0.  1.
         11   -1    0    0    0    0 -0.00000000000E+00 -0.00000000000E+00 -0.45593999997E+02  0.45594000000E+02  0.51100000000E-03 0. -1.
    9900012    2    1    2    0    0 -0.13099242193E+02 -0.43751960895E+01 -0.28739983788E+02  0.59301966145E+02  0.50000040337E+02 0.  0.
        -12    1    1    2    0    0  0.13099242193E+02  0.43751960895E+01  0.28739983788E+02  0.31886033855E+02  0.00000000000E+00 0.  1.
         11    1    3    3    0    0 -0.58134356056E+01  0.16876439791E+02 -0.12764668135E+02  0.21944179329E+02  0.51100000000E-03 0. -1.
        -11    1    3    3    0    0 -0.10434417064E+02 -0.18048182002E+01  0.18978930154E+01  0.10758086557E+02  0.51100000000E-03 0.  1.
        -12    1    3    3    0    0  0.31486104769E+01 -0.19446817680E+02 -0.17873208668E+02  0.26599700260E+02  0.00000000000E+00 0.  1.
</event>
<event>
 7    1  0.6841384E-013  0.5930193E+02  0.7816164E-02  0.1266605E+00
        -11   -1    0    0    0    0  0.00000000000E+00  0.00000000000E+00  0.45593999997E+02  0.45594000000E+02  0.51100000000E-03 0.  1.
         11   -1    0    0    0    0 -0.00000000000E+00 -0.00000000000E+00 -0.45593999997E+02  0.45594000000E+02  0.51100000000E-03 0. -1.
    9900012    2    1    2    0    0 -0.16581733153E+02 -0.24704702915E+02 -0.11464945708E+02  0.59301934069E+02  0.49999981838E+02 0.  0.
        -12    1    1    2    0    0  0.16581733153E+02  0.24704702915E+02  0.11464945708E+02  0.31886065931E+02  0.00000000000E+00 0.  1.
         11    1    3    3    0    0 -0.25695713728E+02 -0.21224394322E+02 -0.10088438109E+02  0.34821275136E+02  0.51100000000E-03 0. -1.
        -11    1    3    3    0    0  0.71159349164E+01 -0.93484590421E+01 -0.88950840118E+01  0.14736103149E+02  0.51100000000E-03 0.  1.
         12    1    3    3    0    0  0.19980456593E+01  0.58681504493E+01  0.75185764124E+01  0.97445557837E+01  0.00000000000E+00 0. -1.
</event>
<event>
 7    1  0.6841384E-013  0.5930228E+02  0.7816164E-02  0.1266604E+00
        -11   -1    0    0    0    0  0.00000000000E+00  0.00000000000E+00  0.45593999997E+02  0.45594000000E+02  0.51100000000E-03 0.  1.
         11   -1    0    0    0    0 -0.00000000000E+00 -0.00000000000E+00 -0.45593999997E+02  0.45594000000E+02  0.51100000000E-03 0. -1.
    9900012    2    1    2    0    0  0.21627368201E+02  0.28974964936E+01 -0.23249955302E+02  0.59302282778E+02  0.50000617795E+02 0.  0.
        -12    1    1    2    0    0 -0.21627368201E+02 -0.28974964936E+01  0.23249955302E+02  0.31885717222E+02  0.00000000000E+00 0.  1.
         11    1    3    3    0    0  0.17163374898E+02  0.10636137471E+02 -0.20520593773E+02  0.28788949742E+02  0.51100000000E-03 0. -1.
        -11    1    3    3    0    0  0.73268283571E+01 -0.69753575189E+00  0.11920215273E+02  0.14009300565E+02  0.51100000000E-03 0.  1.
         12    1    3    3    0    0 -0.28628350541E+01 -0.70411052257E+01 -0.14649576801E+02  0.16504032471E+02  0.00000000000E+00 0. -1.
</event>
<event>
 7    1  0.6841384E-013  0.5930197E+02  0.7816164E-02  0.1266605E+00
        -11   -1    0    0    0    0  0.00000000000E+00  0.00000000000E+00  0.45593999997E+02  0.45594000000E+02  0.51100000000E-03 0.  1.
         11   -1    0    0    0    0 -0.00000000000E+00 -0.00000000000E+00 -0.45593999997E+02  0.45594000000E+02  0.51100000000E-03 0. -1.
    9900012    2    1    2    0    0  0.25705398953E+02  0.86169699097E+01 -0.16783897238E+02  0.59301969952E+02  0.50000047280E+02 0.  0.
        -12    1    1    2    0    0 -0.25705398953E+02 -0.86169699097E+01  0.16783897238E+02  0.31886030048E+02  0.00000000000E+00 0.  1.
         11    1    3    3    0    0  0.39001434160E+01  0.19455798279E+02 -0.17399309299E+02  0.26390816010E+02  0.51100000000E-03 0. -1.
        -11    1    3    3    0    0 -0.20700522649E+01  0.40941956873E+01 -0.10316314330E+01  0.47023205314E+01  0.51100000000E-03 0.  1.
         12    1    3    3    0    0  0.23875307801E+02 -0.14933024057E+02  0.16470434940E+01  0.28208833410E+02  0.00000000000E+00 0. -1.
</event>
<event>
 7    1  0.6841384E-013  0.5930194E+02  0.7816164E-02  0.1266605E+00
        -11   -1    0    0    0    0  0.00000000000E+00  0.00000000000E+00  0.45593999997E+02  0.45594000000E+02  0.51100000000E-03 0.  1.
         11   -1    0    0    0    0 -0.00000000000E+00 -0.00000000000E+00 -0.45593999997E+02  0.45594000000E+02  0.51100000000E-03 0. -1.
    9900012    2    1    2    0    0 -0.13024533536E+02  0.15493681373E+02 -0.24637936764E+02  0.59301944046E+02  0.50000000032E+02 0.  0.
        -12    1    1    2    0    0  0.13024533536E+02 -0.15493681373E+02  0.24637936764E+02  0.31886055954E+02  0.00000000000E+00 0.  1.
         11    1    3    3    0    0 -0.10721406020E+02 -0.56316025187E+01 -0.20112366370E+02  0.23477026542E+02  0.51100000000E-03 0. -1.
        -11    1    3    3    0    0 -0.57287280211E+01 -0.58271228915E+01  0.53259150142E+00  0.81888546147E+01  0.51100000000E-03 0.  1.
         12    1    3    3    0    0  0.34256005050E+01  0.26952406783E+02 -0.50581618955E+01  0.27636062889E+02  0.00000000000E+00 0. -1.
</event>
<event>
 7    1  0.6841384E-013  0.5930195E+02  0.7816164E-02  0.1266605E+00
        -11   -1    0    0    0    0  0.00000000000E+00  0.00000000000E+00  0.45593999997E+02  0.45594000000E+02  0.51100000000E-03 0. -1.
         11   -1    0    0    0    0 -0.00000000000E+00 -0.00000000000E+00 -0.45593999997E+02  0.45594000000E+02  0.51100000000E-03 0.  1.
    9900012    2    1    2    0    0 -0.15755102275E+01 -0.26465906720E+02  0.17714215601E+02  0.59301954692E+02  0.50000019449E+02 0.  0.
        -12    1    1    2    0    0  0.15755102275E+01  0.26465906720E+02 -0.17714215601E+02  0.31886045308E+02  0.00000000000E+00 0.  1.
         11    1    3    3    0    0  0.76612061239E+01 -0.33934403505E+01  0.24936837097E+02  0.26306945116E+02  0.51100000000E-03 0. -1.
        -11    1    3    3    0    0 -0.32066867446E+01  0.65719016773E+00 -0.78479064701E+01  0.85031979290E+01  0.51100000000E-03 0.  1.
        -12    1    3    3    0    0 -0.60300296069E+01 -0.23729656538E+02  0.62528497432E+00  0.24491811647E+02  0.00000000000E+00 0.  1.
</event>
<event>
 7    1  0.6841384E-013  0.5930188E+02  0.7816164E-02  0.1266605E+00
        -11   -1    0    0    0    0  0.00000000000E+00  0.00000000000E+00  0.45593999997E+02  0.45594000000E+02  0.51100000000E-03 0.  1.
         11   -1    0    0    0    0 -0.00000000000E+00 -0.00000000000E+00 -0.45593999997E+02  0.45594000000E+02  0.51100000000E-03 0. -1.
    9900012    2    1    2    0    0 -0.11027791710E+01 -0.19145160892E+02 -0.25474918427E+02  0.59301877998E+02  0.49999879577E+02 0.  0.
        -12    1    1    2    0    0  0.11027791710E+01  0.19145160892E+02  0.25474918427E+02  0.31886122002E+02  0.00000000000E+00 0.  1.
         11    1    3    3    0    0 -0.61308260540E+01 -0.24787595085E+02 -0.22935844122E+02  0.34322949233E+02  0.51100000000E-03 0. -1.
        -11    1    3    3    0    0  0.94872546608E+01 -0.66570124521E+01 -0.26786559691E+01  0.11895335802E+02  0.51100000000E-03 0.  1.
         12    1    3    3    0    0 -0.44592077778E+01  0.12299446645E+02  0.13958166429E+00  0.13083592963E+02  0.00000000000E+00 0. -1.
</event>
<event>
 7    1  0.6841384E-013  0.5930189E+02  0.7816164E-02  0.1266605E+00
        -11   -1    0    0    0    0  0.00000000000E+00  0.00000000000E+00  0.45593999997E+02  0.45594000000E+02  0.51100000000E-03 0.  1.
         11   -1    0    0    0    0 -0.00000000000E+00 -0.00000000000E+00 -0.45593999997E+02  0.45594000000E+02  0.51100000000E-03 0. -1.
    9900012    2    1    2    0    0  0.25833939523E+02 -0.19160103970E+01 -0.18591953241E+02  0.59301886213E+02  0.49999894559E+02 0.  0.
        -12    1    1    2    0    0 -0.25833939523E+02  0.19160103970E+01  0.18591953241E+02  0.31886113787E+02  0.00000000000E+00 0.  1.
         11    1    3    3    0    0  0.20012964129E+02 -0.35013643115E+01 -0.24441410995E+02  0.31783027813E+02  0.51100000000E-03 0. -1.
        -11    1    3    3    0    0  0.31121806136E+01 -0.10562036826E+02  0.95064145096E+01  0.14546965566E+02  0.51100000000E-03 0.  1.
         12    1    3    3    0    0  0.27087947802E+01  0.12147390741E+02 -0.36569567558E+01  0.12971892834E+02  0.00000000000E+00 0. -1.
</event>
<event>
 7    1  0.6841384E-013  0.5930196E+02  0.7816164E-02  0.1266605E+00
        -11   -1    0    0    0    0  0.00000000000E+00  0.00000000000E+00  0.45593999997E+02  0.45594000000E+02  0.51100000000E-03 0.  1.
         11   -1    0    0    0    0 -0.00000000000E+00 -0.00000000000E+00 -0.45593999997E+02  0.45594000000E+02  0.51100000000E-03 0. -1.
    9900012    2    1    2    0    0  0.29930292454E+02  0.43797217776E+01 -0.10085391322E+02  0.59301960934E+02  0.50000030832E+02 0.  0.
        -12    1    1    2    0    0 -0.29930292454E+02 -0.43797217776E+01  0.10085391322E+02  0.31886039066E+02  0.00000000000E+00 0.  1.
         11    1    3    3    0    0 -0.98066818706E+01 -0.51896987014E+01 -0.72827826047E+01  0.13271883990E+02  0.51100000000E-03 0. -1.
        -11    1    3    3    0    0  0.10014761913E+02 -0.13714365608E+01 -0.92577375006E+01  0.13707005446E+02  0.51100000000E-03 0.  1.
         12    1    3    3    0    0  0.29722212411E+02  0.10940857040E+02  0.64551287834E+01  0.32323071497E+02  0.00000000000E+00 0. -1.
</event>
<event>
 7    1  0.6841384E-013  0.5930188E+02  0.7816164E-02  0.1266605E+00
        -11   -1    0    0    0    0  0.00000000000E+00  0.00000000000E+00  0.45593999997E+02  0.45594000000E+02  0.51100000000E-03 0.  1.
         11   -1    0    0    0    0 -0.00000000000E+00 -0.00000000000E+00 -0.45593999997E+02  0.45594000000E+02  0.51100000000E-03 0. -1.
    9900012    2    1    2    0    0 -0.33362743219E+01  0.12696510396E+02 -0.29058428578E+02  0.59301884307E+02  0.49999891084E+02 0.  0.
        -12    1    1    2    0    0  0.33362743219E+01 -0.12696510396E+02  0.29058428578E+02  0.31886115693E+02  0.00000000000E+00 0.  1.
         11    1    3    3    0    0 -0.38819628413E+01 -0.37434196742E+01 -0.33994519876E+01  0.63748804252E+01  0.51100000000E-03 0. -1.
        -11    1    3    3    0    0 -0.13216637816E+02 -0.83411945110E+01 -0.17429692800E+02  0.23410451350E+02  0.51100000000E-03 0.  1.
         12    1    3    3    0    0  0.13762326335E+02  0.24781124582E+02 -0.82292837901E+01  0.29516552532E+02  0.00000000000E+00 0. -1.
</event>
<event>
 7    1  0.6841384E-013  0.5930194E+02  0.7816164E-02  0.1266605E+00
        -11   -1    0    0    0    0  0.00000000000E+00  0.00000000000E+00  0.45593999997E+02  0.45594000000E+02  0.51100000000E-03 0.  1.
         11   -1    0    0    0    0 -0.00000000000E+00 -0.00000000000E+00 -0.45593999997E+02  0.45594000000E+02  0.51100000000E-03 0. -1.
    9900012    2    1    2    0    0 -0.21690959518E+02  0.15710422733E+02 -0.17303346390E+02  0.59301938727E+02  0.49999990332E+02 0.  0.
        -12    1    1    2    0    0  0.21690959518E+02 -0.15710422733E+02  0.17303346390E+02  0.31886061273E+02  0.00000000000E+00 0.  1.
         11    1    3    3    0    0 -0.15235057160E+01  0.10418432925E+02  0.11137198840E+02  0.15326513385E+02  0.51100000000E-03 0.  1.
        -11    1    3    3    0    0  0.55704478689E+01 -0.20394180174E+01 -0.94602701722E+01  0.11166280818E+02  0.51100000000E-03 0. -1.
        -12    1    3    3    0    0 -0.25737901671E+02  0.73314078251E+01 -0.18980275057E+02  0.32809144524E+02  0.00000000000E+00 0.  1.
</event>
<event>
 7    1  0.6841384E-013  0.5930192E+02  0.7816164E-02  0.1266605E+00
        -11   -1    0    0    0    0  0.00000000000E+00  0.00000000000E+00  0.45593999997E+02  0.45594000000E+02  0.51100000000E-03 0. -1.
         11   -1    0    0    0    0 -0.00000000000E+00 -0.00000000000E+00 -0.45593999997E+02  0.45594000000E+02  0.51100000000E-03 0.  1.
    9900012    2    1    2    0    0  0.18092240662E+02 -0.15550341603E+02 -0.21156088705E+02  0.59301915489E+02  0.49999947952E+02 0.  0.
        -12    1    1    2    0    0 -0.18092240662E+02  0.15550341603E+02  0.21156088705E+02  0.31886084511E+02  0.00000000000E+00 0.  1.
         11    1    3    3    0    0 -0.52903441965E+01  0.47129857732E+01 -0.10693987888E+02  0.12828146937E+02  0.51100000000E-03 0. -1.
        -11    1    3    3    0    0 -0.18704144399E+01  0.27329017036E+01  0.72712211646E+01  0.79898597850E+01  0.51100000000E-03 0.  1.
         12    1    3    3    0    0  0.25252999299E+02 -0.22996229080E+02 -0.17733321981E+02  0.38483908767E+02  0.00000000000E+00 0. -1.
</event>
<event>
 7    1  0.7432582E-013  0.5930194E+02  0.7816164E-02  0.1266605E+00
        -11   -1    0    0    0    0  0.00000000000E+00  0.00000000000E+00  0.45593999997E+02  0.45594000000E+02  0.51100000000E-03 0.  1.
         11   -1    0    0    0    0 -0.00000000000E+00 -0.00000000000E+00 -0.45593999997E+02  0.45594000000E+02  0.51100000000E-03 0. -1.
    9900012    2    1    2    0    0 -0.82558402042E+01  0.29332307567E+02 -0.93902994746E+01  0.59301938956E+02  0.49999990751E+02 0.  0.
        -12    1    1    2    0    0  0.82558402042E+01 -0.29332307567E+02  0.93902994746E+01  0.31886061044E+02  0.00000000000E+00 0.  1.
         11    1    3    3    0    0 -0.17364850342E+02  0.23228563818E+02 -0.15367293801E+02  0.32821607570E+02  0.51100000000E-03 0. -1.
        -11    1    3    3    0    0  0.41145848141E+01 -0.25788800214E+01 -0.79557726762E+01  0.93206625029E+01  0.51100000000E-03 0.  1.
        -12    1    3    3    0    0  0.49944253242E+01  0.86826237699E+01  0.13932767002E+02  0.17159668883E+02  0.00000000000E+00 0.  1.
</event>
<event>
 7    1  0.6841384E-013  0.5930194E+02  0.7816164E-02  0.1266605E+00
        -11   -1    0    0    0    0  0.00000000000E+00  0.00000000000E+00  0.45593999997E+02  0.45594000000E+02  0.51100000000E-03 0. -1.
         11   -1    0    0    0    0 -0.00000000000E+00 -0.00000000000E+00 -0.45593999997E+02  0.45594000000E+02  0.51100000000E-03 0.  1.
    9900012    2    1    2    0    0 -0.28125280994E+02  0.43667748602E+01  0.14374297003E+02  0.59301943988E+02  0.49999999927E+02 0.  0.
        -12    1    1    2    0    0  0.28125280994E+02 -0.43667748602E+01 -0.14374297003E+02  0.31886056012E+02  0.00000000000E+00 0.  1.
         11    1    3    3    0    0  0.36064835264E+01 -0.54410438324E+01  0.96281242588E+01  0.11632388337E+02  0.51100000000E-03 0. -1.
        -11    1    3    3    0    0  0.54408508802E+01  0.85924552072E+01  0.20870146920E+01  0.10382137322E+02  0.51100000000E-03 0.  1.
         12    1    3    3    0    0 -0.37172615400E+02  0.12153634854E+01  0.26591580527E+01  0.37287418329E+02  0.00000000000E+00 0. -1.
</event>
<event>
 7    1  0.6841384E-013  0.5930194E+02  0.7816164E-02  0.1266605E+00
        -11   -1    0    0    0    0  0.00000000000E+00  0.00000000000E+00  0.45593999997E+02  0.45594000000E+02  0.51100000000E-03 0.  1.
         11   -1    0    0    0    0 -0.00000000000E+00 -0.00000000000E+00 -0.45593999997E+02  0.45594000000E+02  0.51100000000E-03 0. -1.
    9900012    2    1    2    0    0 -0.21289628717E+02 -0.23368925735E+02 -0.41671997825E+01  0.59301944506E+02  0.50000000873E+02 0.  0.
        -12    1    1    2    0    0  0.21289628717E+02  0.23368925735E+02  0.41671997825E+01  0.31886055494E+02  0.00000000000E+00 0.  1.
         11    1    3    3    0    0 -0.13985425770E+02 -0.93280201273E+01 -0.18667533265E+02  0.25121323451E+02  0.51100000000E-03 0. -1.
        -11    1    3    3    0    0 -0.25990329145E+01  0.14592358483E+01 -0.67976932959E+01  0.74224642645E+01  0.51100000000E-03 0.  1.
        -12    1    3    3    0    0 -0.47051700325E+01 -0.15500141456E+02  0.21298026778E+02  0.26758156791E+02  0.00000000000E+00 0.  1.
</event>
<event>
 7    1  0.6841384E-013  0.5930196E+02  0.7816164E-02  0.1266605E+00
        -11   -1    0    0    0    0  0.00000000000E+00  0.00000000000E+00  0.45593999997E+02  0.45594000000E+02  0.51100000000E-03 0.  1.
         11   -1    0    0    0    0 -0.00000000000E+00 -0.00000000000E+00 -0.45593999997E+02  0.45594000000E+02  0.51100000000E-03 0. -1.
    9900012    2    1    2    0    0 -0.20304795547E+01  0.18921144263E+02 -0.25584902721E+02  0.59301956114E+02  0.50000022043E+02 0.  0.
        -12    1    1    2    0    0  0.20304795547E+01 -0.18921144263E+02  0.25584902721E+02  0.31886043886E+02  0.00000000000E+00 0.  1.
         11    1    3    3    0    0  0.80287020551E+01  0.15419948855E+02 -0.10016240281E+02  0.20063896655E+02  0.51100000000E-03 0. -1.
        -11    1    3    3    0    0  0.11760907554E+02  0.60899135773E+01 -0.99291971992E+01  0.16552792851E+02  0.51100000000E-03 0.  1.
         12    1    3    3    0    0 -0.21820089164E+02 -0.25887181690E+01 -0.56394652413E+01  0.22685266608E+02  0.00000000000E+00 0. -1.
</event>
<event>
 7    1  0.6841384E-013  0.5930187E+02  0.7816164E-02  0.1266605E+00
        -11   -1    0    0    0    0  0.00000000000E+00  0.00000000000E+00  0.45593999997E+02  0.45594000000E+02  0.51100000000E-03 0.  1.
         11   -1    0    0    0    0 -0.00000000000E+00 -0.00000000000E+00 -0.45593999997E+02  0.45594000000E+02  0.51100000000E-03 0. -1.
    9900012    2    1    2    0    0 -0.50776811344E+01 -0.48714061104E+01 -0.31100025881E+02  0.59301873659E+02  0.49999871665E+02 0.  0.
        -12    1    1    2    0    0  0.50776811344E+01  0.48714061104E+01  0.31100025881E+02  0.31886126341E+02  0.00000000000E+00 0.  1.
         11    1    3    3    0    0 -0.23627834019E+02  0.31832671867E+01 -0.25549908161E+02  0.34945751354E+02  0.51100000000E-03 0. -1.
        -11    1    3    3    0    0  0.10219641019E+02  0.90293814307E+00  0.12912604882E+01  0.10340392340E+02  0.51100000000E-03 0.  1.
        -12    1    3    3    0    0  0.83305118658E+01 -0.89576114401E+01 -0.68413782087E+01  0.14015729965E+02  0.00000000000E+00 0.  1.
</event>
<event>
 7    1  0.6841384E-013  0.5930195E+02  0.7816164E-02  0.1266605E+00
        -11   -1    0    0    0    0  0.00000000000E+00  0.00000000000E+00  0.45593999997E+02  0.45594000000E+02  0.51100000000E-03 0.  1.
         11   -1    0    0    0    0 -0.00000000000E+00 -0.00000000000E+00 -0.45593999997E+02  0.45594000000E+02  0.51100000000E-03 0. -1.
    9900012    2    1    2    0    0 -0.17982444318E+02 -0.21164797960E+02 -0.15665354827E+02  0.59301947905E+02  0.50000007071E+02 0.  0.
        -12    1    1    2    0    0  0.17982444318E+02  0.21164797960E+02  0.15665354827E+02  0.31886052095E+02  0.00000000000E+00 0.  1.
         11    1    3    3    0    0 -0.11192005504E+02 -0.16035229280E+02 -0.16479270518E+02  0.25572561904E+02  0.51100000000E-03 0. -1.
        -11    1    3    3    0    0  0.12284223327E+02  0.13151752344E+01  0.47101898649E+01  0.13221865128E+02  0.51100000000E-03 0.  1.
         12    1    3    3    0    0 -0.19074662141E+02 -0.64447439146E+01 -0.38962741745E+01  0.20507520873E+02  0.00000000000E+00 0. -1.
</event>
<event>
 7    1  0.6841384E-013  0.5930193E+02  0.7816164E-02  0.1266605E+00
        -11   -1    0    0    0    0  0.00000000000E+00  0.00000000000E+00  0.45593999997E+02  0.45594000000E+02  0.51100000000E-03 0. -1.
         11   -1    0    0    0    0 -0.00000000000E+00 -0.00000000000E+00 -0.45593999997E+02  0.45594000000E+02  0.51100000000E-03 0.  1.
    9900012    2    1    2    0    0  0.27166100284E+02  0.16620702800E+02  0.15737792660E+01  0.59301928630E+02  0.49999971918E+02 0.  0.
        -12    1    1    2    0    0 -0.27166100284E+02 -0.16620702800E+02 -0.15737792660E+01  0.31886071370E+02  0.00000000000E+00 0.  1.
         11    1    3    3    0    0  0.12582865799E+02  0.88370967531E+00  0.11759059441E+01  0.12668551991E+02  0.51100000000E-03 0.  1.
        -11    1    3    3    0    0  0.23210181351E+02 -0.49586004638E+01  0.35263635594E+01  0.23994488473E+02  0.51100000000E-03 0. -1.
        -12    1    3    3    0    0 -0.86269468651E+01  0.20695593589E+02 -0.31284902374E+01  0.22638888165E+02  0.00000000000E+00 0.  1.
</event>
<event>
 7    1  0.6841384E-013  0.5930199E+02  0.7816164E-02  0.1266605E+00
        -11   -1    0    0    0    0  0.00000000000E+00  0.00000000000E+00  0.45593999997E+02  0.45594000000E+02  0.51100000000E-03 0.  1.
         11   -1    0    0    0    0 -0.00000000000E+00 -0.00000000000E+00 -0.45593999997E+02  0.45594000000E+02  0.51100000000E-03 0. -1.
    9900012    2    1    2    0    0 -0.20478498307E+02  0.14077931813E+02 -0.19979002828E+02  0.59301990355E+02  0.50000084490E+02 0.  0.
        -12    1    1    2    0    0  0.20478498307E+02 -0.14077931813E+02  0.19979002828E+02  0.31886009645E+02  0.00000000000E+00 0.  1.
         11    1    3    3    0    0 -0.29875532224E+02  0.53367294101E+01 -0.27245212753E+02  0.40783939543E+02  0.51100000000E-03 0. -1.
        -11    1    3    3    0    0  0.25542271715E+00  0.36350988832E+01  0.71742400450E+01  0.80466704381E+01  0.51100000000E-03 0.  1.
        -12    1    3    3    0    0  0.91416111994E+01  0.51061035197E+01  0.91969879942E-01  0.10471380374E+02  0.00000000000E+00 0.  1.
</event>
<event>
 7    1  0.6841384E-013  0.5930193E+02  0.7816164E-02  0.1266605E+00
        -11   -1    0    0    0    0  0.00000000000E+00  0.00000000000E+00  0.45593999997E+02  0.45594000000E+02  0.51100000000E-03 0.  1.
         11   -1    0    0    0    0 -0.00000000000E+00 -0.00000000000E+00 -0.45593999997E+02  0.45594000000E+02  0.51100000000E-03 0. -1.
    9900012    2    1    2    0    0  0.91192149152E+01  0.29607595443E+02 -0.75466441540E+01  0.59301927389E+02  0.49999969655E+02 0.  0.
        -12    1    1    2    0    0 -0.91192149152E+01 -0.29607595443E+02  0.75466441540E+01  0.31886072611E+02  0.00000000000E+00 0.  1.
         11    1    3    3    0    0  0.78150369378E+01  0.70225634184E+01 -0.18232052560E+02  0.21042788316E+02  0.51100000000E-03 0. -1.
        -11    1    3    3    0    0 -0.76479641196E+01  0.71819873207E+01 -0.74262783005E+01  0.12853867383E+02  0.51100000000E-03 0.  1.
         12    1    3    3    0    0  0.89521420970E+01  0.15403044704E+02  0.18111686707E+02  0.25405271690E+02  0.00000000000E+00 0. -1.
</event>
<event>
 7    1  0.6841384E-013  0.5930194E+02  0.7816164E-02  0.1266605E+00
        -11   -1    0    0    0    0  0.00000000000E+00  0.00000000000E+00  0.45593999997E+02  0.45594000000E+02  0.51100000000E-03 0.  1.
         11   -1    0    0    0    0 -0.00000000000E+00 -0.00000000000E+00 -0.45593999997E+02  0.45594000000E+02  0.51100000000E-03 0. -1.
    9900012    2    1    2    0    0  0.11362050762E+02 -0.29606860126E+02 -0.33254543774E+01  0.59301937044E+02  0.49999987263E+02 0.  0.
        -12    1    1    2    0    0 -0.11362050762E+02  0.29606860126E+02  0.33254543774E+01  0.31886062956E+02  0.00000000000E+00 0.  1.
         11    1    3    3    0    0  0.14435195104E+02 -0.62834032850E+01  0.10008796546E+02  0.18655616395E+02  0.51100000000E-03 0. -1.
        -11    1    3    3    0    0  0.82968361287E+01 -0.20333737288E+01  0.53884737768E+01  0.10099888533E+02  0.51100000000E-03 0.  1.
         12    1    3    3    0    0 -0.11369980470E+02 -0.21290083112E+02 -0.18722724700E+02  0.30546432116E+02  0.00000000000E+00 0. -1.
</event>
<event>
 7    1  0.6841384E-013  0.5930192E+02  0.7816164E-02  0.1266605E+00
        -11   -1    0    0    0    0  0.00000000000E+00  0.00000000000E+00  0.45593999997E+02  0.45594000000E+02  0.51100000000E-03 0. -1.
         11   -1    0    0    0    0 -0.00000000000E+00 -0.00000000000E+00 -0.45593999997E+02  0.45594000000E+02  0.51100000000E-03 0.  1.
    9900012    2    1    2    0    0 -0.83529246247E+01  0.29893418778E+01  0.30627023272E+02  0.59301920449E+02  0.49999956998E+02 0.  0.
        -12    1    1    2    0    0  0.83529246247E+01 -0.29893418778E+01 -0.30627023272E+02  0.31886079551E+02  0.00000000000E+00 0.  1.
         11    1    3    3    0    0  0.35419404099E+01 -0.66583919080E+01  0.99665612468E+01  0.12498474628E+02  0.51100000000E-03 0. -1.
        -11    1    3    3    0    0 -0.14963306805E+01  0.93260633343E+01  0.30836484072E+02  0.32250631204E+02  0.51100000000E-03 0.  1.
        -12    1    3    3    0    0 -0.10398534354E+02  0.32167045148E+00 -0.10176022047E+02  0.14552814618E+02  0.00000000000E+00 0.  1.
</event>
<event>
 7    1  0.6841384E-013  0.5930197E+02  0.7816164E-02  0.1266605E+00
        -11   -1    0    0    0    0  0.00000000000E+00  0.00000000000E+00  0.45593999997E+02  0.45594000000E+02  0.51100000000E-03 0.  1.
         11   -1    0    0    0    0 -0.00000000000E+00 -0.00000000000E+00 -0.45593999997E+02  0.45594000000E+02  0.51100000000E-03 0. -1.
    9900012    2    1    2    0    0 -0.13256291141E+02  0.14135478109E+02  0.25321495183E+02  0.59301966780E+02  0.50000041495E+02 0.  0.
        -12    1    1    2    0    0  0.13256291141E+02 -0.14135478109E+02 -0.25321495183E+02  0.31886033220E+02  0.00000000000E+00 0.  1.
         11    1    3    3    0    0 -0.98689035439E+01 -0.12989267545E+01  0.74668585666E-01  0.99542977417E+01  0.51100000000E-03 0. -1.
        -11    1    3    3    0    0  0.15266338072E+02  0.30670084835E+01  0.21667190269E+02  0.26682105494E+02  0.51100000000E-03 0.  1.
         12    1    3    3    0    0 -0.18653725670E+02  0.12367396380E+02  0.35796363288E+01  0.22665563545E+02  0.00000000000E+00 0. -1.
</event>
<event>
 7    1  0.6841384E-013  0.5930201E+02  0.7816164E-02  0.1266605E+00
        -11   -1    0    0    0    0  0.00000000000E+00  0.00000000000E+00  0.45593999997E+02  0.45594000000E+02  0.51100000000E-03 0. -1.
         11   -1    0    0    0    0 -0.00000000000E+00 -0.00000000000E+00 -0.45593999997E+02  0.45594000000E+02  0.51100000000E-03 0.  1.
    9900012    2    1    2    0    0  0.15733911829E+02  0.17044869851E+02 -0.21877677210E+02  0.59302010447E+02  0.50000121132E+02 0.  0.
        -12    1    1    2    0    0 -0.15733911829E+02 -0.17044869851E+02  0.21877677210E+02  0.31885989553E+02  0.00000000000E+00 0.  1.
         11    1    3    3    0    0 -0.60246790116E+01 -0.10626336076E+01  0.36247443068E+01  0.71108873516E+01  0.51100000000E-03 0. -1.
        -11    1    3    3    0    0  0.17311800149E+02  0.15133041276E+02  0.30021964556E+01  0.23188802179E+02  0.51100000000E-03 0.  1.
        -12    1    3    3    0    0  0.44467906913E+01  0.29744621818E+01 -0.28504617973E+02  0.29002320916E+02  0.00000000000E+00 0.  1.
</event>
<event>
 7    1  0.6841384E-013  0.5930192E+02  0.7816164E-02  0.1266605E+00
        -11   -1    0    0    0    0  0.00000000000E+00  0.00000000000E+00  0.45593999997E+02  0.45594000000E+02  0.51100000000E-03 0.  1.
         11   -1    0    0    0    0 -0.00000000000E+00 -0.00000000000E+00 -0.45593999997E+02  0.45594000000E+02  0.51100000000E-03 0. -1.
    9900012    2    1    2    0    0  0.17071737481E+02 -0.28433264664E+01 -0.26780465205E+02  0.59301920865E+02  0.49999957758E+02 0.  0.
        -12    1    1    2    0    0 -0.17071737481E+02  0.28433264664E+01  0.26780465205E+02  0.31886079135E+02  0.00000000000E+00 0.  1.
         11    1    3    3    0    0  0.90380314675E+01  0.49009740012E+01 -0.20462367805E+02  0.22900088546E+02  0.51100000000E-03 0. -1.
        -11    1    3    3    0    0 -0.41695209537E+01  0.75103492778E+00 -0.17367483664E+02  0.17876757187E+02  0.51100000000E-03 0.  1.
        -12    1    3    3    0    0  0.12203226967E+02 -0.84953353953E+01  0.11049386264E+02  0.18525075133E+02  0.00000000000E+00 0.  1.
</event>
<event>
 7    1  0.6841384E-013  0.5930193E+02  0.7816164E-02  0.1266605E+00
        -11   -1    0    0    0    0  0.00000000000E+00  0.00000000000E+00  0.45593999997E+02  0.45594000000E+02  0.51100000000E-03 0. -1.
         11   -1    0    0    0    0 -0.00000000000E+00 -0.00000000000E+00 -0.45593999997E+02  0.45594000000E+02  0.51100000000E-03 0.  1.
    9900012    2    1    2    0    0 -0.11805047601E+02 -0.15461961070E+02  0.25264402413E+02  0.59301930655E+02  0.49999975612E+02 0.  0.
        -12    1    1    2    0    0  0.11805047601E+02  0.15461961070E+02 -0.25264402413E+02  0.31886069345E+02  0.00000000000E+00 0.  1.
         11    1    3    3    0    0  0.29056890975E+01  0.15907121061E+01 -0.48340307973E+00  0.33476966611E+01  0.51100000000E-03 0. -1.
        -11    1    3    3    0    0  0.14943817200E+02 -0.47278412033E+01  0.15617041319E+01  0.15751478503E+02  0.51100000000E-03 0.  1.
         12    1    3    3    0    0 -0.29654553899E+02 -0.12324831972E+02  0.24186101361E+02  0.40202755491E+02  0.00000000000E+00 0. -1.
</event>
<event>
 7    1  0.6841384E-013  0.5930195E+02  0.7816164E-02  0.1266605E+00
        -11   -1    0    0    0    0  0.00000000000E+00  0.00000000000E+00  0.45593999997E+02  0.45594000000E+02  0.51100000000E-03 0. -1.
         11   -1    0    0    0    0 -0.00000000000E+00 -0.00000000000E+00 -0.45593999997E+02  0.45594000000E+02  0.51100000000E-03 0.  1.
    9900012    2    1    2    0    0 -0.53657588621E+01 -0.18216493734E+02  0.25614220080E+02  0.59301948466E+02  0.50000008094E+02 0.  0.
        -12    1    1    2    0    0  0.53657588621E+01  0.18216493734E+02 -0.25614220080E+02  0.31886051534E+02  0.00000000000E+00 0.  1.
         11    1    3    3    0    0 -0.13165544604E+02  0.37443877135E+01  0.20467680944E+02  0.24622712433E+02  0.51100000000E-03 0. -1.
        -11    1    3    3    0    0 -0.58287034919E+01 -0.18781535191E+02 -0.28622808620E+00  0.19667276764E+02  0.51100000000E-03 0.  1.
         12    1    3    3    0    0  0.13628489234E+02 -0.31793462572E+01  0.54327672215E+01  0.15011959269E+02  0.00000000000E+00 0. -1.
</event>
<event>
 7    1  0.6841384E-013  0.5930193E+02  0.7816164E-02  0.1266605E+00
        -11   -1    0    0    0    0  0.00000000000E+00  0.00000000000E+00  0.45593999997E+02  0.45594000000E+02  0.51100000000E-03 0.  1.
         11   -1    0    0    0    0 -0.00000000000E+00 -0.00000000000E+00 -0.45593999997E+02  0.45594000000E+02  0.51100000000E-03 0. -1.
    9900012    2    1    2    0    0  0.63195096094E+01 -0.18940928103E+02 -0.24860138324E+02  0.59301930367E+02  0.49999975086E+02 0.  0.
        -12    1    1    2    0    0 -0.63195096094E+01  0.18940928103E+02  0.24860138324E+02  0.31886069633E+02  0.00000000000E+00 0.  1.
         11    1    3    3    0    0  0.30034602981E+01  0.57368136522E+01  0.14192846426E+01  0.66291910366E+01  0.51100000000E-03 0. -1.
        -11    1    3    3    0    0  0.80803000167E+01  0.86973205499E+01 -0.80835139709E+01  0.14362375552E+02  0.51100000000E-03 0.  1.
         12    1    3    3    0    0 -0.47642507055E+01 -0.33375062305E+02 -0.18195908996E+02  0.38310363779E+02  0.00000000000E+00 0. -1.
</event>
<event>
 7    1  0.6841384E-013  0.5930197E+02  0.7816164E-02  0.1266605E+00
        -11   -1    0    0    0    0  0.00000000000E+00  0.00000000000E+00  0.45593999997E+02  0.45594000000E+02  0.51100000000E-03 0.  1.
         11   -1    0    0    0    0 -0.00000000000E+00 -0.00000000000E+00 -0.45593999997E+02  0.45594000000E+02  0.51100000000E-03 0. -1.
    9900012    2    1    2    0    0  0.26148465971E+02  0.34620173920E+01  0.17916230040E+02  0.59301966444E+02  0.50000040883E+02 0.  0.
        -12    1    1    2    0    0 -0.26148465971E+02 -0.34620173920E+01 -0.17916230040E+02  0.31886033556E+02  0.00000000000E+00 0.  1.
         11    1    3    3    0    0  0.16154995066E+02 -0.10136666182E+02 -0.49962912548E+01  0.19715445555E+02  0.51100000000E-03 0. -1.
        -11    1    3    3    0    0  0.36866822102E+00 -0.49033436298E+01 -0.34242917828E+01  0.59920338354E+01  0.51100000000E-03 0.  1.
        -12    1    3    3    0    0  0.96248026838E+01  0.18502027204E+02  0.26336813078E+02  0.33594487054E+02  0.00000000000E+00 0.  1.
</event>
<event>
 7    1  0.6841384E-013  0.5930200E+02  0.7816164E-02  0.1266605E+00
        -11   -1    0    0    0    0  0.00000000000E+00  0.00000000000E+00  0.45593999997E+02  0.45594000000E+02  0.51100000000E-03 0. -1.
         11   -1    0    0    0    0 -0.00000000000E+00 -0.00000000000E+00 -0.45593999997E+02  0.45594000000E+02  0.51100000000E-03 0.  1.
    9900012    2    1    2    0    0 -0.30232615625E+02 -0.77220464584E+00  0.10104947400E+02  0.59301995084E+02  0.50000093114E+02 0.  0.
        -12    1    1    2    0    0  0.30232615625E+02  0.77220464584E+00 -0.10104947400E+02  0.31886004916E+02  0.00000000000E+00 0.  1.
         11    1    3    3    0    0  0.37362001364E+01 -0.27886569805E+01 -0.45292805677E+01  0.65000139951E+01  0.51100000000E-03 0. -1.
        -11    1    3    3    0    0 -0.98262621625E+01  0.15821581784E+02 -0.43543613950E+01  0.19126900994E+02  0.51100000000E-03 0.  1.
         12    1    3    3    0    0 -0.24142553599E+02 -0.13805129449E+02  0.18988589362E+02  0.33675080094E+02  0.00000000000E+00 0. -1.
</event>
<event>
 7    1  0.6841384E-013  0.5930194E+02  0.7816164E-02  0.1266605E+00
        -11   -1    0    0    0    0  0.00000000000E+00  0.00000000000E+00  0.45593999997E+02  0.45594000000E+02  0.51100000000E-03 0.  1.
         11   -1    0    0    0    0 -0.00000000000E+00 -0.00000000000E+00 -0.45593999997E+02  0.45594000000E+02  0.51100000000E-03 0. -1.
    9900012    2    1    2    0    0  0.17514121217E+02 -0.26369391290E+02 -0.38250879473E+01  0.59301944477E+02  0.50000000819E+02 0.  0.
        -12    1    1    2    0    0 -0.17514121217E+02  0.26369391290E+02  0.38250879473E+01  0.31886055523E+02  0.00000000000E+00 0.  1.
         11    1    3    3    0    0 -0.92431667919E-01 -0.47083186061E+00  0.65618038638E+01  0.65793234046E+01  0.51100000000E-03 0.  1.
        -11    1    3    3    0    0 -0.72990991020E+01  0.49551624813E+01 -0.96351850604E+01  0.13063968552E+02  0.51100000000E-03 0. -1.
         12    1    3    3    0    0  0.24905651987E+02 -0.30853721911E+02 -0.75170675080E+00  0.39658652520E+02  0.00000000000E+00 0. -1.
</event>
<event>
 7    1  0.6841384E-013  0.5930197E+02  0.7816164E-02  0.1266605E+00
        -11   -1    0    0    0    0  0.00000000000E+00  0.00000000000E+00  0.45593999997E+02  0.45594000000E+02  0.51100000000E-03 0.  1.
         11   -1    0    0    0    0 -0.00000000000E+00 -0.00000000000E+00 -0.45593999997E+02  0.45594000000E+02  0.51100000000E-03 0. -1.
    9900012    2    1    2    0    0 -0.36529889557E+01 -0.27572117870E+02  0.15593366021E+02  0.59301967384E+02  0.50000042596E+02 0.  0.
        -12    1    1    2    0    0  0.36529889557E+01  0.27572117870E+02 -0.15593366021E+02  0.31886032616E+02  0.00000000000E+00 0.  1.
         11    1    3    3    0    0 -0.16825861229E+02 -0.20752895973E+02 -0.46834523228E+01  0.27124288438E+02  0.51100000000E-03 0. -1.
        -11    1    3    3    0    0  0.87532936618E+01 -0.27731650472E+01 -0.17526533269E+01  0.93478547407E+01  0.51100000000E-03 0.  1.
        -12    1    3    3    0    0  0.44195786117E+01 -0.40460568502E+01  0.22029471671E+02  0.22829824205E+02  0.00000000000E+00 0.  1.
</event>
<event>
 7    1  0.6841384E-013  0.5930188E+02  0.7816164E-02  0.1266605E+00
        -11   -1    0    0    0    0  0.00000000000E+00  0.00000000000E+00  0.45593999997E+02  0.45594000000E+02  0.51100000000E-03 0.  1.
         11   -1    0    0    0    0 -0.00000000000E+00 -0.00000000000E+00 -0.45593999997E+02  0.45594000000E+02  0.51100000000E-03 0. -1.
    9900012    2    1    2    0    0  0.15017172088E+02  0.28053691833E+02  0.20492871207E+01  0.59301879811E+02  0.49999882885E+02 0.  0.
        -12    1    1    2    0    0 -0.15017172088E+02 -0.28053691833E+02 -0.20492871207E+01  0.31886120189E+02  0.00000000000E+00 0.  1.
         11    1    3    3    0    0  0.50058829398E+01 -0.29648355706E+01  0.52658473191E+01  0.78471818009E+01  0.51100000000E-03 0.  1.
        -11    1    3    3    0    0 -0.61102724269E+00  0.32115369585E+02  0.10751002444E+02  0.33872619793E+02  0.51100000000E-03 0. -1.
         12    1    3    3    0    0  0.10622316391E+02 -0.10968421815E+01 -0.13967562642E+02  0.17582078217E+02  0.00000000000E+00 0. -1.
</event>
<event>
 7    1  0.6841384E-013  0.5930195E+02  0.7816164E-02  0.1266605E+00
        -11   -1    0    0    0    0  0.00000000000E+00  0.00000000000E+00  0.45593999997E+02  0.45594000000E+02  0.51100000000E-03 0.  1.
         11   -1    0    0    0    0 -0.00000000000E+00 -0.00000000000E+00 -0.45593999997E+02  0.45594000000E+02  0.51100000000E-03 0. -1.
    9900012    2    1    2    0    0  0.21142114055E+00  0.17457411605E+02 -0.26681718938E+02  0.59301952200E+02  0.50000014904E+02 0.  0.
        -12    1    1    2    0    0 -0.21142114055E+00 -0.17457411605E+02  0.26681718938E+02  0.31886047800E+02  0.00000000000E+00 0.  1.
         11    1    3    3    0    0  0.52270139015E+01  0.70764549019E+01 -0.82696292509E+01  0.12074131709E+02  0.51100000000E-03 0. -1.
        -11    1    3    3    0    0 -0.17351741758E+02  0.11091451748E+02  0.46061890781E+01  0.21102611734E+02  0.51100000000E-03 0.  1.
         12    1    3    3    0    0  0.12336148997E+02 -0.71049504468E+00 -0.23018278765E+02  0.26125208757E+02  0.00000000000E+00 0. -1.
</event>
<event>
 7    1  0.6841384E-013  0.5930194E+02  0.7816164E-02  0.1266605E+00
        -11   -1    0    0    0    0  0.00000000000E+00  0.00000000000E+00  0.45593999997E+02  0.45594000000E+02  0.51100000000E-03 0.  1.
         11   -1    0    0    0    0 -0.00000000000E+00 -0.00000000000E+00 -0.45593999997E+02  0.45594000000E+02  0.51100000000E-03 0. -1.
    9900012    2    1    2    0    0 -0.19275079213E+02 -0.17075320271E+02 -0.18804935445E+02  0.59301939752E+02  0.49999992203E+02 0.  0.
        -12    1    1    2    0    0  0.19275079213E+02  0.17075320271E+02  0.18804935445E+02  0.31886060248E+02  0.00000000000E+00 0.  1.
         11    1    3    3    0    0 -0.98976839177E+01 -0.67088789061E+01 -0.44742159140E+01  0.12766824641E+02  0.51100000000E-03 0. -1.
        -11    1    3    3    0    0 -0.76285985841E+01  0.78667899609E+01 -0.23589958466E+02  0.26010921578E+02  0.51100000000E-03 0.  1.
         12    1    3    3    0    0 -0.17487967112E+01 -0.18233231326E+02  0.92592389355E+01  0.20524193533E+02  0.00000000000E+00 0. -1.
</event>
<event>
 7    1  0.6841384E-013  0.5930194E+02  0.7816164E-02  0.1266605E+00
        -11   -1    0    0    0    0  0.00000000000E+00  0.00000000000E+00  0.45593999997E+02  0.45594000000E+02  0.51100000000E-03 0. -1.
         11   -1    0    0    0    0 -0.00000000000E+00 -0.00000000000E+00 -0.45593999997E+02  0.45594000000E+02  0.51100000000E-03 0.  1.
    9900012    2    1    2    0    0  0.20949606312E+02 -0.21756252625E+02  0.10222550434E+02  0.59301936112E+02  0.49999985564E+02 0.  0.
        -12    1    1    2    0    0 -0.20949606312E+02  0.21756252625E+02 -0.10222550434E+02  0.31886063888E+02  0.00000000000E+00 0.  1.
         11    1    3    3    0    0  0.42076007782E+01 -0.47193684038E+01 -0.27129455023E+01  0.68801465100E+01  0.51100000000E-03 0. -1.
        -11    1    3    3    0    0  0.72454371227E+01 -0.30266491491E+02 -0.77851623137E+00  0.31131382142E+02  0.51100000000E-03 0.  1.
         12    1    3    3    0    0  0.94965684109E+01  0.13229607270E+02  0.13714012168E+02  0.21290407460E+02  0.00000000000E+00 0. -1.
</event>
<event>
 7    1  0.6841384E-013  0.5930196E+02  0.7816164E-02  0.1266605E+00
        -11   -1    0    0    0    0  0.00000000000E+00  0.00000000000E+00  0.45593999997E+02  0.45594000000E+02  0.51100000000E-03 0.  1.
         11   -1    0    0    0    0 -0.00000000000E+00 -0.00000000000E+00 -0.45593999997E+02  0.45594000000E+02  0.51100000000E-03 0. -1.
    9900012    2    1    2    0    0 -0.16457349948E+02  0.69153721043E+00 -0.27301953859E+02  0.59301964254E+02  0.50000036889E+02 0.  0.
        -12    1    1    2    0    0  0.16457349948E+02 -0.69153721043E+00  0.27301953859E+02  0.31886035746E+02  0.00000000000E+00 0.  1.
         11    1    3    3    0    0 -0.62266005737E+01 -0.98708885755E+01 -0.29630375962E+02  0.31845944418E+02  0.51100000000E-03 0. -1.
        -11    1    3    3    0    0 -0.13155944981E+02 -0.53954840238E-01 -0.51678644515E+01  0.14134660332E+02  0.51100000000E-03 0.  1.
        -12    1    3    3    0    0  0.29251956065E+01  0.10616380626E+02  0.74962865540E+01  0.13321359504E+02  0.00000000000E+00 0.  1.
</event>
<event>
 7    1  0.6841384E-013  0.5930193E+02  0.7816164E-02  0.1266605E+00
        -11   -1    0    0    0    0  0.00000000000E+00  0.00000000000E+00  0.45593999997E+02  0.45594000000E+02  0.51100000000E-03 0.  1.
         11   -1    0    0    0    0 -0.00000000000E+00 -0.00000000000E+00 -0.45593999997E+02  0.45594000000E+02  0.51100000000E-03 0. -1.
    9900012    2    1    2    0    0  0.19537997149E+02  0.10306062125E+02 -0.22995068194E+02  0.59301930779E+02  0.49999975837E+02 0.  0.
        -12    1    1    2    0    0 -0.19537997149E+02 -0.10306062125E+02  0.22995068194E+02  0.31886069221E+02  0.00000000000E+00 0.  1.
         11    1    3    3    0    0  0.22298706634E+02  0.10281607516E+02 -0.29964295595E+02  0.38740195940E+02  0.51100000000E-03 0. -1.
        -11    1    3    3    0    0 -0.11803550769E+00 -0.27229908580E+01 -0.62422142270E+01  0.68113031287E+01  0.51100000000E-03 0.  1.
        -12    1    3    3    0    0 -0.26426739773E+01  0.27474454664E+01  0.13211441628E+02  0.13750431710E+02  0.00000000000E+00 0.  1.
</event>
<event>
 7    1  0.6841384E-013  0.5930191E+02  0.7816164E-02  0.1266605E+00
        -11   -1    0    0    0    0  0.00000000000E+00  0.00000000000E+00  0.45593999997E+02  0.45594000000E+02  0.51100000000E-03 0.  1.
         11   -1    0    0    0    0 -0.00000000000E+00 -0.00000000000E+00 -0.45593999997E+02  0.45594000000E+02  0.51100000000E-03 0. -1.
    9900012    2    1    2    0    0 -0.22319196439E+02 -0.21499353444E+02  0.75069473566E+01  0.59301906059E+02  0.49999930754E+02 0.  0.
        -12    1    1    2    0    0  0.22319196439E+02  0.21499353444E+02 -0.75069473566E+01  0.31886093941E+02  0.00000000000E+00 0.  1.
         11    1    3    3    0    0  0.29393354135E+01 -0.14804982596E+02  0.17659245012E+02  0.23230930610E+02  0.51100000000E-03 0.  1.
        -11    1    3    3    0    0 -0.62588919929E+00 -0.32114645123E+01  0.56997378753E+01  0.65720813835E+01  0.51100000000E-03 0. -1.
         12    1    3    3    0    0 -0.24632642653E+02 -0.34829063359E+01 -0.15852035531E+02  0.29498894066E+02  0.00000000000E+00 0. -1.
</event>
<event>
 7    1  0.6841384E-013  0.5930196E+02  0.7816164E-02  0.1266605E+00
        -11   -1    0    0    0    0  0.00000000000E+00  0.00000000000E+00  0.45593999997E+02  0.45594000000E+02  0.51100000000E-03 0. -1.
         11   -1    0    0    0    0 -0.00000000000E+00 -0.00000000000E+00 -0.45593999997E+02  0.45594000000E+02  0.51100000000E-03 0.  1.
    9900012    2    1    2    0    0  0.74024415613E+01 -0.23077483858E+02 -0.20720838552E+02  0.59301959910E+02  0.50000028966E+02 0.  0.
        -12    1    1    2    0    0 -0.74024415613E+01  0.23077483858E+02  0.20720838552E+02  0.31886040090E+02  0.00000000000E+00 0.  1.
         11    1    3    3    0    0 -0.45717023709E+01 -0.14642914632E+02  0.39886631214E+01  0.15850073982E+02  0.51100000000E-03 0. -1.
        -11    1    3    3    0    0  0.10545078327E+02  0.84725695108E+01 -0.60166213597E-01  0.13527258823E+02  0.51100000000E-03 0.  1.
        -12    1    3    3    0    0  0.14290656056E+01 -0.16907138737E+02 -0.24649335460E+02  0.29924627105E+02  0.00000000000E+00 0.  1.
</event>
<event>
 7    1  0.6841384E-013  0.5930192E+02  0.7816164E-02  0.1266605E+00
        -11   -1    0    0    0    0  0.00000000000E+00  0.00000000000E+00  0.45593999997E+02  0.45594000000E+02  0.51100000000E-03 0. -1.
         11   -1    0    0    0    0 -0.00000000000E+00 -0.00000000000E+00 -0.45593999997E+02  0.45594000000E+02  0.51100000000E-03 0.  1.
    9900012    2    1    2    0    0 -0.18553637982E+02 -0.25507593948E+02 -0.46741179978E+01  0.59301918233E+02  0.49999952956E+02 0.  0.
        -12    1    1    2    0    0  0.18553637982E+02  0.25507593948E+02  0.46741179978E+01  0.31886081767E+02  0.00000000000E+00 0.  1.
         11    1    3    3    0    0  0.10629724674E+01  0.29723004977E+01  0.25572659058E+01  0.40625226017E+01  0.51100000000E-03 0. -1.
        -11    1    3    3    0    0 -0.18681289155E+02 -0.32665852489E+02  0.87987152459E+01  0.38645386187E+02  0.51100000000E-03 0.  1.
         12    1    3    3    0    0 -0.93532129531E+00  0.41859580433E+01 -0.16030099150E+02  0.16594009443E+02  0.00000000000E+00 0. -1.
</event>
<event>
 7    1  0.6841384E-013  0.5930194E+02  0.7816164E-02  0.1266605E+00
        -11   -1    0    0    0    0  0.00000000000E+00  0.00000000000E+00  0.45593999997E+02  0.45594000000E+02  0.51100000000E-03 0. -1.
         11   -1    0    0    0    0 -0.00000000000E+00 -0.00000000000E+00 -0.45593999997E+02  0.45594000000E+02  0.51100000000E-03 0.  1.
    9900012    2    1    2    0    0 -0.14407656711E+02 -0.69972751835E+01  0.27571333629E+02  0.59301939253E+02  0.49999991291E+02 0.  0.
        -12    1    1    2    0    0  0.14407656711E+02  0.69972751835E+01 -0.27571333629E+02  0.31886060747E+02  0.00000000000E+00 0.  1.
         11    1    3    3    0    0  0.22535061839E+01 -0.43011341182E+01  0.43674149746E+01  0.65308773259E+01  0.51100000000E-03 0. -1.
        -11    1    3    3    0    0 -0.19579265751E+02 -0.19645881187E+02  0.58668349067E+01  0.28350097831E+02  0.51100000000E-03 0.  1.
        -12    1    3    3    0    0  0.29181028562E+01  0.16949740122E+02  0.17337083748E+02  0.24420964095E+02  0.00000000000E+00 0.  1.
</event>
<event>
 7    1  0.6841384E-013  0.5930199E+02  0.7816164E-02  0.1266605E+00
        -11   -1    0    0    0    0  0.00000000000E+00  0.00000000000E+00  0.45593999997E+02  0.45594000000E+02  0.51100000000E-03 0.  1.
         11   -1    0    0    0    0 -0.00000000000E+00 -0.00000000000E+00 -0.45593999997E+02  0.45594000000E+02  0.51100000000E-03 0. -1.
    9900012    2    1    2    0    0 -0.29635491793E+02  0.69535292393E+01 -0.94922959112E+01  0.59301990147E+02  0.50000084110E+02 0.  0.
        -12    1    1    2    0    0  0.29635491793E+02 -0.69535292393E+01  0.94922959112E+01  0.31886009853E+02  0.00000000000E+00 0.  1.
         11    1    3    3    0    0 -0.14501250117E+02  0.19369638607E+02 -0.18565445813E+02  0.30498277545E+02  0.51100000000E-03 0. -1.
        -11    1    3    3    0    0 -0.92762309672E+01  0.27704980355E+01 -0.88573440417E+00  0.97215557406E+01  0.51100000000E-03 0.  1.
        -12    1    3    3    0    0 -0.58580107083E+01 -0.15186607403E+02  0.99588843056E+01  0.19082156861E+02  0.00000000000E+00 0.  1.
</event>
<event>
 7    1  0.6841384E-013  0.5930197E+02  0.7816164E-02  0.1266605E+00
        -11   -1    0    0    0    0  0.00000000000E+00  0.00000000000E+00  0.45593999997E+02  0.45594000000E+02  0.51100000000E-03 0. -1.
         11   -1    0    0    0    0 -0.00000000000E+00 -0.00000000000E+00 -0.45593999997E+02  0.45594000000E+02  0.51100000000E-03 0.  1.
    9900012    2    1    2    0    0 -0.11687971027E+02 -0.10717716016E+02  0.27662981384E+02  0.59301974183E+02  0.50000054997E+02 0.  0.
        -12    1    1    2    0    0  0.11687971027E+02  0.10717716016E+02 -0.27662981384E+02  0.31886025817E+02  0.00000000000E+00 0.  1.
         11    1    3    3    0    0  0.54999810500E+00 -0.10807602705E+02 -0.20949701862E+01  0.11022507631E+02  0.51100000000E-03 0. -1.
        -11    1    3    3    0    0  0.65387788142E+01 -0.13127500502E+02  0.15030729703E+02  0.21000231749E+02  0.51100000000E-03 0.  1.
         12    1    3    3    0    0 -0.18776747946E+02  0.13217387190E+02  0.14727221867E+02  0.27279234804E+02  0.00000000000E+00 0. -1.
</event>
<event>
 7    1  0.6841384E-013  0.5930197E+02  0.7816164E-02  0.1266605E+00
        -11   -1    0    0    0    0  0.00000000000E+00  0.00000000000E+00  0.45593999997E+02  0.45594000000E+02  0.51100000000E-03 0.  1.
         11   -1    0    0    0    0 -0.00000000000E+00 -0.00000000000E+00 -0.45593999997E+02  0.45594000000E+02  0.51100000000E-03 0. -1.
    9900012    2    1    2    0    0  0.11372073072E+02 -0.20804046946E+02  0.21321027707E+02  0.59301974255E+02  0.50000055128E+02 0.  0.
        -12    1    1    2    0    0 -0.11372073072E+02  0.20804046946E+02 -0.21321027707E+02  0.31886025745E+02  0.00000000000E+00 0.  1.
         11    1    3    3    0    0  0.82771937192E+01 -0.21300403551E+02  0.58297502570E+01  0.23584001264E+02  0.51100000000E-03 0. -1.
        -11    1    3    3    0    0  0.92746858214E+01 -0.12764237448E+02  0.21600664194E+01  0.15925182633E+02  0.51100000000E-03 0.  1.
         12    1    3    3    0    0 -0.61798064690E+01  0.13260594052E+02  0.13331211031E+02  0.19792790358E+02  0.00000000000E+00 0. -1.
</event>
<event>
 7    1  0.6841384E-013  0.5930194E+02  0.7816164E-02  0.1266605E+00
        -11   -1    0    0    0    0  0.00000000000E+00  0.00000000000E+00  0.45593999997E+02  0.45594000000E+02  0.51100000000E-03 0. -1.
         11   -1    0    0    0    0 -0.00000000000E+00 -0.00000000000E+00 -0.45593999997E+02  0.45594000000E+02  0.51100000000E-03 0.  1.
    9900012    2    1    2    0    0  0.20998293414E+02  0.11854480303E+02 -0.20862975799E+02  0.59301940527E+02  0.49999993616E+02 0.  0.
        -12    1    1    2    0    0 -0.20998293414E+02 -0.11854480303E+02  0.20862975799E+02  0.31886059473E+02  0.00000000000E+00 0.  1.
         11    1    3    3    0    0  0.84444074002E+01  0.31914564474E+01 -0.28016851640E+02  0.29435308503E+02  0.51100000000E-03 0. -1.
        -11    1    3    3    0    0 -0.96729136430E+00 -0.77018090409E+01  0.16289911217E+01  0.79314013530E+01  0.51100000000E-03 0.  1.
         12    1    3    3    0    0  0.13521177378E+02  0.16364832896E+02  0.55248847198E+01  0.21935230671E+02  0.00000000000E+00 0. -1.
</event>
<event>
 7    1  0.6841384E-013  0.5930195E+02  0.7816164E-02  0.1266605E+00
        -11   -1    0    0    0    0  0.00000000000E+00  0.00000000000E+00  0.45593999997E+02  0.45594000000E+02  0.51100000000E-03 0.  1.
         11   -1    0    0    0    0 -0.00000000000E+00 -0.00000000000E+00 -0.45593999997E+02  0.45594000000E+02  0.51100000000E-03 0. -1.
    9900012    2    1    2    0    0  0.89191606880E+01 -0.14710696197E+02 -0.26847047890E+02  0.59301953045E+02  0.50000016446E+02 0.  0.
        -12    1    1    2    0    0 -0.89191606880E+01  0.14710696197E+02  0.26847047890E+02  0.31886046955E+02  0.00000000000E+00 0.  1.
         11    1    3    3    0    0 -0.29449190257E+01 -0.10341621542E+02 -0.12667888396E+02  0.16616169259E+02  0.51100000000E-03 0. -1.
        -11    1    3    3    0    0 -0.10730894828E+02 -0.12182255162E+02 -0.73572662410E+01  0.17823827071E+02  0.51100000000E-03 0.  1.
        -12    1    3    3    0    0  0.22594974542E+02  0.78131805059E+01 -0.68218932537E+01  0.24861956716E+02  0.00000000000E+00 0.  1.
</event>
<event>
 7    1  0.6841384E-013  0.5930195E+02  0.7816164E-02  0.1266605E+00
        -11   -1    0    0    0    0  0.00000000000E+00  0.00000000000E+00  0.45593999997E+02  0.45594000000E+02  0.51100000000E-03 0. -1.
         11   -1    0    0    0    0 -0.00000000000E+00 -0.00000000000E+00 -0.45593999997E+02  0.45594000000E+02  0.51100000000E-03 0.  1.
    9900012    2    1    2    0    0  0.13010811467E+02  0.27201962301E+02  0.10367856433E+02  0.59301946387E+02  0.50000004302E+02 0.  0.
        -12    1    1    2    0    0 -0.13010811467E+02 -0.27201962301E+02 -0.10367856433E+02  0.31886053613E+02  0.00000000000E+00 0.  1.
         11    1    3    3    0    0 -0.26824434551E+01  0.22673276045E+02 -0.26165040162E+01  0.22980840781E+02  0.51100000000E-03 0. -1.
        -11    1    3    3    0    0  0.13533174217E+02 -0.41245517821E+01 -0.59835163530E+01  0.15361028612E+02  0.51100000000E-03 0.  1.
         12    1    3    3    0    0  0.21600807044E+01  0.86532380378E+01  0.18967876802E+02  0.20960076994E+02  0.00000000000E+00 0. -1.
</event>
<event>
 7    1  0.6841384E-013  0.5930196E+02  0.7816164E-02  0.1266605E+00
        -11   -1    0    0    0    0  0.00000000000E+00  0.00000000000E+00  0.45593999997E+02  0.45594000000E+02  0.51100000000E-03 0. -1.
         11   -1    0    0    0    0 -0.00000000000E+00 -0.00000000000E+00 -0.45593999997E+02  0.45594000000E+02  0.51100000000E-03 0.  1.
    9900012    2    1    2    0    0  0.15312169463E+02  0.14787589647E+02  0.23739922704E+02  0.59301964323E+02  0.50000037013E+02 0.  0.
        -12    1    1    2    0    0 -0.15312169463E+02 -0.14787589647E+02 -0.23739922704E+02  0.31886035677E+02  0.00000000000E+00 0.  1.
         11    1    3    3    0    0  0.16806365068E+02  0.34586869503E+00  0.25465730687E+01  0.17001722460E+02  0.51100000000E-03 0. -1.
        -11    1    3    3    0    0  0.48646149783E+01  0.20767664165E+02  0.23851197717E+01  0.21462738649E+02  0.51100000000E-03 0.  1.
        -12    1    3    3    0    0 -0.63588105834E+01 -0.63259432123E+01  0.18808229864E+02  0.20837503213E+02  0.00000000000E+00 0.  1.
</event>
<event>
 7    1  0.6841384E-013  0.5930194E+02  0.7816164E-02  0.1266605E+00
        -11   -1    0    0    0    0  0.00000000000E+00  0.00000000000E+00  0.45593999997E+02  0.45594000000E+02  0.51100000000E-03 0.  1.
         11   -1    0    0    0    0 -0.00000000000E+00 -0.00000000000E+00 -0.45593999997E+02  0.45594000000E+02  0.51100000000E-03 0. -1.
    9900012    2    1    2    0    0 -0.13149723011E+02  0.66544460003E+01 -0.28275852083E+02  0.59301942265E+02  0.49999996785E+02 0.  0.
        -12    1    1    2    0    0  0.13149723011E+02 -0.66544460003E+01  0.28275852083E+02  0.31886057735E+02  0.00000000000E+00 0.  1.
         11    1    3    3    0    0 -0.11026815499E+02 -0.45401732879E+01  0.37195081457E+01  0.12491540122E+02  0.51100000000E-03 0. -1.
        -11    1    3    3    0    0  0.13614204081E+02  0.56444811868E-01 -0.71986548009E+01  0.15400336684E+02  0.51100000000E-03 0.  1.
         12    1    3    3    0    0 -0.15737111594E+02  0.11138174476E+02 -0.24796705428E+02  0.31410065458E+02  0.00000000000E+00 0. -1.
</event>
<event>
 7    1  0.6841384E-013  0.5930198E+02  0.7816164E-02  0.1266605E+00
        -11   -1    0    0    0    0  0.00000000000E+00  0.00000000000E+00  0.45593999997E+02  0.45594000000E+02  0.51100000000E-03 0.  1.
         11   -1    0    0    0    0 -0.00000000000E+00 -0.00000000000E+00 -0.45593999997E+02  0.45594000000E+02  0.51100000000E-03 0. -1.
    9900012    2    1    2    0    0  0.15671171545E+02 -0.22603859778E+02 -0.16130664005E+02  0.59301977738E+02  0.50000061480E+02 0.  0.
        -12    1    1    2    0    0 -0.15671171545E+02  0.22603859778E+02  0.16130664005E+02  0.31886022262E+02  0.00000000000E+00 0.  1.
         11    1    3    3    0    0  0.24549446706E+02 -0.90282230383E+01 -0.69072603256E+01  0.27053546722E+02  0.51100000000E-03 0.  1.
        -11    1    3    3    0    0  0.68643379888E+01 -0.13363949228E+02 -0.60012894479E+01  0.16178063861E+02  0.51100000000E-03 0. -1.
         12    1    3    3    0    0 -0.15742613150E+02 -0.21168751166E+00 -0.32221142312E+01  0.16070367155E+02  0.00000000000E+00 0. -1.
</event>
<event>
 7    1  0.6841384E-013  0.5930201E+02  0.7816164E-02  0.1266605E+00
        -11   -1    0    0    0    0  0.00000000000E+00  0.00000000000E+00  0.45593999997E+02  0.45594000000E+02  0.51100000000E-03 0.  1.
         11   -1    0    0    0    0 -0.00000000000E+00 -0.00000000000E+00 -0.45593999997E+02  0.45594000000E+02  0.51100000000E-03 0. -1.
    9900012    2    1    2    0    0 -0.17017862059E+01 -0.10892407506E+02 -0.29919488789E+02  0.59302008923E+02  0.50000118354E+02 0.  0.
        -12    1    1    2    0    0  0.17017862059E+01  0.10892407506E+02  0.29919488789E+02  0.31885991077E+02  0.00000000000E+00 0.  1.
         11    1    3    3    0    0 -0.14790114254E+01 -0.76494147428E+01 -0.29668594296E+02  0.30674525399E+02  0.51100000000E-03 0. -1.
        -11    1    3    3    0    0 -0.87704478102E+01 -0.43209759538E+01 -0.11088088391E+02  0.14783006880E+02  0.51100000000E-03 0.  1.
        -12    1    3    3    0    0  0.85476730298E+01  0.10779831908E+01  0.10837193898E+02  0.13844476644E+02  0.00000000000E+00 0.  1.
</event>
<event>
 7    1  0.6841384E-013  0.5930195E+02  0.7816164E-02  0.1266605E+00
        -11   -1    0    0    0    0  0.00000000000E+00  0.00000000000E+00  0.45593999997E+02  0.45594000000E+02  0.51100000000E-03 0.  1.
         11   -1    0    0    0    0 -0.00000000000E+00 -0.00000000000E+00 -0.45593999997E+02  0.45594000000E+02  0.51100000000E-03 0. -1.
    9900012    2    1    2    0    0  0.10608546839E+02  0.19719743747E+02 -0.22700457890E+02  0.59301947439E+02  0.50000006222E+02 0.  0.
        -12    1    1    2    0    0 -0.10608546839E+02 -0.19719743747E+02  0.22700457890E+02  0.31886052561E+02  0.00000000000E+00 0.  1.
         11    1    3    3    0    0  0.24383274405E+02  0.33172341417E+01 -0.90879420649E+01  0.26232399896E+02  0.51100000000E-03 0. -1.
        -11    1    3    3    0    0  0.55125982934E+00 -0.21986957333E+01 -0.88204038198E+01  0.91070123604E+01  0.51100000000E-03 0.  1.
        -12    1    3    3    0    0 -0.14325987396E+02  0.18601205339E+02 -0.47921120048E+01  0.23962535183E+02  0.00000000000E+00 0.  1.
</event>
<event>
 7    1  0.6841384E-013  0.5930196E+02  0.7816164E-02  0.1266605E+00
        -11   -1    0    0    0    0  0.00000000000E+00  0.00000000000E+00  0.45593999997E+02  0.45594000000E+02  0.51100000000E-03 0.  1.
         11   -1    0    0    0    0 -0.00000000000E+00 -0.00000000000E+00 -0.45593999997E+02  0.45594000000E+02  0.51100000000E-03 0. -1.
    9900012    2    1    2    0    0 -0.80647373759E+01  0.19746551834E+02 -0.23701340611E+02  0.59301955324E+02  0.50000020603E+02 0.  0.
        -12    1    1    2    0    0  0.80647373759E+01 -0.19746551834E+02  0.23701340611E+02  0.31886044676E+02  0.00000000000E+00 0.  1.
         11    1    3    3    0    0  0.17886668837E+02  0.13939388161E+02 -0.68281394898E+01  0.23682545335E+02  0.51100000000E-03 0.  1.
        -11    1    3    3    0    0 -0.14180777557E+02  0.11261889585E+02 -0.12178630244E+02  0.21823007217E+02  0.51100000000E-03 0. -1.
        -12    1    3    3    0    0 -0.11770628656E+02 -0.54547259107E+01 -0.46945708771E+01  0.13796402772E+02  0.00000000000E+00 0.  1.
</event>
<event>
 7    1  0.6841384E-013  0.5930194E+02  0.7816164E-02  0.1266605E+00
        -11   -1    0    0    0    0  0.00000000000E+00  0.00000000000E+00  0.45593999997E+02  0.45594000000E+02  0.51100000000E-03 0.  1.
         11   -1    0    0    0    0 -0.00000000000E+00 -0.00000000000E+00 -0.45593999997E+02  0.45594000000E+02  0.51100000000E-03 0. -1.
    9900012    2    1    2    0    0  0.40537142508E+01  0.12350405307E+02 -0.29116246273E+02  0.59301938665E+02  0.49999990219E+02 0.  0.
        -12    1    1    2    0    0 -0.40537142508E+01 -0.12350405307E+02  0.29116246273E+02  0.31886061335E+02  0.00000000000E+00 0.  1.
         11    1    3    3    0    0  0.39169985131E+00  0.60923219062E+01  0.87206072456E+01  0.10645130623E+02  0.51100000000E-03 0.  1.
        -11    1    3    3    0    0  0.15496183425E+02  0.23186139411E+01 -0.11248239337E+02  0.19288093731E+02  0.51100000000E-03 0. -1.
        -12    1    3    3    0    0 -0.11834169026E+02  0.39394694602E+01 -0.26588614181E+02  0.29368714310E+02  0.00000000000E+00 0.  1.
</event>
<event>
 7    1  0.6841384E-013  0.5930200E+02  0.7816164E-02  0.1266605E+00
        -11   -1    0    0    0    0  0.00000000000E+00  0.00000000000E+00  0.45593999997E+02  0.45594000000E+02  0.51100000000E-03 0. -1.
         11   -1    0    0    0    0 -0.00000000000E+00 -0.00000000000E+00 -0.45593999997E+02  0.45594000000E+02  0.51100000000E-03 0.  1.
    9900012    2    1    2    0    0 -0.10520796924E+02  0.21905127156E+02  0.20644489572E+02  0.59302004432E+02  0.50000110163E+02 0.  0.
        -12    1    1    2    0    0  0.10520796924E+02 -0.21905127156E+02 -0.20644489572E+02  0.31885995568E+02  0.00000000000E+00 0.  1.
         11    1    3    3    0    0 -0.60691818188E+01  0.27164343874E+02  0.90352132156E+01  0.29263827914E+02  0.51100000000E-03 0. -1.
        -11    1    3    3    0    0 -0.38889648321E+01  0.10879355402E+02  0.46566317152E+01  0.12456670527E+02  0.51100000000E-03 0.  1.
        -12    1    3    3    0    0 -0.56265027293E+00 -0.16138572120E+02  0.69526446415E+01  0.17581505991E+02  0.00000000000E+00 0.  1.
</event>
<event>
 7    1  0.6841384E-013  0.5930178E+02  0.7816164E-02  0.1266605E+00
        -11   -1    0    0    0    0  0.00000000000E+00  0.00000000000E+00  0.45593999997E+02  0.45594000000E+02  0.51100000000E-03 0.  1.
         11   -1    0    0    0    0 -0.00000000000E+00 -0.00000000000E+00 -0.45593999997E+02  0.45594000000E+02  0.51100000000E-03 0. -1.
    9900012    2    1    2    0    0 -0.23928642417E+02 -0.12777142551E+01 -0.21036123052E+02  0.59301781116E+02  0.49999702888E+02 0.  0.
        -12    1    1    2    0    0  0.23928642417E+02  0.12777142551E+01  0.21036123052E+02  0.31886218884E+02  0.00000000000E+00 0.  1.
         11    1    3    3    0    0 -0.20694983065E+02 -0.65209813791E+01 -0.11532244855E+02  0.24572305425E+02  0.51100000000E-03 0. -1.
        -11    1    3    3    0    0 -0.14263758255E+02 -0.78301176848E+01 -0.39318228600E+01  0.16739915584E+02  0.51100000000E-03 0.  1.
        -12    1    3    3    0    0  0.11030098903E+02  0.13073384809E+02 -0.55720553366E+01  0.17989560107E+02  0.00000000000E+00 0.  1.
</event>
<event>
 7    1  0.6841384E-013  0.5930194E+02  0.7816164E-02  0.1266605E+00
        -11   -1    0    0    0    0  0.00000000000E+00  0.00000000000E+00  0.45593999997E+02  0.45594000000E+02  0.51100000000E-03 0.  1.
         11   -1    0    0    0    0 -0.00000000000E+00 -0.00000000000E+00 -0.45593999997E+02  0.45594000000E+02  0.51100000000E-03 0. -1.
    9900012    2    1    2    0    0 -0.77719543904E+01 -0.11094207152E+02 -0.28865832720E+02  0.59301937120E+02  0.49999987401E+02 0.  0.
        -12    1    1    2    0    0  0.77719543904E+01  0.11094207152E+02  0.28865832720E+02  0.31886062880E+02  0.00000000000E+00 0.  1.
         11    1    3    3    0    0 -0.14977197635E+01 -0.42348739834E+01 -0.71373655611E+01  0.84332265213E+01  0.51100000000E-03 0. -1.
        -11    1    3    3    0    0 -0.30849262659E+01  0.75453915471E+01 -0.31915361916E+02  0.32939945813E+02  0.51100000000E-03 0.  1.
        -12    1    3    3    0    0 -0.31893083610E+01 -0.14404724716E+02  0.10186894757E+02  0.17928764786E+02  0.00000000000E+00 0.  1.
</event>
<event>
 7    1  0.6841384E-013  0.5930195E+02  0.7816164E-02  0.1266605E+00
        -11   -1    0    0    0    0  0.00000000000E+00  0.00000000000E+00  0.45593999997E+02  0.45594000000E+02  0.51100000000E-03 0. -1.
         11   -1    0    0    0    0 -0.00000000000E+00 -0.00000000000E+00 -0.45593999997E+02  0.45594000000E+02  0.51100000000E-03 0.  1.
    9900012    2    1    2    0    0  0.22564229951E+02 -0.16458152399E+02  0.15385214515E+02  0.59301951651E+02  0.50000013902E+02 0.  0.
        -12    1    1    2    0    0 -0.22564229951E+02  0.16458152399E+02 -0.15385214515E+02  0.31886048349E+02  0.00000000000E+00 0.  1.
         11    1    3    3    0    0  0.10460603951E+02 -0.61498783039E+01 -0.10673206255E+01  0.12181314041E+02  0.51100000000E-03 0. -1.
        -11    1    3    3    0    0 -0.42664484003E+01  0.12197350206E+02 -0.28749968557E+01  0.13237958346E+02  0.51100000000E-03 0.  1.
         12    1    3    3    0    0  0.16370074400E+02 -0.22505624301E+02  0.19327531996E+02  0.33882679264E+02  0.00000000000E+00 0. -1.
</event>
<event>
 7    1  0.6841384E-013  0.5930196E+02  0.7816164E-02  0.1266605E+00
        -11   -1    0    0    0    0  0.00000000000E+00  0.00000000000E+00  0.45593999997E+02  0.45594000000E+02  0.51100000000E-03 0.  1.
         11   -1    0    0    0    0 -0.00000000000E+00 -0.00000000000E+00 -0.45593999997E+02  0.45594000000E+02  0.51100000000E-03 0. -1.
    9900012    2    1    2    0    0 -0.50440009365E+01  0.14656054746E+02 -0.27865346292E+02  0.59301962144E+02  0.50000033039E+02 0.  0.
        -12    1    1    2    0    0  0.50440009365E+01 -0.14656054746E+02  0.27865346292E+02  0.31886037856E+02  0.00000000000E+00 0.  1.
         11    1    3    3    0    0  0.15788838823E+02  0.12452748495E+02 -0.65017773081E+01  0.21133657632E+02  0.51100000000E-03 0. -1.
        -11    1    3    3    0    0 -0.27898650064E+01  0.39730802144E+01  0.44758570172E+01  0.66031817667E+01  0.51100000000E-03 0.  1.
         12    1    3    3    0    0 -0.18042974753E+02 -0.17697739636E+01 -0.25839426002E+02  0.31565122745E+02  0.00000000000E+00 0. -1.
</event>
<event>
 7    1  0.6841384E-013  0.5930195E+02  0.7816164E-02  0.1266605E+00
        -11   -1    0    0    0    0  0.00000000000E+00  0.00000000000E+00  0.45593999997E+02  0.45594000000E+02  0.51100000000E-03 0. -1.
         11   -1    0    0    0    0 -0.00000000000E+00 -0.00000000000E+00 -0.45593999997E+02  0.45594000000E+02  0.51100000000E-03 0.  1.
    9900012    2    1    2    0    0  0.24054779070E+02  0.19818677493E+02  0.67311130681E+01  0.59301948868E+02  0.50000008827E+02 0.  0.
        -12    1    1    2    0    0 -0.24054779070E+02 -0.19818677493E+02 -0.67311130681E+01  0.31886051132E+02  0.00000000000E+00 0.  1.
         11    1    3    3    0    0 -0.23222949522E+01  0.32178731629E+01  0.27058965178E+01  0.48030862749E+01  0.51100000000E-03 0. -1.
        -11    1    3    3    0    0  0.23538108851E+02  0.11033393596E+02  0.22883009294E+02  0.34632505788E+02  0.51100000000E-03 0.  1.
         12    1    3    3    0    0  0.28389651712E+01  0.55674107334E+01 -0.18857792744E+02  0.19866356805E+02  0.00000000000E+00 0. -1.
</event>
<event>
 7    1  0.6841384E-013  0.5930208E+02  0.7816164E-02  0.1266604E+00
        -11   -1    0    0    0    0  0.00000000000E+00  0.00000000000E+00  0.45593999997E+02  0.45594000000E+02  0.51100000000E-03 0.  1.
         11   -1    0    0    0    0 -0.00000000000E+00 -0.00000000000E+00 -0.45593999997E+02  0.45594000000E+02  0.51100000000E-03 0. -1.
    9900012    2    1    2    0    0 -0.72034148227E+01 -0.25021871290E+02 -0.18404590023E+02  0.59302075804E+02  0.50000240327E+02 0.  0.
        -12    1    1    2    0    0  0.72034148227E+01  0.25021871290E+02  0.18404590023E+02  0.31885924196E+02  0.00000000000E+00 0.  1.
         11    1    3    3    0    0  0.20245850400E+01 -0.54154012605E+01 -0.11691338569E+02  0.13042734115E+02  0.51100000000E-03 0. -1.
        -11    1    3    3    0    0  0.33968941825E+01  0.64170364057E+01  0.10375877292E+02  0.12663967631E+02  0.51100000000E-03 0.  1.
         12    1    3    3    0    0 -0.12624894045E+02 -0.26023506435E+02 -0.17089128746E+02  0.33595374058E+02  0.00000000000E+00 0. -1.
</event>
<event>
 7    1  0.6841384E-013  0.5930197E+02  0.7816164E-02  0.1266605E+00
        -11   -1    0    0    0    0  0.00000000000E+00  0.00000000000E+00  0.45593999997E+02  0.45594000000E+02  0.51100000000E-03 0. -1.
         11   -1    0    0    0    0 -0.00000000000E+00 -0.00000000000E+00 -0.45593999997E+02  0.45594000000E+02  0.51100000000E-03 0.  1.
    9900012    2    1    2    0    0  0.38251217202E+01 -0.19111785040E+02  0.25235437485E+02  0.59301965617E+02  0.50000039374E+02 0.  0.
        -12    1    1    2    0    0 -0.38251217202E+01  0.19111785040E+02 -0.25235437485E+02  0.31886034383E+02  0.00000000000E+00 0.  1.
         11    1    3    3    0    0 -0.38669001966E+01 -0.97376370407E-01  0.16496597042E+00  0.38716421994E+01  0.51100000000E-03 0. -1.
        -11    1    3    3    0    0 -0.90999559118E+01  0.10205692999E+02  0.14910219854E+02  0.20230670369E+02  0.51100000000E-03 0.  1.
         12    1    3    3    0    0  0.16791977829E+02 -0.29220101669E+02  0.10160251660E+02  0.35199653049E+02  0.00000000000E+00 0. -1.
</event>
<event>
 7    1  0.6841384E-013  0.5930197E+02  0.7816164E-02  0.1266605E+00
        -11   -1    0    0    0    0  0.00000000000E+00  0.00000000000E+00  0.45593999997E+02  0.45594000000E+02  0.51100000000E-03 0. -1.
         11   -1    0    0    0    0 -0.00000000000E+00 -0.00000000000E+00 -0.45593999997E+02  0.45594000000E+02  0.51100000000E-03 0.  1.
    9900012    2    1    2    0    0  0.26651298903E+02  0.95885417786E+01 -0.14645380948E+02  0.59301967795E+02  0.50000043347E+02 0.  0.
        -12    1    1    2    0    0 -0.26651298903E+02 -0.95885417786E+01  0.14645380948E+02  0.31886032205E+02  0.00000000000E+00 0.  1.
         11    1    3    3    0    0  0.52972833906E+01 -0.95745834547E+01  0.11647526572E+02  0.15981199428E+02  0.51100000000E-03 0. -1.
        -11    1    3    3    0    0  0.49075735924E+01 -0.20321819682E+01  0.58663045361E+00  0.53439851859E+01  0.51100000000E-03 0.  1.
         12    1    3    3    0    0  0.16446441919E+02  0.21195307201E+02 -0.26879537973E+02  0.37976783182E+02  0.00000000000E+00 0. -1.
</event>
<event>
 7    1  0.6841384E-013  0.5930185E+02  0.7816164E-02  0.1266605E+00
        -11   -1    0    0    0    0  0.00000000000E+00  0.00000000000E+00  0.45593999997E+02  0.45594000000E+02  0.51100000000E-03 0. -1.
         11   -1    0    0    0    0 -0.00000000000E+00 -0.00000000000E+00 -0.45593999997E+02  0.45594000000E+02  0.51100000000E-03 0.  1.
    9900012    2    1    2    0    0  0.10681212436E+02 -0.19394599122E+02  0.22945321578E+02  0.59301850083E+02  0.49999828667E+02 0.  0.
        -12    1    1    2    0    0 -0.10681212436E+02  0.19394599122E+02 -0.22945321578E+02  0.31886149917E+02  0.00000000000E+00 0.  1.
         11    1    3    3    0    0  0.10727171394E+02  0.23661340568E+01 -0.72864894654E+00  0.11009165547E+02  0.51100000000E-03 0. -1.
        -11    1    3    3    0    0  0.88674052981E+01 -0.97913073255E+01 -0.64307053294E+01  0.14691989217E+02  0.51100000000E-03 0.  1.
         12    1    3    3    0    0 -0.89133642560E+01 -0.11969425853E+02  0.30104675854E+02  0.33600695319E+02  0.00000000000E+00 0. -1.
</event>
<event>
 7    1  0.6841384E-013  0.5930194E+02  0.7816164E-02  0.1266605E+00
        -11   -1    0    0    0    0  0.00000000000E+00  0.00000000000E+00  0.45593999997E+02  0.45594000000E+02  0.51100000000E-03 0.  1.
         11   -1    0    0    0    0 -0.00000000000E+00 -0.00000000000E+00 -0.45593999997E+02  0.45594000000E+02  0.51100000000E-03 0. -1.
    9900012    2    1    2    0    0 -0.12974744996E+02 -0.10241205679E+02 -0.27267099979E+02  0.59301936544E+02  0.49999986351E+02 0.  0.
        -12    1    1    2    0    0  0.12974744996E+02  0.10241205679E+02  0.27267099979E+02  0.31886063456E+02  0.00000000000E+00 0.  1.
         11    1    3    3    0    0 -0.93971798696E+00  0.64397993419E+01 -0.13167512038E+02  0.14688003915E+02  0.51100000000E-03 0. -1.
        -11    1    3    3    0    0 -0.54979917816E+01  0.62431345194E+01 -0.18581117372E+02  0.20358353698E+02  0.51100000000E-03 0.  1.
        -12    1    3    3    0    0 -0.65370352278E+01 -0.22924139540E+02  0.44815294307E+01  0.24255578931E+02  0.00000000000E+00 0.  1.
</event>
<event>
 7    1  0.6841384E-013  0.5930197E+02  0.7816164E-02  0.1266605E+00
        -11   -1    0    0    0    0  0.00000000000E+00  0.00000000000E+00  0.45593999997E+02  0.45594000000E+02  0.51100000000E-03 0. -1.
         11   -1    0    0    0    0 -0.00000000000E+00 -0.00000000000E+00 -0.45593999997E+02  0.45594000000E+02  0.51100000000E-03 0.  1.
    9900012    2    1    2    0    0  0.20934200197E+02  0.12216928411E+02  0.20717746915E+02  0.59301966774E+02  0.50000041483E+02 0.  0.
        -12    1    1    2    0    0 -0.20934200197E+02 -0.12216928411E+02 -0.20717746915E+02  0.31886033226E+02  0.00000000000E+00 0.  1.
         11    1    3    3    0    0  0.20187193604E+01  0.26380105979E+02  0.10282307326E+02  0.28385050001E+02  0.51100000000E-03 0. -1.
        -11    1    3    3    0    0  0.51877941932E+00 -0.97113280629E+01  0.10252907609E+01  0.97790718494E+01  0.51100000000E-03 0.  1.
        -12    1    3    3    0    0  0.18396701417E+02 -0.44518495056E+01  0.94101488284E+01  0.21137844924E+02  0.00000000000E+00 0.  1.
</event>
<event>
 7    1  0.6841384E-013  0.5930195E+02  0.7816164E-02  0.1266605E+00
        -11   -1    0    0    0    0  0.00000000000E+00  0.00000000000E+00  0.45593999997E+02  0.45594000000E+02  0.51100000000E-03 0.  1.
         11   -1    0    0    0    0 -0.00000000000E+00 -0.00000000000E+00 -0.45593999997E+02  0.45594000000E+02  0.51100000000E-03 0. -1.
    9900012    2    1    2    0    0  0.30328609982E+01 -0.29238701316E+02 -0.12353956166E+02  0.59301950803E+02  0.50000012356E+02 0.  0.
        -12    1    1    2    0    0 -0.30328609982E+01  0.29238701316E+02  0.12353956166E+02  0.31886049197E+02  0.00000000000E+00 0.  1.
         11    1    3    3    0    0 -0.12699850395E+02 -0.85893042442E+01 -0.74991530522E+01  0.17067502577E+02  0.51100000000E-03 0. -1.
        -11    1    3    3    0    0 -0.60510325400E+01  0.49838946503E+01  0.15497103592E+01  0.79909826144E+01  0.51100000000E-03 0.  1.
        -12    1    3    3    0    0  0.21783743933E+02 -0.25633291722E+02 -0.64045134726E+01  0.34243465611E+02  0.00000000000E+00 0.  1.
</event>
<event>
 7    1  0.6841384E-013  0.5930185E+02  0.7816164E-02  0.1266605E+00
        -11   -1    0    0    0    0  0.00000000000E+00  0.00000000000E+00  0.45593999997E+02  0.45594000000E+02  0.51100000000E-03 0.  1.
         11   -1    0    0    0    0 -0.00000000000E+00 -0.00000000000E+00 -0.45593999997E+02  0.45594000000E+02  0.51100000000E-03 0. -1.
    9900012    2    1    2    0    0  0.10064690793E+02  0.38110418210E+01 -0.30015067557E+02  0.59301853776E+02  0.49999835403E+02 0.  0.
        -12    1    1    2    0    0 -0.10064690793E+02 -0.38110418210E+01  0.30015067557E+02  0.31886146224E+02  0.00000000000E+00 0.  1.
         11    1    3    3    0    0 -0.15831827965E+01  0.62980022471E+01  0.44361441940E+01  0.78645200516E+01  0.51100000000E-03 0. -1.
        -11    1    3    3    0    0  0.36042080316E+01  0.16824231508E+02 -0.14001364453E+02  0.22182950394E+02  0.51100000000E-03 0.  1.
         12    1    3    3    0    0  0.80436655584E+01 -0.19311191934E+02 -0.20449847299E+02  0.29254383331E+02  0.00000000000E+00 0. -1.
</event>
<event>
 7    1  0.6841384E-013  0.5930192E+02  0.7816164E-02  0.1266605E+00
        -11   -1    0    0    0    0  0.00000000000E+00  0.00000000000E+00  0.45593999997E+02  0.45594000000E+02  0.51100000000E-03 0. -1.
         11   -1    0    0    0    0 -0.00000000000E+00 -0.00000000000E+00 -0.45593999997E+02  0.45594000000E+02  0.51100000000E-03 0.  1.
    9900012    2    1    2    0    0  0.19724043593E+02  0.99807687846E+01  0.22979742446E+02  0.59301918333E+02  0.49999953139E+02 0.  0.
        -12    1    1    2    0    0 -0.19724043593E+02 -0.99807687846E+01 -0.22979742446E+02  0.31886081667E+02  0.00000000000E+00 0.  1.
         11    1    3    3    0    0  0.91599163044E+01 -0.55164996226E+01 -0.10704627706E+02  0.15130264022E+02  0.51100000000E-03 0. -1.
        -11    1    3    3    0    0  0.88388388992E+00 -0.52336710120E+01  0.94819405317E+01  0.10866451100E+02  0.51100000000E-03 0.  1.
         12    1    3    3    0    0  0.96802433989E+01  0.20730939419E+02  0.24202429620E+02  0.33305203212E+02  0.00000000000E+00 0. -1.
</event>
<event>
 7    1  0.6841384E-013  0.5930198E+02  0.7816164E-02  0.1266605E+00
        -11   -1    0    0    0    0  0.00000000000E+00  0.00000000000E+00  0.45593999997E+02  0.45594000000E+02  0.51100000000E-03 0. -1.
         11   -1    0    0    0    0 -0.00000000000E+00 -0.00000000000E+00 -0.45593999997E+02  0.45594000000E+02  0.51100000000E-03 0.  1.
    9900012    2    1    2    0    0  0.83379040903E+01 -0.28493615717E+02 -0.11632349859E+02  0.59301978854E+02  0.50000063515E+02 0.  0.
        -12    1    1    2    0    0 -0.83379040903E+01  0.28493615717E+02  0.11632349859E+02  0.31886021146E+02  0.00000000000E+00 0.  1.
         11    1    3    3    0    0  0.93233978108E+01 -0.54435597315E+01 -0.91347123869E+01  0.14142173098E+02  0.51100000000E-03 0. -1.
        -11    1    3    3    0    0  0.70584918493E+00  0.49301912374E+01 -0.14000608759E+02  0.14860082590E+02  0.51100000000E-03 0.  1.
         12    1    3    3    0    0 -0.16913429055E+01 -0.27980247223E+02  0.11502971287E+02  0.30299723166E+02  0.00000000000E+00 0. -1.
</event>
<event>
 7    1  0.6841384E-013  0.5930208E+02  0.7816164E-02  0.1266604E+00
        -11   -1    0    0    0    0  0.00000000000E+00  0.00000000000E+00  0.45593999997E+02  0.45594000000E+02  0.51100000000E-03 0. -1.
         11   -1    0    0    0    0 -0.00000000000E+00 -0.00000000000E+00 -0.45593999997E+02  0.45594000000E+02  0.51100000000E-03 0.  1.
    9900012    2    1    2    0    0  0.14893758866E+02 -0.56549033295E+01  0.27620827032E+02  0.59302077232E+02  0.50000242932E+02 0.  0.
        -12    1    1    2    0    0 -0.14893758866E+02  0.56549033295E+01 -0.27620827032E+02  0.31885922768E+02  0.00000000000E+00 0.  1.
         11    1    3    3    0    0  0.20237342721E+01  0.80501321530E+01  0.11948352614E+02  0.14548651433E+02  0.51100000000E-03 0. -1.
        -11    1    3    3    0    0 -0.49245295582E+01  0.90481285832E+01  0.11712390862E+02  0.15598067899E+02  0.51100000000E-03 0.  1.
        -12    1    3    3    0    0  0.17794554152E+02 -0.22753164066E+02  0.39600835572E+01  0.29155357900E+02  0.00000000000E+00 0.  1.
</event>
<event>
 7    1  0.6841384E-013  0.5930158E+02  0.7816164E-02  0.1266606E+00
        -11   -1    0    0    0    0  0.00000000000E+00  0.00000000000E+00  0.45593999997E+02  0.45594000000E+02  0.51100000000E-03 0.  1.
         11   -1    0    0    0    0 -0.00000000000E+00 -0.00000000000E+00 -0.45593999997E+02  0.45594000000E+02  0.51100000000E-03 0. -1.
    9900012    2    1    2    0    0  0.21073799728E+02 -0.14040428911E+02 -0.19377960756E+02  0.59301575898E+02  0.49999328615E+02 0.  0.
        -12    1    1    2    0    0 -0.21073799728E+02  0.14040428911E+02  0.19377960756E+02  0.31886424102E+02  0.00000000000E+00 0.  1.
         11    1    3    3    0    0 -0.12714592232E+02  0.26138900087E+00 -0.91463537929E+01  0.15664768361E+02  0.51100000000E-03 0. -1.
        -11    1    3    3    0    0 -0.18282732885E+01 -0.31597935484E+01 -0.46360897751E+01  0.59008649493E+01  0.51100000000E-03 0.  1.
         12    1    3    3    0    0  0.35616665249E+02 -0.11142024363E+02 -0.55955171878E+01  0.37735942587E+02  0.00000000000E+00 0. -1.
</event>
<event>
 7    1  0.6841384E-013  0.5930193E+02  0.7816164E-02  0.1266605E+00
        -11   -1    0    0    0    0  0.00000000000E+00  0.00000000000E+00  0.45593999997E+02  0.45594000000E+02  0.51100000000E-03 0.  1.
         11   -1    0    0    0    0 -0.00000000000E+00 -0.00000000000E+00 -0.45593999997E+02  0.45594000000E+02  0.51100000000E-03 0. -1.
    9900012    2    1    2    0    0  0.81013766809E+01  0.14439232213E+01 -0.30805916300E+02  0.59301926277E+02  0.49999967626E+02 0.  0.
        -12    1    1    2    0    0 -0.81013766809E+01 -0.14439232213E+01  0.30805916300E+02  0.31886073723E+02  0.00000000000E+00 0.  1.
         11    1    3    3    0    0  0.14768832323E+02 -0.66577480358E+01  0.55564911755E+01  0.17126546983E+02  0.51100000000E-03 0. -1.
        -11    1    3    3    0    0 -0.16620680877E+01 -0.20267923151E+01  0.12492038677E+01  0.29035956986E+01  0.51100000000E-03 0.  1.
         12    1    3    3    0    0 -0.50053875546E+01  0.10128463572E+02 -0.37611611344E+02  0.39271783595E+02  0.00000000000E+00 0. -1.
</event>
<event>
 7    1  0.6841384E-013  0.5930196E+02  0.7816164E-02  0.1266605E+00
        -11   -1    0    0    0    0  0.00000000000E+00  0.00000000000E+00  0.45593999997E+02  0.45594000000E+02  0.51100000000E-03 0.  1.
         11   -1    0    0    0    0 -0.00000000000E+00 -0.00000000000E+00 -0.45593999997E+02  0.45594000000E+02  0.51100000000E-03 0. -1.
    9900012    2    1    2    0    0 -0.30831334085E+01  0.69441202326E+01 -0.30967617389E+02  0.59301955338E+02  0.50000020628E+02 0.  0.
        -12    1    1    2    0    0  0.30831334085E+01 -0.69441202326E+01  0.30967617389E+02  0.31886044662E+02  0.00000000000E+00 0.  1.
         11    1    3    3    0    0 -0.55382944226E+01  0.34115763674E+01 -0.13636270162E+02  0.15108256769E+02  0.51100000000E-03 0. -1.
        -11    1    3    3    0    0 -0.11280021544E+02  0.13575460458E+02 -0.20322960274E+02  0.26917554258E+02  0.51100000000E-03 0.  1.
         12    1    3    3    0    0  0.13735182558E+02 -0.10042916593E+02  0.29916130469E+01  0.17276144310E+02  0.00000000000E+00 0. -1.
</event>
<event>
 7    1  0.6841384E-013  0.5930189E+02  0.7816164E-02  0.1266605E+00
        -11   -1    0    0    0    0  0.00000000000E+00  0.00000000000E+00  0.45593999997E+02  0.45594000000E+02  0.51100000000E-03 0.  1.
         11   -1    0    0    0    0 -0.00000000000E+00 -0.00000000000E+00 -0.45593999997E+02  0.45594000000E+02  0.51100000000E-03 0. -1.
    9900012    2    1    2    0    0  0.26254440342E+02 -0.51529942690E+01  0.17345748144E+02  0.59301890700E+02  0.49999902743E+02 0.  0.
        -12    1    1    2    0    0 -0.26254440342E+02  0.51529942690E+01 -0.17345748144E+02  0.31886109300E+02  0.00000000000E+00 0.  1.
         11    1    3    3    0    0  0.95074312438E+01  0.86643214354E+01 -0.25808093188E+01  0.13119538551E+02  0.51100000000E-03 0. -1.
        -11    1    3    3    0    0  0.38829293085E+01  0.83570273013E+01 -0.49503609343E+01  0.10460550606E+02  0.51100000000E-03 0.  1.
        -12    1    3    3    0    0  0.12864079790E+02 -0.22174343006E+02  0.24876918397E+02  0.35721801543E+02  0.00000000000E+00 0.  1.
</event>
<event>
 7    1  0.6841384E-013  0.5930200E+02  0.7816164E-02  0.1266605E+00
        -11   -1    0    0    0    0  0.00000000000E+00  0.00000000000E+00  0.45593999997E+02  0.45594000000E+02  0.51100000000E-03 0. -1.
         11   -1    0    0    0    0 -0.00000000000E+00 -0.00000000000E+00 -0.45593999997E+02  0.45594000000E+02  0.51100000000E-03 0.  1.
    9900012    2    1    2    0    0 -0.19733298184E+02 -0.19410470178E+02  0.15828704007E+02  0.59301995542E+02  0.50000093950E+02 0.  0.
        -12    1    1    2    0    0  0.19733298184E+02  0.19410470178E+02 -0.15828704007E+02  0.31886004458E+02  0.00000000000E+00 0.  1.
         11    1    3    3    0    0  0.63043386769E+01  0.78691298141E+01  0.13941084403E+02  0.17205281886E+02  0.51100000000E-03 0. -1.
        -11    1    3    3    0    0 -0.60261368135E+01  0.10214706214E+01 -0.34627322225E+01  0.70248303774E+01  0.51100000000E-03 0.  1.
         12    1    3    3    0    0 -0.20011500048E+02 -0.28301070614E+02  0.53503518261E+01  0.35071883278E+02  0.00000000000E+00 0. -1.
</event>
<event>
 7    1  0.6841384E-013  0.5930188E+02  0.7816164E-02  0.1266605E+00
        -11   -1    0    0    0    0  0.00000000000E+00  0.00000000000E+00  0.45593999997E+02  0.45594000000E+02  0.51100000000E-03 0.  1.
         11   -1    0    0    0    0 -0.00000000000E+00 -0.00000000000E+00 -0.45593999997E+02  0.45594000000E+02  0.51100000000E-03 0. -1.
    9900012    2    1    2    0    0 -0.21204354316E+02 -0.14678683003E+01 -0.23768575920E+02  0.59301882636E+02  0.49999888035E+02 0.  0.
        -12    1    1    2    0    0  0.21204354316E+02  0.14678683003E+01  0.23768575920E+02  0.31886117364E+02  0.00000000000E+00 0.  1.
         11    1    3    3    0    0 -0.69007798870E+01 -0.49735775646E+01 -0.45903731306E+01  0.96658555016E+01  0.51100000000E-03 0. -1.
        -11    1    3    3    0    0 -0.24597590161E+02 -0.11239259198E+02 -0.15855032809E+02  0.31348755233E+02  0.51100000000E-03 0.  1.
         12    1    3    3    0    0  0.10294015732E+02  0.14744968462E+02 -0.33231699804E+01  0.18287271901E+02  0.00000000000E+00 0. -1.
</event>
<event>
 7    1  0.6841384E-013  0.5930196E+02  0.7816164E-02  0.1266605E+00
        -11   -1    0    0    0    0  0.00000000000E+00  0.00000000000E+00  0.45593999997E+02  0.45594000000E+02  0.51100000000E-03 0.  1.
         11   -1    0    0    0    0 -0.00000000000E+00 -0.00000000000E+00 -0.45593999997E+02  0.45594000000E+02  0.51100000000E-03 0. -1.
    9900012    2    1    2    0    0 -0.26179122909E+02  0.18037188891E+02  0.24562314167E+01  0.59301957095E+02  0.50000023832E+02 0.  0.
        -12    1    1    2    0    0  0.26179122909E+02 -0.18037188891E+02 -0.24562314167E+01  0.31886042905E+02  0.00000000000E+00 0.  1.
         11    1    3    3    0    0  0.28990208231E+01  0.15286099176E+02  0.93651634002E+01  0.18159720139E+02  0.51100000000E-03 0. -1.
        -11    1    3    3    0    0  0.39449671836E+01  0.56513098338E+01  0.12458558496E+01  0.70037294334E+01  0.51100000000E-03 0.  1.
         12    1    3    3    0    0 -0.33023110915E+02 -0.29002201193E+01 -0.81547878332E+01  0.34138507523E+02  0.00000000000E+00 0. -1.
</event>
<event>
 7    1  0.6841384E-013  0.5930193E+02  0.7816164E-02  0.1266605E+00
        -11   -1    0    0    0    0  0.00000000000E+00  0.00000000000E+00  0.45593999997E+02  0.45594000000E+02  0.51100000000E-03 0.  1.
         11   -1    0    0    0    0 -0.00000000000E+00 -0.00000000000E+00 -0.45593999997E+02  0.45594000000E+02  0.51100000000E-03 0. -1.
    9900012    2    1    2    0    0 -0.22777420682E+02 -0.11143417599E+02 -0.19332227439E+02  0.59301926764E+02  0.49999968514E+02 0.  0.
        -12    1    1    2    0    0  0.22777420682E+02  0.11143417599E+02  0.19332227439E+02  0.31886073236E+02  0.00000000000E+00 0.  1.
         11    1    3    3    0    0  0.34398341503E+01 -0.89203005387E+01  0.79478791671E+01  0.12432739207E+02  0.51100000000E-03 0. -1.
        -11    1    3    3    0    0 -0.12932079305E+02  0.15487955195E+01  0.31952414082E+01  0.13410705076E+02  0.51100000000E-03 0.  1.
        -12    1    3    3    0    0 -0.13285175527E+02 -0.37719125797E+01 -0.30475348014E+02  0.33458482480E+02  0.00000000000E+00 0.  1.
</event>
<event>
 7    1  0.6841384E-013  0.5930192E+02  0.7816164E-02  0.1266605E+00
        -11   -1    0    0    0    0  0.00000000000E+00  0.00000000000E+00  0.45593999997E+02  0.45594000000E+02  0.51100000000E-03 0.  1.
         11   -1    0    0    0    0 -0.00000000000E+00 -0.00000000000E+00 -0.45593999997E+02  0.45594000000E+02  0.51100000000E-03 0. -1.
    9900012    2    1    2    0    0  0.77028271272E+01  0.24567928338E+02 -0.18809718010E+02  0.59301919335E+02  0.49999954967E+02 0.  0.
        -12    1    1    2    0    0 -0.77028271272E+01 -0.24567928338E+02  0.18809718010E+02  0.31886080665E+02  0.00000000000E+00 0.  1.
         11    1    3    3    0    0  0.16643864273E+02  0.31743891393E+01 -0.22429086863E+02  0.28109765245E+02  0.51100000000E-03 0. -1.
        -11    1    3    3    0    0 -0.58221078602E+01 -0.28052139012E+01 -0.35146640338E+00  0.64722247999E+01  0.51100000000E-03 0.  1.
         12    1    3    3    0    0 -0.31189292860E+01  0.24198753100E+02  0.39708352570E+01  0.24719929290E+02  0.00000000000E+00 0. -1.
</event>
<event>
 7    1  0.6841384E-013  0.5930177E+02  0.7816164E-02  0.1266605E+00
        -11   -1    0    0    0    0  0.00000000000E+00  0.00000000000E+00  0.45593999997E+02  0.45594000000E+02  0.51100000000E-03 0.  1.
         11   -1    0    0    0    0 -0.00000000000E+00 -0.00000000000E+00 -0.45593999997E+02  0.45594000000E+02  0.51100000000E-03 0. -1.
    9900012    2    1    2    0    0  0.61835850849E+01 -0.18307238794E+02 -0.25364144904E+02  0.59301771570E+02  0.49999685478E+02 0.  0.
        -12    1    1    2    0    0 -0.61835850849E+01  0.18307238794E+02  0.25364144904E+02  0.31886228430E+02  0.00000000000E+00 0.  1.
         11    1    3    3    0    0 -0.17703608953E+01 -0.34509977846E+01 -0.23012429680E+01  0.45099094080E+01  0.51100000000E-03 0. -1.
        -11    1    3    3    0    0  0.17764181740E+02 -0.14602059039E+02  0.62915108583E+01  0.23840498951E+02  0.51100000000E-03 0.  1.
         12    1    3    3    0    0 -0.98102357601E+01 -0.25418197056E+00 -0.29354412794E+02  0.30951363211E+02  0.00000000000E+00 0. -1.
</event>
<event>
 7    1  0.6841384E-013  0.5930179E+02  0.7816164E-02  0.1266605E+00
        -11   -1    0    0    0    0  0.00000000000E+00  0.00000000000E+00  0.45593999997E+02  0.45594000000E+02  0.51100000000E-03 0. -1.
         11   -1    0    0    0    0 -0.00000000000E+00 -0.00000000000E+00 -0.45593999997E+02  0.45594000000E+02  0.51100000000E-03 0.  1.
    9900012    2    1    2    0    0  0.64535126382E+01  0.19893201834E+02  0.24069551689E+02  0.59301786316E+02  0.49999712371E+02 0.  0.
        -12    1    1    2    0    0 -0.64535126382E+01 -0.19893201834E+02 -0.24069551689E+02  0.31886213684E+02  0.00000000000E+00 0.  1.
         11    1    3    3    0    0 -0.83549895733E+01  0.75038739215E+01 -0.75922769232E+01  0.13555686768E+02  0.51100000000E-03 0. -1.
        -11    1    3    3    0    0 -0.54562322815E+01  0.47405030030E+01 -0.18626779286E+00  0.72303205588E+01  0.51100000000E-03 0.  1.
         12    1    3    3    0    0  0.20264734493E+02  0.76488249093E+01  0.31848096405E+02  0.38515778990E+02  0.00000000000E+00 0. -1.
</event>
<event>
 7    1  0.6841384E-013  0.5930194E+02  0.7816164E-02  0.1266605E+00
        -11   -1    0    0    0    0  0.00000000000E+00  0.00000000000E+00  0.45593999997E+02  0.45594000000E+02  0.51100000000E-03 0.  1.
         11   -1    0    0    0    0 -0.00000000000E+00 -0.00000000000E+00 -0.45593999997E+02  0.45594000000E+02  0.51100000000E-03 0. -1.
    9900012    2    1    2    0    0 -0.10995571907E+02 -0.11738044439E+02 -0.27532463423E+02  0.59301939865E+02  0.49999992408E+02 0.  0.
        -12    1    1    2    0    0  0.10995571907E+02  0.11738044439E+02  0.27532463423E+02  0.31886060135E+02  0.00000000000E+00 0.  1.
         11    1    3    3    0    0 -0.96928663308E+01 -0.69622672644E+01 -0.22001982801E+02  0.25030223143E+02  0.51100000000E-03 0. -1.
        -11    1    3    3    0    0  0.77993850820E+01 -0.94054395198E+01  0.99288889069E+01  0.15744063497E+02  0.51100000000E-03 0.  1.
         12    1    3    3    0    0 -0.91020906583E+01  0.46296623448E+01 -0.15459369529E+02  0.18527653224E+02  0.00000000000E+00 0. -1.
</event>
<event>
 7    1  0.6841384E-013  0.5930194E+02  0.7816164E-02  0.1266605E+00
        -11   -1    0    0    0    0  0.00000000000E+00  0.00000000000E+00  0.45593999997E+02  0.45594000000E+02  0.51100000000E-03 0.  1.
         11   -1    0    0    0    0 -0.00000000000E+00 -0.00000000000E+00 -0.45593999997E+02  0.45594000000E+02  0.51100000000E-03 0. -1.
    9900012    2    1    2    0    0  0.19620580478E+02 -0.24522007201E+02  0.55158445697E+01  0.59301944164E+02  0.50000000249E+02 0.  0.
        -12    1    1    2    0    0 -0.19620580478E+02  0.24522007201E+02 -0.55158445697E+01  0.31886055836E+02  0.00000000000E+00 0.  1.
         11    1    3    3    0    0  0.29573492033E+02 -0.22816575638E+02 -0.13775266135E+01  0.37377602046E+02  0.51100000000E-03 0. -1.
        -11    1    3    3    0    0  0.48778513930E+01  0.53681214857E+00 -0.94952631336E+00  0.49983199153E+01  0.51100000000E-03 0.  1.
         12    1    3    3    0    0 -0.14830762948E+02 -0.22422437113E+01  0.78428974966E+01  0.16926022203E+02  0.00000000000E+00 0. -1.
</event>
<event>
 7    1  0.6841384E-013  0.5930193E+02  0.7816164E-02  0.1266605E+00
        -11   -1    0    0    0    0  0.00000000000E+00  0.00000000000E+00  0.45593999997E+02  0.45594000000E+02  0.51100000000E-03 0. -1.
         11   -1    0    0    0    0 -0.00000000000E+00 -0.00000000000E+00 -0.45593999997E+02  0.45594000000E+02  0.51100000000E-03 0.  1.
    9900012    2    1    2    0    0 -0.13024595038E+02  0.23835955171E+02  0.16701151371E+02  0.59301932637E+02  0.49999979226E+02 0.  0.
        -12    1    1    2    0    0  0.13024595038E+02 -0.23835955171E+02 -0.16701151371E+02  0.31886067363E+02  0.00000000000E+00 0.  1.
         11    1    3    3    0    0 -0.10792486304E+02  0.69453292701E+00  0.15815826734E+02  0.19159867227E+02  0.51100000000E-03 0. -1.
        -11    1    3    3    0    0 -0.15256072832E+02  0.32600420311E+01  0.41712293421E+01  0.16148522743E+02  0.51100000000E-03 0.  1.
         12    1    3    3    0    0  0.13023964098E+02  0.19881380212E+02 -0.32859047054E+01  0.23993542667E+02  0.00000000000E+00 0. -1.
</event>
<event>
 7    1  0.6841384E-013  0.5930196E+02  0.7816164E-02  0.1266605E+00
        -11   -1    0    0    0    0  0.00000000000E+00  0.00000000000E+00  0.45593999997E+02  0.45594000000E+02  0.51100000000E-03 0.  1.
         11   -1    0    0    0    0 -0.00000000000E+00 -0.00000000000E+00 -0.45593999997E+02  0.45594000000E+02  0.51100000000E-03 0. -1.
    9900012    2    1    2    0    0  0.75890475581E+01  0.76695241958E+01 -0.30005071402E+02  0.59301959887E+02  0.50000028924E+02 0.  0.
        -12    1    1    2    0    0 -0.75890475581E+01 -0.76695241958E+01  0.30005071402E+02  0.31886040113E+02  0.00000000000E+00 0.  1.
         11    1    3    3    0    0  0.81274654730E+01 -0.88476193702E+01 -0.70985500679E+00  0.12034947359E+02  0.51100000000E-03 0. -1.
        -11    1    3    3    0    0  0.32304951992E+01  0.98609864794E+01  0.54284591239E+01  0.11710820736E+02  0.51100000000E-03 0.  1.
         12    1    3    3    0    0 -0.37689131141E+01  0.66561570867E+01 -0.34723675519E+02  0.35556191793E+02  0.00000000000E+00 0. -1.
</event>
<event>
 7    1  0.6841384E-013  0.5930173E+02  0.7816164E-02  0.1266605E+00
        -11   -1    0    0    0    0  0.00000000000E+00  0.00000000000E+00  0.45593999997E+02  0.45594000000E+02  0.51100000000E-03 0.  1.
         11   -1    0    0    0    0 -0.00000000000E+00 -0.00000000000E+00 -0.45593999997E+02  0.45594000000E+02  0.51100000000E-03 0. -1.
    9900012    2    1    2    0    0 -0.22338091808E+02 -0.20400454286E+02 -0.10077956630E+02  0.59301731944E+02  0.49999613209E+02 0.  0.
        -12    1    1    2    0    0  0.22338091808E+02  0.20400454286E+02  0.10077956630E+02  0.31886268056E+02  0.00000000000E+00 0.  1.
         11    1    3    3    0    0 -0.22052042894E+01  0.77474450296E+01  0.26641657977E+01  0.84843155353E+01  0.51100000000E-03 0. -1.
        -11    1    3    3    0    0  0.72181620322E+01 -0.78364612501E+01 -0.12923311045E+02  0.16748849414E+02  0.51100000000E-03 0.  1.
         12    1    3    3    0    0 -0.27351049550E+02 -0.20311438065E+02  0.18118861747E+00  0.34068566995E+02  0.00000000000E+00 0. -1.
</event>
<event>
 7    1  0.6841384E-013  0.5930194E+02  0.7816164E-02  0.1266605E+00
        -11   -1    0    0    0    0  0.00000000000E+00  0.00000000000E+00  0.45593999997E+02  0.45594000000E+02  0.51100000000E-03 0.  1.
         11   -1    0    0    0    0 -0.00000000000E+00 -0.00000000000E+00 -0.45593999997E+02  0.45594000000E+02  0.51100000000E-03 0. -1.
    9900012    2    1    2    0    0 -0.26634349807E+02  0.17477684825E+02 -0.13648923606E+01  0.59301937407E+02  0.49999987926E+02 0.  0.
        -12    1    1    2    0    0  0.26634349807E+02 -0.17477684825E+02  0.13648923606E+01  0.31886062593E+02  0.00000000000E+00 0.  1.
         11    1    3    3    0    0  0.16659376167E+01 -0.36796565067E+01  0.48773001905E+01  0.63327148649E+01  0.51100000000E-03 0. -1.
        -11    1    3    3    0    0  0.92876376244E+01  0.15582105365E+01  0.23730958178E+01  0.97118389989E+01  0.51100000000E-03 0.  1.
         12    1    3    3    0    0 -0.37587925048E+02  0.19599130796E+02 -0.86152883689E+01  0.43257383544E+02  0.00000000000E+00 0. -1.
</event>
<event>
 7    1  0.6841384E-013  0.5930195E+02  0.7816164E-02  0.1266605E+00
        -11   -1    0    0    0    0  0.00000000000E+00  0.00000000000E+00  0.45593999997E+02  0.45594000000E+02  0.51100000000E-03 0.  1.
         11   -1    0    0    0    0 -0.00000000000E+00 -0.00000000000E+00 -0.45593999997E+02  0.45594000000E+02  0.51100000000E-03 0. -1.
    9900012    2    1    2    0    0  0.16461200983E+02 -0.12224240011E+02 -0.24419606345E+02  0.59301947317E+02  0.50000006000E+02 0.  0.
        -12    1    1    2    0    0 -0.16461200983E+02  0.12224240011E+02  0.24419606345E+02  0.31886052683E+02  0.00000000000E+00 0.  1.
         11    1    3    3    0    0 -0.30638827006E+01 -0.37653179683E+01 -0.18650246508E+02  0.19271655136E+02  0.51100000000E-03 0. -1.
        -11    1    3    3    0    0  0.20535551595E+02 -0.19330912815E+02 -0.69539237343E+01  0.29047377250E+02  0.51100000000E-03 0.  1.
         12    1    3    3    0    0 -0.10104679113E+01  0.10871990772E+02  0.11845638978E+01  0.10982914931E+02  0.00000000000E+00 0. -1.
</event>
<event>
 7    1  0.6841384E-013  0.5930193E+02  0.7816164E-02  0.1266605E+00
        -11   -1    0    0    0    0  0.00000000000E+00  0.00000000000E+00  0.45593999997E+02  0.45594000000E+02  0.51100000000E-03 0. -1.
         11   -1    0    0    0    0 -0.00000000000E+00 -0.00000000000E+00 -0.45593999997E+02  0.45594000000E+02  0.51100000000E-03 0.  1.
    9900012    2    1    2    0    0 -0.25984772089E+02  0.18463360918E+02 -0.78561548281E+00  0.59301933002E+02  0.49999979892E+02 0.  0.
        -12    1    1    2    0    0  0.25984772089E+02 -0.18463360918E+02  0.78561548281E+00  0.31886066998E+02  0.00000000000E+00 0.  1.
         11    1    3    3    0    0 -0.28781637227E+02  0.64435307520E+01  0.46826077748E+01  0.29863498554E+02  0.51100000000E-03 0. -1.
        -11    1    3    3    0    0  0.24283923482E+01 -0.82572082516E+01 -0.23298248755E+01  0.89166508129E+01  0.51100000000E-03 0.  1.
         12    1    3    3    0    0  0.36847279029E+00  0.20277038417E+02 -0.31383983820E+01  0.20521783636E+02  0.00000000000E+00 0. -1.
</event>
<event>
 7    1  0.6841384E-013  0.5930192E+02  0.7816164E-02  0.1266605E+00
        -11   -1    0    0    0    0  0.00000000000E+00  0.00000000000E+00  0.45593999997E+02  0.45594000000E+02  0.51100000000E-03 0.  1.
         11   -1    0    0    0    0 -0.00000000000E+00 -0.00000000000E+00 -0.45593999997E+02  0.45594000000E+02  0.51100000000E-03 0. -1.
    9900012    2    1    2    0    0  0.25646100089E+02  0.10689468425E+02 -0.15644003415E+02  0.59301921097E+02  0.49999958179E+02 0.  0.
        -12    1    1    2    0    0 -0.25646100089E+02 -0.10689468425E+02  0.15644003415E+02  0.31886078903E+02  0.00000000000E+00 0.  1.
         11    1    3    3    0    0  0.31926282522E+02  0.14325545365E+01 -0.14680095505E+02  0.35168806242E+02  0.51100000000E-03 0. -1.
        -11    1    3    3    0    0 -0.32913119539E+01 -0.62395728536E+01 -0.39291833604E+01  0.80748675478E+01  0.51100000000E-03 0.  1.
        -12    1    3    3    0    0 -0.29888704791E+01  0.15496486742E+02  0.29652754504E+01  0.16058247307E+02  0.00000000000E+00 0.  1.
</event>
<event>
 7    1  0.6841384E-013  0.5930198E+02  0.7816164E-02  0.1266605E+00
        -11   -1    0    0    0    0  0.00000000000E+00  0.00000000000E+00  0.45593999997E+02  0.45594000000E+02  0.51100000000E-03 0. -1.
         11   -1    0    0    0    0 -0.00000000000E+00 -0.00000000000E+00 -0.45593999997E+02  0.45594000000E+02  0.51100000000E-03 0.  1.
    9900012    2    1    2    0    0  0.33347130506E+01 -0.95473412834E+01  0.30239808812E+02  0.59301983100E+02  0.50000071259E+02 0.  0.
        -12    1    1    2    0    0 -0.33347130506E+01  0.95473412834E+01 -0.30239808812E+02  0.31886016900E+02  0.00000000000E+00 0.  1.
         11    1    3    3    0    0  0.44990471509E+01  0.37700418049E+00  0.38592046283E+02  0.38855238951E+02  0.51100000000E-03 0. -1.
        -11    1    3    3    0    0 -0.75717272457E+01 -0.11071481868E+01 -0.23556405081E+01  0.80066143317E+01  0.51100000000E-03 0.  1.
        -12    1    3    3    0    0  0.64073931454E+01 -0.88171972772E+01 -0.59965969623E+01  0.12440129817E+02  0.00000000000E+00 0.  1.
</event>
<event>
 7    1  0.6841384E-013  0.5930194E+02  0.7816164E-02  0.1266605E+00
        -11   -1    0    0    0    0  0.00000000000E+00  0.00000000000E+00  0.45593999997E+02  0.45594000000E+02  0.51100000000E-03 0.  1.
         11   -1    0    0    0    0 -0.00000000000E+00 -0.00000000000E+00 -0.45593999997E+02  0.45594000000E+02  0.51100000000E-03 0. -1.
    9900012    2    1    2    0    0 -0.28719879274E+02  0.57019832213E+01  0.12624446624E+02  0.59301941436E+02  0.49999995273E+02 0.  0.
        -12    1    1    2    0    0  0.28719879274E+02 -0.57019832213E+01 -0.12624446624E+02  0.31886058564E+02  0.00000000000E+00 0.  1.
         11    1    3    3    0    0 -0.52150923800E+00  0.14395080811E+02 -0.77461962666E+01  0.16355240148E+02  0.51100000000E-03 0. -1.
        -11    1    3    3    0    0  0.32413747075E+01  0.18271833218E+01  0.54298200829E+01  0.65824049768E+01  0.51100000000E-03 0.  1.
        -12    1    3    3    0    0 -0.31439744744E+02 -0.10520280912E+02  0.14940822808E+02  0.36364296311E+02  0.00000000000E+00 0.  1.
</event>
<event>
 7    1  0.6841384E-013  0.5930199E+02  0.7816164E-02  0.1266605E+00
        -11   -1    0    0    0    0  0.00000000000E+00  0.00000000000E+00  0.45593999997E+02  0.45594000000E+02  0.51100000000E-03 0.  1.
         11   -1    0    0    0    0 -0.00000000000E+00 -0.00000000000E+00 -0.45593999997E+02  0.45594000000E+02  0.51100000000E-03 0. -1.
    9900012    2    1    2    0    0 -0.15524463566E+02  0.10359730223E+02 -0.25853135952E+02  0.59301990249E+02  0.50000084297E+02 0.  0.
        -12    1    1    2    0    0  0.15524463566E+02 -0.10359730223E+02  0.25853135952E+02  0.31886009751E+02  0.00000000000E+00 0.  1.
         11    1    3    3    0    0 -0.26163174946E+01  0.57490997029E+01 -0.19982059831E+02  0.20956621388E+02  0.51100000000E-03 0. -1.
        -11    1    3    3    0    0 -0.86046920603E+01 -0.15255470770E+02 -0.37146423729E+01  0.17904431912E+02  0.51100000000E-03 0.  1.
        -12    1    3    3    0    0 -0.43034540109E+01  0.19866101290E+02 -0.21564337476E+01  0.20440936950E+02  0.00000000000E+00 0.  1.
</event>
<event>
 7    1  0.6841384E-013  0.5930193E+02  0.7816164E-02  0.1266605E+00
        -11   -1    0    0    0    0  0.00000000000E+00  0.00000000000E+00  0.45593999997E+02  0.45594000000E+02  0.51100000000E-03 0. -1.
         11   -1    0    0    0    0 -0.00000000000E+00 -0.00000000000E+00 -0.45593999997E+02  0.45594000000E+02  0.51100000000E-03 0.  1.
    9900012    2    1    2    0    0 -0.86600316685E+01 -0.61471354024E+01  0.30065562294E+02  0.59301930029E+02  0.49999974470E+02 0.  0.
        -12    1    1    2    0    0  0.86600316685E+01  0.61471354024E+01 -0.30065562294E+02  0.31886069971E+02  0.00000000000E+00 0.  1.
         11    1    3    3    0    0 -0.92339757039E+01  0.52639498390E+00  0.40991716529E+01  0.10116650013E+02  0.51100000000E-03 0.  1.
        -11    1    3    3    0    0 -0.52126502913E+01 -0.29574905426E+01  0.36289599550E+02  0.36781156984E+02  0.51100000000E-03 0. -1.
         12    1    3    3    0    0  0.57865943267E+01 -0.37160398437E+01 -0.10323208909E+02  0.12404123032E+02  0.00000000000E+00 0. -1.
</event>
<event>
 7    1  0.6841384E-013  0.5930194E+02  0.7816164E-02  0.1266605E+00
        -11   -1    0    0    0    0  0.00000000000E+00  0.00000000000E+00  0.45593999997E+02  0.45594000000E+02  0.51100000000E-03 0. -1.
         11   -1    0    0    0    0 -0.00000000000E+00 -0.00000000000E+00 -0.45593999997E+02  0.45594000000E+02  0.51100000000E-03 0.  1.
    9900012    2    1    2    0    0  0.10622801198E+02  0.29680217911E+02 -0.47917923055E+01  0.59301944834E+02  0.50000001471E+02 0.  0.
        -12    1    1    2    0    0 -0.10622801198E+02 -0.29680217911E+02  0.47917923055E+01  0.31886055166E+02  0.00000000000E+00 0.  1.
         11    1    3    3    0    0 -0.17250407593E+01 -0.66499532284E+01  0.95562775053E+01  0.11769455535E+02  0.51100000000E-03 0. -1.
        -11    1    3    3    0    0  0.39622347472E+01  0.10116881482E+01  0.49504954273E+01  0.64210764158E+01  0.51100000000E-03 0.  1.
        -12    1    3    3    0    0  0.83856072098E+01  0.35318482991E+02 -0.19298565238E+02  0.41111412884E+02  0.00000000000E+00 0.  1.
</event>
<event>
 7    1  0.6841384E-013  0.5930193E+02  0.7816164E-02  0.1266605E+00
        -11   -1    0    0    0    0  0.00000000000E+00  0.00000000000E+00  0.45593999997E+02  0.45594000000E+02  0.51100000000E-03 0. -1.
         11   -1    0    0    0    0 -0.00000000000E+00 -0.00000000000E+00 -0.45593999997E+02  0.45594000000E+02  0.51100000000E-03 0.  1.
    9900012    2    1    2    0    0  0.11135040354E+02  0.50431240846E+01  0.29449939750E+02  0.59301934462E+02  0.49999982554E+02 0.  0.
        -12    1    1    2    0    0 -0.11135040354E+02 -0.50431240846E+01 -0.29449939750E+02  0.31886065538E+02  0.00000000000E+00 0.  1.
         11    1    3    3    0    0  0.11495568534E+02  0.45044966232E+01  0.39685878184E+02  0.41562092263E+02  0.51100000000E-03 0. -1.
        -11    1    3    3    0    0  0.32348320718E+01 -0.64040587671E-01  0.27535042684E+01  0.42485321873E+01  0.51100000000E-03 0.  1.
        -12    1    3    3    0    0 -0.35953602518E+01  0.60266804916E+00 -0.12989442702E+02  0.13491310012E+02  0.00000000000E+00 0.  1.
</event>
<event>
 7    1  0.6841384E-013  0.5930195E+02  0.7816164E-02  0.1266605E+00
        -11   -1    0    0    0    0  0.00000000000E+00  0.00000000000E+00  0.45593999997E+02  0.45594000000E+02  0.51100000000E-03 0.  1.
         11   -1    0    0    0    0 -0.00000000000E+00 -0.00000000000E+00 -0.45593999997E+02  0.45594000000E+02  0.51100000000E-03 0. -1.
    9900012    2    1    2    0    0  0.25121893518E+02 -0.10335147119E+02 -0.16697163942E+02  0.59301951584E+02  0.50000013780E+02 0.  0.
        -12    1    1    2    0    0 -0.25121893518E+02  0.10335147119E+02  0.16697163942E+02  0.31886048416E+02  0.00000000000E+00 0.  1.
         11    1    3    3    0    0  0.89557975702E+00 -0.41541228228E+01 -0.80695269996E+01  0.91200913256E+01  0.51100000000E-03 0. -1.
        -11    1    3    3    0    0  0.26841384353E+02 -0.20622293887E+02 -0.10372498040E+02  0.35402367647E+02  0.51100000000E-03 0.  1.
        -12    1    3    3    0    0 -0.26150705921E+01  0.14441269591E+02  0.17448610978E+01  0.14779492611E+02  0.00000000000E+00 0.  1.
</event>
<event>
 7    1  0.6841384E-013  0.5930193E+02  0.7816164E-02  0.1266605E+00
        -11   -1    0    0    0    0  0.00000000000E+00  0.00000000000E+00  0.45593999997E+02  0.45594000000E+02  0.51100000000E-03 0.  1.
         11   -1    0    0    0    0 -0.00000000000E+00 -0.00000000000E+00 -0.45593999997E+02  0.45594000000E+02  0.51100000000E-03 0. -1.
    9900012    2    1    2    0    0  0.86128526679E+01 -0.30200587521E+02  0.55194800848E+01  0.59301931285E+02  0.49999976760E+02 0.  0.
        -12    1    1    2    0    0 -0.86128526679E+01  0.30200587521E+02 -0.55194800848E+01  0.31886068715E+02  0.00000000000E+00 0.  1.
         11    1    3    3    0    0  0.22411052876E+02 -0.22650996188E+02  0.55463574765E+01  0.32343237328E+02  0.51100000000E-03 0. -1.
        -11    1    3    3    0    0  0.23391741981E+01 -0.86261558835E+00  0.75256653838E+01  0.79278926148E+01  0.51100000000E-03 0.  1.
         12    1    3    3    0    0 -0.16137374407E+02 -0.66869757446E+01 -0.75525427754E+01  0.19030801342E+02  0.00000000000E+00 0. -1.
</event>
<event>
 7    1  0.6841384E-013  0.5930192E+02  0.7816164E-02  0.1266605E+00
        -11   -1    0    0    0    0  0.00000000000E+00  0.00000000000E+00  0.45593999997E+02  0.45594000000E+02  0.51100000000E-03 0.  1.
         11   -1    0    0    0    0 -0.00000000000E+00 -0.00000000000E+00 -0.45593999997E+02  0.45594000000E+02  0.51100000000E-03 0. -1.
    9900012    2    1    2    0    0  0.18447403213E+01  0.89428963957E+00 -0.31820108973E+02  0.59301919089E+02  0.49999954518E+02 0.  0.
        -12    1    1    2    0    0 -0.18447403213E+01 -0.89428963957E+00  0.31820108973E+02  0.31886080911E+02  0.00000000000E+00 0.  1.
         11    1    3    3    0    0  0.10800027513E+02  0.53585495648E+01 -0.66110780451E+01  0.13749945487E+02  0.51100000000E-03 0.  1.
        -11    1    3    3    0    0  0.12046752665E+02 -0.17545533095E+01  0.57406151639E+00  0.12187380931E+02  0.51100000000E-03 0. -1.
         12    1    3    3    0    0 -0.21002039857E+02 -0.27097066158E+01 -0.25783092444E+02  0.33364592670E+02  0.00000000000E+00 0. -1.
</event>
<event>
 7    1  0.6841384E-013  0.5930194E+02  0.7816164E-02  0.1266605E+00
        -11   -1    0    0    0    0  0.00000000000E+00  0.00000000000E+00  0.45593999997E+02  0.45594000000E+02  0.51100000000E-03 0. -1.
         11   -1    0    0    0    0 -0.00000000000E+00 -0.00000000000E+00 -0.45593999997E+02  0.45594000000E+02  0.51100000000E-03 0.  1.
    9900012    2    1    2    0    0 -0.20568427524E+02 -0.23080641181E+02  0.78066854460E+01  0.59301944337E+02  0.50000000563E+02 0.  0.
        -12    1    1    2    0    0  0.20568427524E+02  0.23080641181E+02 -0.78066854460E+01  0.31886055663E+02  0.00000000000E+00 0.  1.
         11    1    3    3    0    0  0.24046421815E+00 -0.46181101906E+01 -0.89953251254E+01  0.10114377843E+02  0.51100000000E-03 0.  1.
        -11    1    3    3    0    0 -0.13091484013E+02 -0.62505962290E+00 -0.97124073382E+01  0.16312832671E+02  0.51100000000E-03 0. -1.
         12    1    3    3    0    0 -0.77174077293E+01 -0.17837471367E+02  0.26514417910E+02  0.32874733823E+02  0.00000000000E+00 0. -1.
</event>
<event>
 7    1  0.6841384E-013  0.5930192E+02  0.7816164E-02  0.1266605E+00
        -11   -1    0    0    0    0  0.00000000000E+00  0.00000000000E+00  0.45593999997E+02  0.45594000000E+02  0.51100000000E-03 0. -1.
         11   -1    0    0    0    0 -0.00000000000E+00 -0.00000000000E+00 -0.45593999997E+02  0.45594000000E+02  0.51100000000E-03 0.  1.
    9900012    2    1    2    0    0  0.17238980819E+02 -0.18996515883E+02  0.18938632613E+02  0.59301923405E+02  0.49999962388E+02 0.  0.
        -12    1    1    2    0    0 -0.17238980819E+02  0.18996515883E+02 -0.18938632613E+02  0.31886076595E+02  0.00000000000E+00 0.  1.
         11    1    3    3    0    0 -0.69351088103E+01 -0.22586600040E+02  0.55335662059E+01  0.24266655946E+02  0.51100000000E-03 0. -1.
        -11    1    3    3    0    0 -0.16596877758E+01 -0.36676555178E+01 -0.15518556043E+01  0.43144543789E+01  0.51100000000E-03 0.  1.
         12    1    3    3    0    0  0.25833777406E+02  0.72577396745E+01  0.14956922011E+02  0.30720813080E+02  0.00000000000E+00 0. -1.
</event>
<event>
 7    1  0.6841384E-013  0.5930197E+02  0.7816164E-02  0.1266605E+00
        -11   -1    0    0    0    0  0.00000000000E+00  0.00000000000E+00  0.45593999997E+02  0.45594000000E+02  0.51100000000E-03 0.  1.
         11   -1    0    0    0    0 -0.00000000000E+00 -0.00000000000E+00 -0.45593999997E+02  0.45594000000E+02  0.51100000000E-03 0. -1.
    9900012    2    1    2    0    0  0.73538654056E+01 -0.30637672238E+02 -0.48962127939E+01  0.59301965497E+02  0.50000039155E+02 0.  0.
        -12    1    1    2    0    0 -0.73538654056E+01  0.30637672238E+02  0.48962127939E+01  0.31886034503E+02  0.00000000000E+00 0.  1.
         11    1    3    3    0    0 -0.47928279552E+00  0.35342273533E+00 -0.76383422609E+01  0.76615202397E+01  0.51100000000E-03 0. -1.
        -11    1    3    3    0    0  0.35801929650E+01  0.82008608024E+01  0.78313650977E+01  0.11891264824E+02  0.51100000000E-03 0.  1.
        -12    1    3    3    0    0  0.42529552361E+01 -0.39191955776E+02 -0.50892356307E+01  0.39749180433E+02  0.00000000000E+00 0.  1.
</event>
<event>
 7    1  0.6841384E-013  0.5930193E+02  0.7816164E-02  0.1266605E+00
        -11   -1    0    0    0    0  0.00000000000E+00  0.00000000000E+00  0.45593999997E+02  0.45594000000E+02  0.51100000000E-03 0.  1.
         11   -1    0    0    0    0 -0.00000000000E+00 -0.00000000000E+00 -0.45593999997E+02  0.45594000000E+02  0.51100000000E-03 0. -1.
    9900012    2    1    2    0    0  0.10981470612E+01 -0.47913237686E+01 -0.31504895935E+02  0.59301934418E+02  0.49999982474E+02 0.  0.
        -12    1    1    2    0    0 -0.10981470612E+01  0.47913237686E+01  0.31504895935E+02  0.31886065582E+02  0.00000000000E+00 0.  1.
         11    1    3    3    0    0  0.17641429525E+01 -0.51781053725E+01 -0.25786189032E+01  0.60476649473E+01  0.51100000000E-03 0. -1.
        -11    1    3    3    0    0  0.16571494308E+02 -0.60843056356E+01  0.14723149118E+01  0.17714426610E+02  0.51100000000E-03 0.  1.
         12    1    3    3    0    0 -0.17237490199E+02  0.64710872394E+01 -0.30398591944E+02  0.35539842861E+02  0.00000000000E+00 0. -1.
</event>
<event>
 7    1  0.6841384E-013  0.5930194E+02  0.7816164E-02  0.1266605E+00
        -11   -1    0    0    0    0  0.00000000000E+00  0.00000000000E+00  0.45593999997E+02  0.45594000000E+02  0.51100000000E-03 0.  1.
         11   -1    0    0    0    0 -0.00000000000E+00 -0.00000000000E+00 -0.45593999997E+02  0.45594000000E+02  0.51100000000E-03 0. -1.
    9900012    2    1    2    0    0 -0.14192172088E+02 -0.19444842084E+01 -0.28487225300E+02  0.59301940778E+02  0.49999994073E+02 0.  0.
        -12    1    1    2    0    0  0.14192172088E+02  0.19444842084E+01  0.28487225300E+02  0.31886059222E+02  0.00000000000E+00 0.  1.
         11    1    3    3    0    0  0.65644922052E+01 -0.84625424527E+01  0.70268780474E+00  0.10733170691E+02  0.51100000000E-03 0. -1.
        -11    1    3    3    0    0 -0.11343959908E+02 -0.11793406167E+02 -0.56886420626E+01  0.17324274998E+02  0.51100000000E-03 0.  1.
        -12    1    3    3    0    0 -0.94127043854E+01  0.18311464412E+02 -0.23501271042E+02  0.31244495089E+02  0.00000000000E+00 0.  1.
</event>
<event>
 7    1  0.6841384E-013  0.5930197E+02  0.7816164E-02  0.1266605E+00
        -11   -1    0    0    0    0  0.00000000000E+00  0.00000000000E+00  0.45593999997E+02  0.45594000000E+02  0.51100000000E-03 0.  1.
         11   -1    0    0    0    0 -0.00000000000E+00 -0.00000000000E+00 -0.45593999997E+02  0.45594000000E+02  0.51100000000E-03 0. -1.
    9900012    2    1    2    0    0 -0.29727044901E+02  0.94688268573E+01  0.65850444791E+01  0.59301973415E+02  0.50000053595E+02 0.  0.
        -12    1    1    2    0    0  0.29727044901E+02 -0.94688268573E+01 -0.65850444791E+01  0.31886026585E+02  0.00000000000E+00 0.  1.
         11    1    3    3    0    0  0.32078249896E+01  0.58953725530E+01  0.50648686722E+01  0.84082372487E+01  0.51100000000E-03 0. -1.
        -11    1    3    3    0    0  0.66109118921E+01 -0.82628125673E+00  0.81806524243E+01  0.10550354075E+02  0.51100000000E-03 0.  1.
         12    1    3    3    0    0 -0.39545781782E+02  0.43997355609E+01 -0.66604766174E+01  0.40343382091E+02  0.00000000000E+00 0. -1.
</event>
<event>
 7    1  0.6841384E-013  0.5930192E+02  0.7816164E-02  0.1266605E+00
        -11   -1    0    0    0    0  0.00000000000E+00  0.00000000000E+00  0.45593999997E+02  0.45594000000E+02  0.51100000000E-03 0.  1.
         11   -1    0    0    0    0 -0.00000000000E+00 -0.00000000000E+00 -0.45593999997E+02  0.45594000000E+02  0.51100000000E-03 0. -1.
    9900012    2    1    2    0    0  0.25063134682E+02  0.14295186294E+02 -0.13572371958E+02  0.59301916016E+02  0.49999948913E+02 0.  0.
        -12    1    1    2    0    0 -0.25063134682E+02 -0.14295186294E+02  0.13572371958E+02  0.31886083984E+02  0.00000000000E+00 0.  1.
         11    1    3    3    0    0 -0.36003719962E+01  0.45455416812E+01  0.12024824642E+02  0.13349945154E+02  0.51100000000E-03 0. -1.
        -11    1    3    3    0    0  0.15675033016E+02 -0.51287669921E+00 -0.25876559827E+00  0.15685555854E+02  0.51100000000E-03 0.  1.
         12    1    3    3    0    0  0.12988473662E+02  0.10262521312E+02 -0.25338431002E+02  0.30266415008E+02  0.00000000000E+00 0. -1.
</event>
<event>
 7    1  0.6841384E-013  0.5930197E+02  0.7816164E-02  0.1266605E+00
        -11   -1    0    0    0    0  0.00000000000E+00  0.00000000000E+00  0.45593999997E+02  0.45594000000E+02  0.51100000000E-03 0. -1.
         11   -1    0    0    0    0 -0.00000000000E+00 -0.00000000000E+00 -0.45593999997E+02  0.45594000000E+02  0.51100000000E-03 0.  1.
    9900012    2    1    2    0    0  0.54582787577E+01 -0.10635280101E+02  0.29560399609E+02  0.59301965206E+02  0.50000038624E+02 0.  0.
        -12    1    1    2    0    0 -0.54582787577E+01  0.10635280101E+02 -0.29560399609E+02  0.31886034794E+02  0.00000000000E+00 0.  1.
         11    1    3    3    0    0  0.53078639078E+01 -0.54385822033E+01 -0.67313109972E+01  0.10151952701E+02  0.51100000000E-03 0. -1.
        -11    1    3    3    0    0  0.57744790886E+01  0.11531874542E+02  0.63057923813E+01  0.14355896246E+02  0.51100000000E-03 0.  1.
         12    1    3    3    0    0 -0.56240642387E+01 -0.16728572440E+02  0.29985918225E+02  0.34794116259E+02  0.00000000000E+00 0. -1.
</event>
<event>
 7    1  0.6841384E-013  0.5930166E+02  0.7816164E-02  0.1266606E+00
        -11   -1    0    0    0    0  0.00000000000E+00  0.00000000000E+00  0.45593999997E+02  0.45594000000E+02  0.51100000000E-03 0. -1.
         11   -1    0    0    0    0 -0.00000000000E+00 -0.00000000000E+00 -0.45593999997E+02  0.45594000000E+02  0.51100000000E-03 0.  1.
    9900012    2    1    2    0    0 -0.16988954210E+02 -0.11078333268E+02  0.24604567826E+02  0.59301658237E+02  0.49999478783E+02 0.  0.
        -12    1    1    2    0    0  0.16988954210E+02  0.11078333268E+02 -0.24604567826E+02  0.31886341763E+02  0.00000000000E+00 0.  1.
         11    1    3    3    0    0  0.67208858583E+01 -0.26395861176E+01  0.30269358422E+01  0.78294356403E+01  0.51100000000E-03 0. -1.
        -11    1    3    3    0    0  0.85377233433E+01  0.97997048094E+00 -0.37731855923E+01  0.93856268733E+01  0.51100000000E-03 0.  1.
        -12    1    3    3    0    0 -0.32247563411E+02 -0.94187176314E+01  0.25350817576E+02  0.42086595723E+02  0.00000000000E+00 0.  1.
</event>
<event>
 7    1  0.6841384E-013  0.5930192E+02  0.7816164E-02  0.1266605E+00
        -11   -1    0    0    0    0  0.00000000000E+00  0.00000000000E+00  0.45593999997E+02  0.45594000000E+02  0.51100000000E-03 0.  1.
         11   -1    0    0    0    0 -0.00000000000E+00 -0.00000000000E+00 -0.45593999997E+02  0.45594000000E+02  0.51100000000E-03 0. -1.
    9900012    2    1    2    0    0  0.18332168466E+02  0.86284286093E+01  0.24621215143E+02  0.59301915009E+02  0.49999947076E+02 0.  0.
        -12    1    1    2    0    0 -0.18332168466E+02 -0.86284286093E+01 -0.24621215143E+02  0.31886084991E+02  0.00000000000E+00 0.  1.
         11    1    3    3    0    0  0.44486552484E+01 -0.15893799255E+02  0.99450163108E+01  0.19269321160E+02  0.51100000000E-03 0. -1.
        -11    1    3    3    0    0 -0.40241955903E+01  0.33841963201E+01  0.10861610940E+02  0.12067374502E+02  0.51100000000E-03 0.  1.
         12    1    3    3    0    0  0.17907708808E+02  0.21138031545E+02  0.38145878921E+01  0.27965219347E+02  0.00000000000E+00 0. -1.
</event>
<event>
 7    1  0.6841384E-013  0.5930194E+02  0.7816164E-02  0.1266605E+00
        -11   -1    0    0    0    0  0.00000000000E+00  0.00000000000E+00  0.45593999997E+02  0.45594000000E+02  0.51100000000E-03 0.  1.
         11   -1    0    0    0    0 -0.00000000000E+00 -0.00000000000E+00 -0.45593999997E+02  0.45594000000E+02  0.51100000000E-03 0. -1.
    9900012    2    1    2    0    0 -0.26492948811E+02 -0.29336929974E+01  0.17499650522E+02  0.59301942550E+02  0.49999997305E+02 0.  0.
        -12    1    1    2    0    0  0.26492948811E+02  0.29336929974E+01 -0.17499650522E+02  0.31886057450E+02  0.00000000000E+00 0.  1.
         11    1    3    3    0    0 -0.15415839408E+02  0.58460012273E+01  0.42394263089E+01  0.17023412428E+02  0.51100000000E-03 0. -1.
        -11    1    3    3    0    0 -0.10879977662E+02  0.13794806875E+02  0.59403931205E+01  0.18546128473E+02  0.51100000000E-03 0.  1.
         12    1    3    3    0    0 -0.19713174061E+00 -0.22574501100E+02  0.73198310930E+01  0.23732401649E+02  0.00000000000E+00 0. -1.
</event>
<event>
 7    1  0.6841384E-013  0.5930195E+02  0.7816164E-02  0.1266605E+00
        -11   -1    0    0    0    0  0.00000000000E+00  0.00000000000E+00  0.45593999997E+02  0.45594000000E+02  0.51100000000E-03 0. -1.
         11   -1    0    0    0    0 -0.00000000000E+00 -0.00000000000E+00 -0.45593999997E+02  0.45594000000E+02  0.51100000000E-03 0.  1.
    9900012    2    1    2    0    0  0.19198536104E+02  0.25418611122E+02 -0.14249492024E+01  0.59301951952E+02  0.50000014451E+02 0.  0.
        -12    1    1    2    0    0 -0.19198536104E+02 -0.25418611122E+02  0.14249492024E+01  0.31886048048E+02  0.00000000000E+00 0.  1.
         11    1    3    3    0    0  0.92778650076E-01 -0.18008892462E+01  0.97556819644E+01  0.99209445522E+01  0.51100000000E-03 0. -1.
        -11    1    3    3    0    0 -0.54537104419E+01 -0.40554169528E+01 -0.63891811088E+01  0.93279686828E+01  0.51100000000E-03 0.  1.
         12    1    3    3    0    0  0.24559467896E+02  0.31274917321E+02 -0.47914500580E+01  0.40053038717E+02  0.00000000000E+00 0. -1.
</event>
<event>
 7    1  0.6841384E-013  0.5930194E+02  0.7816164E-02  0.1266605E+00
        -11   -1    0    0    0    0  0.00000000000E+00  0.00000000000E+00  0.45593999997E+02  0.45594000000E+02  0.51100000000E-03 0. -1.
         11   -1    0    0    0    0 -0.00000000000E+00 -0.00000000000E+00 -0.45593999997E+02  0.45594000000E+02  0.51100000000E-03 0.  1.
    9900012    2    1    2    0    0 -0.24729818920E+02 -0.27949210065E+01  0.19933517371E+02  0.59301942828E+02  0.49999997811E+02 0.  0.
        -12    1    1    2    0    0  0.24729818920E+02  0.27949210065E+01 -0.19933517371E+02  0.31886057172E+02  0.00000000000E+00 0.  1.
         11    1    3    3    0    0  0.25380290893E+01 -0.44804170936E+01  0.85584631568E+01  0.99881440147E+01  0.51100000000E-03 0. -1.
        -11    1    3    3    0    0 -0.15569685987E+01  0.10048646406E+02 -0.10439844998E+02  0.14573599750E+02  0.51100000000E-03 0.  1.
        -12    1    3    3    0    0 -0.25710879410E+02 -0.83631503188E+01  0.21814899212E+02  0.34740199063E+02  0.00000000000E+00 0.  1.
</event>
<event>
 7    1  0.6841384E-013  0.5930195E+02  0.7816164E-02  0.1266605E+00
        -11   -1    0    0    0    0  0.00000000000E+00  0.00000000000E+00  0.45593999997E+02  0.45594000000E+02  0.51100000000E-03 0.  1.
         11   -1    0    0    0    0 -0.00000000000E+00 -0.00000000000E+00 -0.45593999997E+02  0.45594000000E+02  0.51100000000E-03 0. -1.
    9900012    2    1    2    0    0  0.63537918185E+00  0.97784245679E+01 -0.30343020604E+02  0.59301949867E+02  0.50000010649E+02 0.  0.
        -12    1    1    2    0    0 -0.63537918185E+00 -0.97784245679E+01  0.30343020604E+02  0.31886050133E+02  0.00000000000E+00 0.  1.
         11    1    3    3    0    0 -0.66372885592E+01  0.76030087074E+01 -0.62960912761E+01  0.11895381727E+02  0.51100000000E-03 0. -1.
        -11    1    3    3    0    0  0.17135200048E+01  0.31330290882E+01  0.11177103790E+02  0.11733698116E+02  0.51100000000E-03 0.  1.
         12    1    3    3    0    0  0.55591477362E+01 -0.95761322763E+00 -0.35224033118E+02  0.35672870024E+02  0.00000000000E+00 0. -1.
</event>
<event>
 7    1  0.6841384E-013  0.5930193E+02  0.7816164E-02  0.1266605E+00
        -11   -1    0    0    0    0  0.00000000000E+00  0.00000000000E+00  0.45593999997E+02  0.45594000000E+02  0.51100000000E-03 0. -1.
         11   -1    0    0    0    0 -0.00000000000E+00 -0.00000000000E+00 -0.45593999997E+02  0.45594000000E+02  0.51100000000E-03 0.  1.
    9900012    2    1    2    0    0  0.16835529277E+01  0.91776334468E+00  0.31828361136E+02  0.59301933879E+02  0.49999981492E+02 0.  0.
        -12    1    1    2    0    0 -0.16835529277E+01 -0.91776334468E+00 -0.31828361136E+02  0.31886066121E+02  0.00000000000E+00 0.  1.
         11    1    3    3    0    0  0.66734376797E+01  0.44895376175E+01  0.14023133386E+02  0.16165982454E+02  0.51100000000E-03 0. -1.
        -11    1    3    3    0    0 -0.10279281142E+02  0.73599917693E+01 -0.77591622814E+01  0.14833667760E+02  0.51100000000E-03 0.  1.
         12    1    3    3    0    0  0.52893963902E+01 -0.10931766042E+02  0.25564390032E+02  0.28302283666E+02  0.00000000000E+00 0. -1.
</event>
<event>
 7    1  0.6841384E-013  0.5930195E+02  0.7816164E-02  0.1266605E+00
        -11   -1    0    0    0    0  0.00000000000E+00  0.00000000000E+00  0.45593999997E+02  0.45594000000E+02  0.51100000000E-03 0. -1.
         11   -1    0    0    0    0 -0.00000000000E+00 -0.00000000000E+00 -0.45593999997E+02  0.45594000000E+02  0.51100000000E-03 0.  1.
    9900012    2    1    2    0    0 -0.14021928305E+02  0.27719163958E+02  0.71940151007E+01  0.59301946980E+02  0.50000005385E+02 0.  0.
        -12    1    1    2    0    0  0.14021928305E+02 -0.27719163958E+02 -0.71940151007E+01  0.31886053020E+02  0.00000000000E+00 0.  1.
         11    1    3    3    0    0 -0.12610421667E+01  0.91334936715E+01  0.46115991880E+01  0.10309111568E+02  0.51100000000E-03 0. -1.
        -11    1    3    3    0    0  0.11789566282E+01  0.61893983205E+01 -0.19262489377E+02  0.20266772993E+02  0.51100000000E-03 0.  1.
         12    1    3    3    0    0 -0.13939842766E+02  0.12396271966E+02  0.21844905290E+02  0.28726062419E+02  0.00000000000E+00 0. -1.
</event>
<event>
 7    1  0.6841384E-013  0.5930195E+02  0.7816164E-02  0.1266605E+00
        -11   -1    0    0    0    0  0.00000000000E+00  0.00000000000E+00  0.45593999997E+02  0.45594000000E+02  0.51100000000E-03 0. -1.
         11   -1    0    0    0    0 -0.00000000000E+00 -0.00000000000E+00 -0.45593999997E+02  0.45594000000E+02  0.51100000000E-03 0.  1.
    9900012    2    1    2    0    0 -0.12434711294E+02  0.28143814225E+02  0.83680107764E+01  0.59301954017E+02  0.50000018218E+02 0.  0.
        -12    1    1    2    0    0  0.12434711294E+02 -0.28143814225E+02 -0.83680107764E+01  0.31886045983E+02  0.00000000000E+00 0.  1.
         11    1    3    3    0    0 -0.68505323605E+01  0.10277213376E+02  0.85614098267E+01  0.15028261606E+02  0.51100000000E-03 0. -1.
        -11    1    3    3    0    0 -0.28033450026E+01 -0.29371856789E+01  0.16790217562E+02  0.17274177518E+02  0.51100000000E-03 0.  1.
         12    1    3    3    0    0 -0.27808339307E+01  0.20803786527E+02 -0.16983616612E+02  0.26999514893E+02  0.00000000000E+00 0. -1.
</event>
<event>
 7    1  0.6841384E-013  0.5930195E+02  0.7816164E-02  0.1266605E+00
        -11   -1    0    0    0    0  0.00000000000E+00  0.00000000000E+00  0.45593999997E+02  0.45594000000E+02  0.51100000000E-03 0.  1.
         11   -1    0    0    0    0 -0.00000000000E+00 -0.00000000000E+00 -0.45593999997E+02  0.45594000000E+02  0.51100000000E-03 0. -1.
    9900012    2    1    2    0    0  0.25033853148E+02  0.17001508287E+02 -0.10048626964E+02  0.59301953031E+02  0.50000016420E+02 0.  0.
        -12    1    1    2    0    0 -0.25033853148E+02 -0.17001508287E+02  0.10048626964E+02  0.31886046969E+02  0.00000000000E+00 0.  1.
         11    1    3    3    0    0  0.57549179137E+01 -0.36449942093E+01 -0.31404533822E+01  0.75011672883E+01  0.51100000000E-03 0. -1.
        -11    1    3    3    0    0  0.29705099676E+02  0.91775765311E+01  0.59586735007E+01  0.31656383999E+02  0.51100000000E-03 0.  1.
         12    1    3    3    0    0 -0.10426164442E+02  0.11468925965E+02 -0.12866847082E+02  0.20144401743E+02  0.00000000000E+00 0. -1.
</event>
<event>
 7    1  0.6841384E-013  0.5930195E+02  0.7816164E-02  0.1266605E+00
        -11   -1    0    0    0    0  0.00000000000E+00  0.00000000000E+00  0.45593999997E+02  0.45594000000E+02  0.51100000000E-03 0.  1.
         11   -1    0    0    0    0 -0.00000000000E+00 -0.00000000000E+00 -0.45593999997E+02  0.45594000000E+02  0.51100000000E-03 0. -1.
    9900012    2    1    2    0    0 -0.21188291406E+02  0.82248190746E+01 -0.22363559274E+02  0.59301950936E+02  0.50000012598E+02 0.  0.
        -12    1    1    2    0    0  0.21188291406E+02 -0.82248190746E+01  0.22363559274E+02  0.31886049064E+02  0.00000000000E+00 0.  1.
         11    1    3    3    0    0 -0.10574568913E+01  0.18832895481E+01 -0.17107331096E+02  0.17243136956E+02  0.51100000000E-03 0.  1.
        -11    1    3    3    0    0 -0.23781867760E+02 -0.68378742176E+01 -0.11181787560E+02  0.27154486393E+02  0.51100000000E-03 0. -1.
         12    1    3    3    0    0  0.36510332455E+01  0.13179403744E+02  0.59255593819E+01  0.14904327586E+02  0.00000000000E+00 0. -1.
</event>
<event>
 7    1  0.6841384E-013  0.5930193E+02  0.7816164E-02  0.1266605E+00
        -11   -1    0    0    0    0  0.00000000000E+00  0.00000000000E+00  0.45593999997E+02  0.45594000000E+02  0.51100000000E-03 0. -1.
         11   -1    0    0    0    0 -0.00000000000E+00 -0.00000000000E+00 -0.45593999997E+02  0.45594000000E+02  0.51100000000E-03 0.  1.
    9900012    2    1    2    0    0 -0.27315702737E+02 -0.91546592484E+01  0.13666232677E+02  0.59301932235E+02  0.49999978492E+02 0.  0.
        -12    1    1    2    0    0  0.27315702737E+02  0.91546592484E+01 -0.13666232677E+02  0.31886067765E+02  0.00000000000E+00 0.  1.
         11    1    3    3    0    0 -0.76341495969E+01 -0.10341932694E+01  0.13212059821E+02  0.15294061617E+02  0.51100000000E-03 0. -1.
        -11    1    3    3    0    0 -0.10621923192E+02 -0.76808798269E+01  0.19162423334E+02  0.23216796409E+02  0.51100000000E-03 0.  1.
        -12    1    3    3    0    0 -0.90596299478E+01 -0.43958615210E+00 -0.18708250478E+02  0.20791074208E+02  0.00000000000E+00 0.  1.
</event>
<event>
 7    1  0.6841384E-013  0.5930189E+02  0.7816164E-02  0.1266605E+00
        -11   -1    0    0    0    0  0.00000000000E+00  0.00000000000E+00  0.45593999997E+02  0.45594000000E+02  0.51100000000E-03 0.  1.
         11   -1    0    0    0    0 -0.00000000000E+00 -0.00000000000E+00 -0.45593999997E+02  0.45594000000E+02  0.51100000000E-03 0. -1.
    9900012    2    1    2    0    0 -0.24129712393E+02  0.19002427826E+02 -0.85667219261E+01  0.59301890046E+02  0.49999901550E+02 0.  0.
        -12    1    1    2    0    0  0.24129712393E+02 -0.19002427826E+02  0.85667219261E+01  0.31886109954E+02  0.00000000000E+00 0.  1.
         11    1    3    3    0    0 -0.11841960248E+02 -0.90368122785E+00 -0.20176962101E+02  0.23412784161E+02  0.51100000000E-03 0. -1.
        -11    1    3    3    0    0 -0.30259408463E+01  0.20817385213E+01 -0.73818760135E+01  0.82451226199E+01  0.51100000000E-03 0.  1.
        -12    1    3    3    0    0 -0.92618112981E+01  0.17824370533E+02  0.18992116189E+02  0.27643983265E+02  0.00000000000E+00 0.  1.
</event>
<event>
 7    1  0.6841384E-013  0.5930191E+02  0.7816164E-02  0.1266605E+00
        -11   -1    0    0    0    0  0.00000000000E+00  0.00000000000E+00  0.45593999997E+02  0.45594000000E+02  0.51100000000E-03 0.  1.
         11   -1    0    0    0    0 -0.00000000000E+00 -0.00000000000E+00 -0.45593999997E+02  0.45594000000E+02  0.51100000000E-03 0. -1.
    9900012    2    1    2    0    0 -0.31850904163E+02  0.21348464766E+00 -0.14822684163E+01  0.59301909124E+02  0.49999936344E+02 0.  0.
        -12    1    1    2    0    0  0.31850904163E+02 -0.21348464766E+00  0.14822684163E+01  0.31886090876E+02  0.00000000000E+00 0.  1.
         11    1    3    3    0    0 -0.25610051373E+02  0.41201265782E+00 -0.23146424611E+02  0.34522477580E+02  0.51100000000E-03 0. -1.
        -11    1    3    3    0    0  0.37477452406E+00 -0.39121824355E+01  0.42731541453E+01  0.58056415634E+01  0.51100000000E-03 0.  1.
        -12    1    3    3    0    0 -0.66156273146E+01  0.37136544253E+01  0.17391002049E+02  0.18973789981E+02  0.00000000000E+00 0.  1.
</event>
<event>
 7    1  0.6841384E-013  0.5930197E+02  0.7816164E-02  0.1266605E+00
        -11   -1    0    0    0    0  0.00000000000E+00  0.00000000000E+00  0.45593999997E+02  0.45594000000E+02  0.51100000000E-03 0.  1.
         11   -1    0    0    0    0 -0.00000000000E+00 -0.00000000000E+00 -0.45593999997E+02  0.45594000000E+02  0.51100000000E-03 0. -1.
    9900012    2    1    2    0    0  0.12346213860E+02  0.34753805309E+01 -0.29192668554E+02  0.59301966007E+02  0.50000040084E+02 0.  0.
        -12    1    1    2    0    0 -0.12346213860E+02 -0.34753805309E+01  0.29192668554E+02  0.31886033993E+02  0.00000000000E+00 0.  1.
         11    1    3    3    0    0 -0.10855019142E+02  0.18828435400E+01 -0.21211422717E+02  0.23901903571E+02  0.51100000000E-03 0. -1.
        -11    1    3    3    0    0  0.14517411499E+01  0.10520548942E+02 -0.15609752538E+00  0.10621387343E+02  0.51100000000E-03 0.  1.
         12    1    3    3    0    0  0.21749491853E+02 -0.89280119508E+01 -0.78251483117E+01  0.24778675093E+02  0.00000000000E+00 0. -1.
</event>
<event>
 7    1  0.6841384E-013  0.5930196E+02  0.7816164E-02  0.1266605E+00
        -11   -1    0    0    0    0  0.00000000000E+00  0.00000000000E+00  0.45593999997E+02  0.45594000000E+02  0.51100000000E-03 0.  1.
         11   -1    0    0    0    0 -0.00000000000E+00 -0.00000000000E+00 -0.45593999997E+02  0.45594000000E+02  0.51100000000E-03 0. -1.
    9900012    2    1    2    0    0 -0.29760430199E+01 -0.15222905826E+02 -0.27859032567E+02  0.59301962470E+02  0.50000033634E+02 0.  0.
        -12    1    1    2    0    0  0.29760430199E+01  0.15222905826E+02  0.27859032567E+02  0.31886037530E+02  0.00000000000E+00 0.  1.
         11    1    3    3    0    0  0.55706282100E+00  0.24441177865E+01 -0.86214038034E+01  0.89784539061E+01  0.51100000000E-03 0. -1.
        -11    1    3    3    0    0  0.11412366283E+02  0.95043526948E+01 -0.24243092182E+01  0.15048325481E+02  0.51100000000E-03 0.  1.
        -12    1    3    3    0    0 -0.14945472124E+02 -0.27171376307E+02 -0.16813319545E+02  0.35275183083E+02  0.00000000000E+00 0.  1.
</event>
<event>
 7    1  0.6841384E-013  0.5930193E+02  0.7816164E-02  0.1266605E+00
        -11   -1    0    0    0    0  0.00000000000E+00  0.00000000000E+00  0.45593999997E+02  0.45594000000E+02  0.51100000000E-03 0.  1.
         11   -1    0    0    0    0 -0.00000000000E+00 -0.00000000000E+00 -0.45593999997E+02  0.45594000000E+02  0.51100000000E-03 0. -1.
    9900012    2    1    2    0    0 -0.18057374075E+02 -0.22361877304E+02 -0.13805776098E+02  0.59301925160E+02  0.49999965589E+02 0.  0.
        -12    1    1    2    0    0  0.18057374075E+02  0.22361877304E+02  0.13805776098E+02  0.31886074840E+02  0.00000000000E+00 0.  1.
         11    1    3    3    0    0  0.94023289596E+01 -0.13228578650E+02 -0.25628934654E+01  0.16430687939E+02  0.51100000000E-03 0. -1.
        -11    1    3    3    0    0 -0.33340875454E+01 -0.11308243697E+02  0.59117010982E+01  0.13188658969E+02  0.51100000000E-03 0.  1.
         12    1    3    3    0    0 -0.24125615490E+02  0.21749450432E+01 -0.17154583731E+02  0.29682578252E+02  0.00000000000E+00 0. -1.
</event>
<event>
 7    1  0.6841384E-013  0.5930195E+02  0.7816164E-02  0.1266605E+00
        -11   -1    0    0    0    0  0.00000000000E+00  0.00000000000E+00  0.45593999997E+02  0.45594000000E+02  0.51100000000E-03 0. -1.
         11   -1    0    0    0    0 -0.00000000000E+00 -0.00000000000E+00 -0.45593999997E+02  0.45594000000E+02  0.51100000000E-03 0.  1.
    9900012    2    1    2    0    0 -0.10232582406E+02  0.17062596831E+02  0.24917507072E+02  0.59301951139E+02  0.50000012969E+02 0.  0.
        -12    1    1    2    0    0  0.10232582406E+02 -0.17062596831E+02 -0.24917507072E+02  0.31886048861E+02  0.00000000000E+00 0.  1.
         11    1    3    3    0    0 -0.29635499266E+01  0.69965058484E+01 -0.25147985640E+01  0.80036200767E+01  0.51100000000E-03 0. -1.
        -11    1    3    3    0    0 -0.13236394458E+02  0.13792176147E+01 -0.71769814409E+01  0.15119968331E+02  0.51100000000E-03 0.  1.
        -12    1    3    3    0    0  0.59673619784E+01  0.86868733677E+01  0.34609287077E+02  0.36178362731E+02  0.00000000000E+00 0.  1.
</event>
<event>
 7    1  0.6841384E-013  0.5930196E+02  0.7816164E-02  0.1266605E+00
        -11   -1    0    0    0    0  0.00000000000E+00  0.00000000000E+00  0.45593999997E+02  0.45594000000E+02  0.51100000000E-03 0.  1.
         11   -1    0    0    0    0 -0.00000000000E+00 -0.00000000000E+00 -0.45593999997E+02  0.45594000000E+02  0.51100000000E-03 0. -1.
    9900012    2    1    2    0    0  0.47465492811E+01 -0.83331399872E+01 -0.30409681106E+02  0.59301958271E+02  0.50000025977E+02 0.  0.
        -12    1    1    2    0    0 -0.47465492811E+01  0.83331399872E+01  0.30409681106E+02  0.31886041729E+02  0.00000000000E+00 0.  1.
         11    1    3    3    0    0  0.28997098403E+00 -0.11565773926E+01 -0.65248791115E+01  0.66329331459E+01  0.51100000000E-03 0. -1.
        -11    1    3    3    0    0 -0.20996579548E+01  0.14496129366E+02 -0.26088732450E+02  0.29919363149E+02  0.51100000000E-03 0.  1.
        -12    1    3    3    0    0  0.65562362519E+01 -0.21672691960E+02  0.22039304553E+01  0.22749661977E+02  0.00000000000E+00 0.  1.
</event>
<event>
 7    1  0.6841384E-013  0.5930194E+02  0.7816164E-02  0.1266605E+00
        -11   -1    0    0    0    0  0.00000000000E+00  0.00000000000E+00  0.45593999997E+02  0.45594000000E+02  0.51100000000E-03 0.  1.
         11   -1    0    0    0    0 -0.00000000000E+00 -0.00000000000E+00 -0.45593999997E+02  0.45594000000E+02  0.51100000000E-03 0. -1.
    9900012    2    1    2    0    0 -0.29836283399E+02 -0.34257140242E+01 -0.10713599499E+02  0.59301944460E+02  0.50000000789E+02 0.  0.
        -12    1    1    2    0    0  0.29836283399E+02  0.34257140242E+01  0.10713599499E+02  0.31886055540E+02  0.00000000000E+00 0.  1.
         11    1    3    3    0    0 -0.18756532123E+02 -0.10234154999E+02  0.67519895099E+01  0.22408364252E+02  0.51100000000E-03 0. -1.
        -11    1    3    3    0    0 -0.19230569662E+02 -0.16171116677E+01 -0.53308451287E+01  0.20021183025E+02  0.51100000000E-03 0.  1.
         12    1    3    3    0    0  0.81508183856E+01  0.84255526428E+01 -0.12134743880E+02  0.16872397184E+02  0.00000000000E+00 0. -1.
</event>
<event>
 7    1  0.6841384E-013  0.5930192E+02  0.7816164E-02  0.1266605E+00
        -11   -1    0    0    0    0  0.00000000000E+00  0.00000000000E+00  0.45593999997E+02  0.45594000000E+02  0.51100000000E-03 0. -1.
         11   -1    0    0    0    0 -0.00000000000E+00 -0.00000000000E+00 -0.45593999997E+02  0.45594000000E+02  0.51100000000E-03 0.  1.
    9900012    2    1    2    0    0  0.23144859817E+02  0.88031724579E+01  0.20088340190E+02  0.59301924781E+02  0.49999964899E+02 0.  0.
        -12    1    1    2    0    0 -0.23144859817E+02 -0.88031724579E+01 -0.20088340190E+02  0.31886075219E+02  0.00000000000E+00 0.  1.
         11    1    3    3    0    0  0.49861757919E+01  0.17090434970E+01  0.22340637927E+02  0.22954016684E+02  0.51100000000E-03 0. -1.
        -11    1    3    3    0    0  0.59074336946E+01  0.72158440282E+01  0.13490121938E+02  0.16399681950E+02  0.51100000000E-03 0.  1.
        -12    1    3    3    0    0  0.12251250330E+02 -0.12171506733E+00 -0.15742419675E+02  0.19948226148E+02  0.00000000000E+00 0.  1.
</event>
<event>
 7    1  0.6841384E-013  0.5930192E+02  0.7816164E-02  0.1266605E+00
        -11   -1    0    0    0    0  0.00000000000E+00  0.00000000000E+00  0.45593999997E+02  0.45594000000E+02  0.51100000000E-03 0. -1.
         11   -1    0    0    0    0 -0.00000000000E+00 -0.00000000000E+00 -0.45593999997E+02  0.45594000000E+02  0.51100000000E-03 0.  1.
    9900012    2    1    2    0    0  0.79983161516E+01  0.28290769945E+02 -0.12344284042E+02  0.59301920375E+02  0.49999956864E+02 0.  0.
        -12    1    1    2    0    0 -0.79983161516E+01 -0.28290769945E+02  0.12344284042E+02  0.31886079625E+02  0.00000000000E+00 0.  1.
         11    1    3    3    0    0 -0.82126362952E+01  0.40147735581E+01  0.78190159361E+01  0.12029248194E+02  0.51100000000E-03 0. -1.
        -11    1    3    3    0    0  0.11221878620E+02  0.93744635970E+01  0.67518322242E+01  0.16105848818E+02  0.51100000000E-03 0.  1.
        -12    1    3    3    0    0  0.49890738267E+01  0.14901532790E+02 -0.26915132202E+02  0.31166823364E+02  0.00000000000E+00 0.  1.
</event>
<event>
 7    1  0.6841384E-013  0.5930193E+02  0.7816164E-02  0.1266605E+00
        -11   -1    0    0    0    0  0.00000000000E+00  0.00000000000E+00  0.45593999997E+02  0.45594000000E+02  0.51100000000E-03 0.  1.
         11   -1    0    0    0    0 -0.00000000000E+00 -0.00000000000E+00 -0.45593999997E+02  0.45594000000E+02  0.51100000000E-03 0. -1.
    9900012    2    1    2    0    0 -0.13134024119E+02  0.29009868147E+02 -0.16268786617E+01  0.59301925083E+02  0.49999965449E+02 0.  0.
        -12    1    1    2    0    0  0.13134024119E+02 -0.29009868147E+02  0.16268786617E+01  0.31886074917E+02  0.00000000000E+00 0.  1.
         11    1    3    3    0    0  0.99301302168E+00  0.29992020978E+01 -0.17673840397E+02  0.17953994618E+02  0.51100000000E-03 0. -1.
        -11    1    3    3    0    0 -0.16190822825E+02  0.49322034201E+01  0.68983578742E+01  0.18277218496E+02  0.51100000000E-03 0.  1.
        -12    1    3    3    0    0  0.20637856839E+01  0.21078462629E+02  0.91486038615E+01  0.23070711969E+02  0.00000000000E+00 0.  1.
</event>
<event>
 7    1  0.6841384E-013  0.5930194E+02  0.7816164E-02  0.1266605E+00
        -11   -1    0    0    0    0  0.00000000000E+00  0.00000000000E+00  0.45593999997E+02  0.45594000000E+02  0.51100000000E-03 0.  1.
         11   -1    0    0    0    0 -0.00000000000E+00 -0.00000000000E+00 -0.45593999997E+02  0.45594000000E+02  0.51100000000E-03 0. -1.
    9900012    2    1    2    0    0  0.13853241470E+02  0.81195644352E+01 -0.27547795535E+02  0.59301942472E+02  0.49999997162E+02 0.  0.
        -12    1    1    2    0    0 -0.13853241470E+02 -0.81195644352E+01  0.27547795535E+02  0.31886057528E+02  0.00000000000E+00 0.  1.
         11    1    3    3    0    0  0.12565970545E+02 -0.35110923069E+01  0.13606466285E+01  0.13118031271E+02  0.51100000000E-03 0. -1.
        -11    1    3    3    0    0  0.11899138319E+02  0.39790394507E+01  0.19213763229E+01  0.12693066412E+02  0.51100000000E-03 0.  1.
         12    1    3    3    0    0 -0.10611867394E+02  0.76516172915E+01 -0.30829818487E+02  0.33490844789E+02  0.00000000000E+00 0. -1.
</event>
<event>
 7    1  0.6841384E-013  0.5930195E+02  0.7816164E-02  0.1266605E+00
        -11   -1    0    0    0    0  0.00000000000E+00  0.00000000000E+00  0.45593999997E+02  0.45594000000E+02  0.51100000000E-03 0.  1.
         11   -1    0    0    0    0 -0.00000000000E+00 -0.00000000000E+00 -0.45593999997E+02  0.45594000000E+02  0.51100000000E-03 0. -1.
    9900012    2    1    2    0    0  0.31151624780E+02  0.33969204077E+01 -0.58955291322E+01  0.59301951979E+02  0.50000014501E+02 0.  0.
        -12    1    1    2    0    0 -0.31151624780E+02 -0.33969204077E+01  0.58955291322E+01  0.31886048021E+02  0.00000000000E+00 0.  1.
         11    1    3    3    0    0  0.11659137894E+02 -0.73845751490E+01 -0.90918206002E+01  0.16526604268E+02  0.51100000000E-03 0. -1.
        -11    1    3    3    0    0 -0.36078269181E+01  0.55243634256E+01  0.14940931120E+02  0.16332985928E+02  0.51100000000E-03 0.  1.
         12    1    3    3    0    0  0.23100313804E+02  0.52571321311E+01 -0.11744639652E+02  0.26442361783E+02  0.00000000000E+00 0. -1.
</event>
<event>
 7    1  0.6841384E-013  0.5930190E+02  0.7816164E-02  0.1266605E+00
        -11   -1    0    0    0    0  0.00000000000E+00  0.00000000000E+00  0.45593999997E+02  0.45594000000E+02  0.51100000000E-03 0.  1.
         11   -1    0    0    0    0 -0.00000000000E+00 -0.00000000000E+00 -0.45593999997E+02  0.45594000000E+02  0.51100000000E-03 0. -1.
    9900012    2    1    2    0    0 -0.28366988156E+02 -0.11269348783E+02 -0.92216819788E+01  0.59301895541E+02  0.49999911572E+02 0.  0.
        -12    1    1    2    0    0  0.28366988156E+02  0.11269348783E+02  0.92216819788E+01  0.31886104459E+02  0.00000000000E+00 0.  1.
         11    1    3    3    0    0 -0.10498618228E+02 -0.15428164842E+02 -0.18209686983E+01  0.18750071529E+02  0.51100000000E-03 0. -1.
        -11    1    3    3    0    0 -0.57277493517E+01  0.11226254433E+01  0.14331181400E+02  0.15474177235E+02  0.51100000000E-03 0.  1.
         12    1    3    3    0    0 -0.12140620577E+02  0.30361906158E+01 -0.21731894680E+02  0.25077646777E+02  0.00000000000E+00 0. -1.
</event>
<event>
 7    1  0.6841384E-013  0.5930193E+02  0.7816164E-02  0.1266605E+00
        -11   -1    0    0    0    0  0.00000000000E+00  0.00000000000E+00  0.45593999997E+02  0.45594000000E+02  0.51100000000E-03 0. -1.
         11   -1    0    0    0    0 -0.00000000000E+00 -0.00000000000E+00 -0.45593999997E+02  0.45594000000E+02  0.51100000000E-03 0.  1.
    9900012    2    1    2    0    0  0.14662674126E+02 -0.26791242224E+02 -0.91628080282E+01  0.59301925871E+02  0.49999966886E+02 0.  0.
        -12    1    1    2    0    0 -0.14662674126E+02  0.26791242224E+02  0.91628080282E+01  0.31886074129E+02  0.00000000000E+00 0.  1.
         11    1    3    3    0    0  0.24875843046E+02 -0.12725660855E+01  0.40449127347E+01  0.25234664868E+02  0.51100000000E-03 0. -1.
        -11    1    3    3    0    0  0.53545650785E+00  0.60751297483E+00 -0.44019789286E+01  0.44758467842E+01  0.51100000000E-03 0.  1.
         12    1    3    3    0    0 -0.10748625429E+02 -0.26126189113E+02 -0.88057418343E+01  0.29591414218E+02  0.00000000000E+00 0. -1.
</event>
<event>
 7    1  0.6841384E-013  0.5930192E+02  0.7816164E-02  0.1266605E+00
        -11   -1    0    0    0    0  0.00000000000E+00  0.00000000000E+00  0.45593999997E+02  0.45594000000E+02  0.51100000000E-03 0. -1.
         11   -1    0    0    0    0 -0.00000000000E+00 -0.00000000000E+00 -0.45593999997E+02  0.45594000000E+02  0.51100000000E-03 0.  1.
    9900012    2    1    2    0    0 -0.10729246381E+02 -0.29618157138E+02  0.49366304282E+01  0.59301917140E+02  0.49999950964E+02 0.  0.
        -12    1    1    2    0    0  0.10729246381E+02  0.29618157138E+02 -0.49366304282E+01  0.31886082860E+02  0.00000000000E+00 0.  1.
         11    1    3    3    0    0 -0.18816010344E+02  0.18937906735E+01 -0.16887284280E+01  0.18986323824E+02  0.51100000000E-03 0. -1.
        -11    1    3    3    0    0  0.82025268189E+01 -0.48643774295E+01  0.95642041285E+01  0.13506206531E+02  0.51100000000E-03 0.  1.
        -12    1    3    3    0    0 -0.11576285644E+00 -0.26647570382E+02 -0.29388452723E+01  0.26809386786E+02  0.00000000000E+00 0.  1.
</event>
<event>
 7    1  0.6841384E-013  0.5930197E+02  0.7816164E-02  0.1266605E+00
        -11   -1    0    0    0    0  0.00000000000E+00  0.00000000000E+00  0.45593999997E+02  0.45594000000E+02  0.51100000000E-03 0.  1.
         11   -1    0    0    0    0 -0.00000000000E+00 -0.00000000000E+00 -0.45593999997E+02  0.45594000000E+02  0.51100000000E-03 0. -1.
    9900012    2    1    2    0    0 -0.28987267589E+02  0.93331360854E+01  0.94525073474E+01  0.59301968471E+02  0.50000044579E+02 0.  0.
        -12    1    1    2    0    0  0.28987267589E+02 -0.93331360854E+01 -0.94525073474E+01  0.31886031529E+02  0.00000000000E+00 0.  1.
         11    1    3    3    0    0 -0.15776637871E+02  0.13829819384E+02 -0.92913157604E+01  0.22945473530E+02  0.51100000000E-03 0. -1.
        -11    1    3    3    0    0 -0.37207808671E+01  0.60409662464E+01 -0.50142999757E+01  0.86879622443E+01  0.51100000000E-03 0.  1.
        -12    1    3    3    0    0 -0.94898488518E+01 -0.10537649545E+02  0.23758123083E+02  0.27668532697E+02  0.00000000000E+00 0.  1.
</event>
<event>
 7    1  0.6841384E-013  0.5930193E+02  0.7816164E-02  0.1266605E+00
        -11   -1    0    0    0    0  0.00000000000E+00  0.00000000000E+00  0.45593999997E+02  0.45594000000E+02  0.51100000000E-03 0.  1.
         11   -1    0    0    0    0 -0.00000000000E+00 -0.00000000000E+00 -0.45593999997E+02  0.45594000000E+02  0.51100000000E-03 0. -1.
    9900012    2    1    2    0    0 -0.65872576995E+00 -0.17681092368E+02 -0.26526714585E+02  0.59301928846E+02  0.49999972312E+02 0.  0.
        -12    1    1    2    0    0  0.65872576995E+00  0.17681092368E+02  0.26526714585E+02  0.31886071154E+02  0.00000000000E+00 0.  1.
         11    1    3    3    0    0 -0.86087324950E+01 -0.60865452552E+01  0.35993812190E+00  0.10549211536E+02  0.51100000000E-03 0. -1.
        -11    1    3    3    0    0 -0.13432120308E+02 -0.13218789466E+02 -0.92781247791E+01  0.21005757558E+02  0.51100000000E-03 0.  1.
        -12    1    3    3    0    0  0.21382127033E+02  0.16242423528E+01 -0.17608527928E+02  0.27746959752E+02  0.00000000000E+00 0.  1.
</event>
<event>
 7    1  0.6841384E-013  0.5930203E+02  0.7816164E-02  0.1266604E+00
        -11   -1    0    0    0    0  0.00000000000E+00  0.00000000000E+00  0.45593999997E+02  0.45594000000E+02  0.51100000000E-03 0.  1.
         11   -1    0    0    0    0 -0.00000000000E+00 -0.00000000000E+00 -0.45593999997E+02  0.45594000000E+02  0.51100000000E-03 0. -1.
    9900012    2    1    2    0    0  0.22003296425E+02 -0.19201784140E+02 -0.12800848427E+02  0.59302026780E+02  0.50000150920E+02 0.  0.
        -12    1    1    2    0    0 -0.22003296425E+02  0.19201784140E+02  0.12800848427E+02  0.31885973220E+02  0.00000000000E+00 0.  1.
         11    1    3    3    0    0  0.35871791652E+01 -0.23888828663E+02  0.52773863761E+01  0.24726398776E+02  0.51100000000E-03 0. -1.
        -11    1    3    3    0    0  0.12520156721E+02 -0.84262103391E+01 -0.89888397045E+01  0.17565721861E+02  0.51100000000E-03 0.  1.
        -12    1    3    3    0    0  0.58959605391E+01  0.13113254861E+02 -0.90893950982E+01  0.17009906143E+02  0.00000000000E+00 0.  1.
</event>
<event>
 7    1  0.6841384E-013  0.5930194E+02  0.7816164E-02  0.1266605E+00
        -11   -1    0    0    0    0  0.00000000000E+00  0.00000000000E+00  0.45593999997E+02  0.45594000000E+02  0.51100000000E-03 0. -1.
         11   -1    0    0    0    0 -0.00000000000E+00 -0.00000000000E+00 -0.45593999997E+02  0.45594000000E+02  0.51100000000E-03 0.  1.
    9900012    2    1    2    0    0 -0.21072603915E+01 -0.25328582056E+02  0.19254698613E+02  0.59301936681E+02  0.49999986601E+02 0.  0.
        -12    1    1    2    0    0  0.21072603915E+01  0.25328582056E+02 -0.19254698613E+02  0.31886063319E+02  0.00000000000E+00 0.  1.
         11    1    3    3    0    0 -0.57081303392E+01 -0.17795552076E+02  0.62802148725E+01  0.19715616267E+02  0.51100000000E-03 0. -1.
        -11    1    3    3    0    0  0.22038945531E+01 -0.22233096324E+02  0.53763234374E+01  0.22979829793E+02  0.51100000000E-03 0.  1.
         12    1    3    3    0    0  0.13969753946E+01  0.14700066344E+02  0.75981603029E+01  0.16606490621E+02  0.00000000000E+00 0. -1.
</event>
<event>
 7    1  0.6841384E-013  0.5930195E+02  0.7816164E-02  0.1266605E+00
        -11   -1    0    0    0    0  0.00000000000E+00  0.00000000000E+00  0.45593999997E+02  0.45594000000E+02  0.51100000000E-03 0. -1.
         11   -1    0    0    0    0 -0.00000000000E+00 -0.00000000000E+00 -0.45593999997E+02  0.45594000000E+02  0.51100000000E-03 0.  1.
    9900012    2    1    2    0    0  0.14714268351E+01 -0.65357842216E+01  0.31174321841E+02  0.59301954235E+02  0.50000018615E+02 0.  0.
        -12    1    1    2    0    0 -0.14714268351E+01  0.65357842216E+01 -0.31174321841E+02  0.31886045765E+02  0.00000000000E+00 0.  1.
         11    1    3    3    0    0 -0.27055209057E+01 -0.19829165696E+02  0.83904860943E+01  0.21700597059E+02  0.51100000000E-03 0. -1.
        -11    1    3    3    0    0 -0.42499417772E+01  0.28142752105E+01 -0.47448683263E+01  0.69639016194E+01  0.51100000000E-03 0.  1.
         12    1    3    3    0    0  0.84268895180E+01  0.10479106264E+02  0.27528704073E+02  0.30637455556E+02  0.00000000000E+00 0. -1.
</event>
<event>
 7    1  0.6841384E-013  0.5930194E+02  0.7816164E-02  0.1266605E+00
        -11   -1    0    0    0    0  0.00000000000E+00  0.00000000000E+00  0.45593999997E+02  0.45594000000E+02  0.51100000000E-03 0.  1.
         11   -1    0    0    0    0 -0.00000000000E+00 -0.00000000000E+00 -0.45593999997E+02  0.45594000000E+02  0.51100000000E-03 0. -1.
    9900012    2    1    2    0    0  0.17936515413E+02 -0.11994126341E+02  0.23476433076E+02  0.59301944085E+02  0.50000000104E+02 0.  0.
        -12    1    1    2    0    0 -0.17936515413E+02  0.11994126341E+02 -0.23476433076E+02  0.31886055915E+02  0.00000000000E+00 0.  1.
         11    1    3    3    0    0  0.81338962550E+01 -0.14521391028E+02  0.63175992283E+01  0.17802896560E+02  0.51100000000E-03 0. -1.
        -11    1    3    3    0    0 -0.11704090555E+02 -0.76146076846E+01  0.53828003900E+01  0.14964709359E+02  0.51100000000E-03 0.  1.
         12    1    3    3    0    0  0.21506709713E+02  0.10141872371E+02  0.11776033458E+02  0.26534338165E+02  0.00000000000E+00 0. -1.
</event>
<event>
 7    1  0.6841384E-013  0.5930194E+02  0.7816164E-02  0.1266605E+00
        -11   -1    0    0    0    0  0.00000000000E+00  0.00000000000E+00  0.45593999997E+02  0.45594000000E+02  0.51100000000E-03 0. -1.
         11   -1    0    0    0    0 -0.00000000000E+00 -0.00000000000E+00 -0.45593999997E+02  0.45594000000E+02  0.51100000000E-03 0.  1.
    9900012    2    1    2    0    0  0.90434594839E+01 -0.23554069479E+02  0.19497244106E+02  0.59301939156E+02  0.49999991115E+02 0.  0.
        -12    1    1    2    0    0 -0.90434594839E+01  0.23554069479E+02 -0.19497244106E+02  0.31886060844E+02  0.00000000000E+00 0.  1.
         11    1    3    3    0    0  0.10185086221E+02 -0.10357713917E+02  0.28857087718E+02  0.32307115791E+02  0.51100000000E-03 0. -1.
        -11    1    3    3    0    0 -0.18392418457E+01 -0.68785116927E+00  0.64963834953E+01  0.67866743385E+01  0.51100000000E-03 0.  1.
        -12    1    3    3    0    0  0.69761510888E+00 -0.12508504392E+02 -0.15856227108E+02  0.20208149026E+02  0.00000000000E+00 0.  1.
</event>
<event>
 7    1  0.6841384E-013  0.5930198E+02  0.7816164E-02  0.1266605E+00
        -11   -1    0    0    0    0  0.00000000000E+00  0.00000000000E+00  0.45593999997E+02  0.45594000000E+02  0.51100000000E-03 0.  1.
         11   -1    0    0    0    0 -0.00000000000E+00 -0.00000000000E+00 -0.45593999997E+02  0.45594000000E+02  0.51100000000E-03 0. -1.
    9900012    2    1    2    0    0 -0.24368288958E+02  0.35846755225E+01 -0.20249808438E+02  0.59301981950E+02  0.50000069161E+02 0.  0.
        -12    1    1    2    0    0  0.24368288958E+02 -0.35846755225E+01  0.20249808438E+02  0.31886018050E+02  0.00000000000E+00 0.  1.
         11    1    3    3    0    0  0.98228615570E+01  0.73530341188E+01 -0.24876614116E+01  0.12519751574E+02  0.51100000000E-03 0. -1.
        -11    1    3    3    0    0  0.39820876826E+01 -0.30406478765E+01 -0.11268810189E+01  0.51354087386E+01  0.51100000000E-03 0.  1.
         12    1    3    3    0    0 -0.38173238197E+02 -0.72771071979E+00 -0.16635266007E+02  0.41646821637E+02  0.00000000000E+00 0. -1.
</event>
<event>
 7    1  0.6841384E-013  0.5930195E+02  0.7816164E-02  0.1266605E+00
        -11   -1    0    0    0    0  0.00000000000E+00  0.00000000000E+00  0.45593999997E+02  0.45594000000E+02  0.51100000000E-03 0. -1.
         11   -1    0    0    0    0 -0.00000000000E+00 -0.00000000000E+00 -0.45593999997E+02  0.45594000000E+02  0.51100000000E-03 0.  1.
    9900012    2    1    2    0    0 -0.26059154022E+02  0.16207009200E+02  0.86587302129E+01  0.59301948748E+02  0.50000008609E+02 0.  0.
        -12    1    1    2    0    0  0.26059154022E+02 -0.16207009200E+02 -0.86587302129E+01  0.31886051252E+02  0.00000000000E+00 0.  1.
         11    1    3    3    0    0  0.51291194642E+01 -0.11083745990E+01 -0.32069511161E+00  0.52573002906E+01  0.51100000000E-03 0. -1.
        -11    1    3    3    0    0  0.77065438234E+01  0.11592772069E+02  0.12322447754E+01  0.13975035220E+02  0.51100000000E-03 0.  1.
         12    1    3    3    0    0 -0.38894817310E+02  0.57226117298E+01  0.77471805491E+01  0.40069613238E+02  0.00000000000E+00 0. -1.
</event>
<event>
 7    1  0.6841384E-013  0.5930195E+02  0.7816164E-02  0.1266605E+00
        -11   -1    0    0    0    0  0.00000000000E+00  0.00000000000E+00  0.45593999997E+02  0.45594000000E+02  0.51100000000E-03 0.  1.
         11   -1    0    0    0    0 -0.00000000000E+00 -0.00000000000E+00 -0.45593999997E+02  0.45594000000E+02  0.51100000000E-03 0. -1.
    9900012    2    1    2    0    0  0.87157619127E+01 -0.26542987374E+02  0.15369638950E+02  0.59301945275E+02  0.50000002275E+02 0.  0.
        -12    1    1    2    0    0 -0.87157619127E+01  0.26542987374E+02 -0.15369638950E+02  0.31886054725E+02  0.00000000000E+00 0.  1.
         11    1    3    3    0    0 -0.41033735539E+01  0.50551047457E+01  0.10309034000E+02  0.12192946354E+02  0.51100000000E-03 0.  1.
        -11    1    3    3    0    0 -0.20059691902E+01  0.60065360334E+01  0.16492094183E+01  0.65438734308E+01  0.51100000000E-03 0. -1.
         12    1    3    3    0    0  0.14825104657E+02 -0.37604628153E+02  0.34113955319E+01  0.40565125491E+02  0.00000000000E+00 0. -1.
</event>
