<event>
 7    1  0.3758561E-013  0.7246163E+02  0.7816164E-02  0.1226708E+00
        -11   -1    0    0    0    0  0.00000000000E+00  0.00000000000E+00  0.45593999997E+02  0.45594000000E+02  0.51100000000E-03 0.  1.
         11   -1    0    0    0    0 -0.00000000000E+00 -0.00000000000E+00 -0.45593999997E+02  0.45594000000E+02  0.51100000000E-03 0. -1.
    9900012    2    1    2    0    0 -0.14101722979E+02 -0.10116445779E+02 -0.70339207203E+01  0.72461625368E+02  0.70000071743E+02 0.  0.
        -12    1    1    2    0    0  0.14101722979E+02  0.10116445779E+02  0.70339207203E+01  0.18726374632E+02  0.00000000000E+00 0.  1.
         11    1    3    3    0    0 -0.21368637007E+02 -0.16078443605E+02  0.12061340615E+02  0.29336171086E+02  0.51100000000E-03 0.  1.
        -11    1    3    3    0    0 -0.13608820058E+02  0.88337333256E+01 -0.27477583752E+01  0.16455546305E+02  0.51100000000E-03 0. -1.
        -12    1    3    3    0    0  0.20875734087E+02 -0.28717354999E+01 -0.16347502960E+02  0.26669907976E+02  0.00000000000E+00 0.  1.
</event>
<event>
 7    1  0.3758561E-013  0.7246161E+02  0.7816164E-02  0.1226708E+00
        -11   -1    0    0    0    0  0.00000000000E+00  0.00000000000E+00  0.45593999997E+02  0.45594000000E+02  0.51100000000E-03 0. -1.
         11   -1    0    0    0    0 -0.00000000000E+00 -0.00000000000E+00 -0.45593999997E+02  0.45594000000E+02  0.51100000000E-03 0.  1.
    9900012    2    1    2    0    0  0.14859511656E+02 -0.72606782125E+01  0.87837927427E+01  0.72461613543E+02  0.70000056340E+02 0.  0.
        -12    1    1    2    0    0 -0.14859511656E+02  0.72606782125E+01 -0.87837927427E+01  0.18726386457E+02  0.00000000000E+00 0.  1.
         11    1    3    3    0    0  0.38894248698E+01  0.11796744199E+02  0.17380845447E+01  0.12542397604E+02  0.51100000000E-03 0. -1.
        -11    1    3    3    0    0 -0.14904811897E+02  0.55196593848E+01 -0.11579207390E+02  0.19664640893E+02  0.51100000000E-03 0.  1.
        -12    1    3    3    0    0  0.25874898684E+02 -0.24577081797E+02  0.18624915588E+02  0.40254575046E+02  0.00000000000E+00 0.  1.
</event>
<event>
 7    1  0.3758561E-013  0.7246155E+02  0.7816164E-02  0.1226708E+00
        -11   -1    0    0    0    0  0.00000000000E+00  0.00000000000E+00  0.45593999997E+02  0.45594000000E+02  0.51100000000E-03 0.  1.
         11   -1    0    0    0    0 -0.00000000000E+00 -0.00000000000E+00 -0.45593999997E+02  0.45594000000E+02  0.51100000000E-03 0. -1.
    9900012    2    1    2    0    0  0.78375396680E+01 -0.99188565873E+01 -0.13815545629E+02  0.72461546917E+02  0.69999969547E+02 0.  0.
        -12    1    1    2    0    0 -0.78375396680E+01  0.99188565873E+01  0.13815545629E+02  0.18726453083E+02  0.00000000000E+00 0.  1.
         11    1    3    3    0    0  0.32426203709E+00 -0.32558016431E-01 -0.31574899758E+02  0.31576581526E+02  0.51100000000E-03 0. -1.
        -11    1    3    3    0    0  0.77892223138E+01  0.99209025724E+00 -0.90319814100E+01  0.11967995479E+02  0.51100000000E-03 0.  1.
        -12    1    3    3    0    0 -0.27594468286E+00 -0.10878388828E+02  0.26791335539E+02  0.28916969912E+02  0.00000000000E+00 0.  1.
</event>
<event>
 7    1  0.3758561E-013  0.7246155E+02  0.7816164E-02  0.1226708E+00
        -11   -1    0    0    0    0  0.00000000000E+00  0.00000000000E+00  0.45593999997E+02  0.45594000000E+02  0.51100000000E-03 0. -1.
         11   -1    0    0    0    0 -0.00000000000E+00 -0.00000000000E+00 -0.45593999997E+02  0.45594000000E+02  0.51100000000E-03 0.  1.
    9900012    2    1    2    0    0 -0.30090042362E+01  0.84798936271E+01  0.16423064718E+02  0.72461554604E+02  0.69999979561E+02 0.  0.
        -12    1    1    2    0    0  0.30090042362E+01 -0.84798936271E+01 -0.16423064718E+02  0.18726445396E+02  0.00000000000E+00 0.  1.
         11    1    3    3    0    0  0.14226900627E+02  0.12352389553E+02  0.13980700841E+01  0.18892877741E+02  0.51100000000E-03 0. -1.
        -11    1    3    3    0    0 -0.16269228181E+02  0.17128118553E+02  0.21111893954E+02  0.31682365716E+02  0.51100000000E-03 0.  1.
        -12    1    3    3    0    0 -0.96667668253E+00 -0.21000614479E+02 -0.60868993203E+01  0.21886311147E+02  0.00000000000E+00 0.  1.
</event>
<event>
 7    1  0.3758561E-013  0.7246157E+02  0.7816164E-02  0.1226708E+00
        -11   -1    0    0    0    0  0.00000000000E+00  0.00000000000E+00  0.45593999997E+02  0.45594000000E+02  0.51100000000E-03 0.  1.
         11   -1    0    0    0    0 -0.00000000000E+00 -0.00000000000E+00 -0.45593999997E+02  0.45594000000E+02  0.51100000000E-03 0. -1.
    9900012    2    1    2    0    0 -0.13530772223E+02 -0.53508458180E+01 -0.11788380776E+02  0.72461567632E+02  0.69999996531E+02 0.  0.
        -12    1    1    2    0    0  0.13530772223E+02  0.53508458180E+01  0.11788380776E+02  0.18726432368E+02  0.00000000000E+00 0.  1.
         11    1    3    3    0    0 -0.79418802311E+01 -0.18647383577E+02 -0.29134924601E+02  0.35491438512E+02  0.51100000000E-03 0. -1.
        -11    1    3    3    0    0 -0.52503789155E+01  0.77555345825E+01 -0.71939101490E+01  0.11809620608E+02  0.51100000000E-03 0.  1.
        -12    1    3    3    0    0 -0.33851307647E+00  0.55410031767E+01  0.24540453974E+02  0.25160508511E+02  0.00000000000E+00 0.  1.
</event>
<event>
 7    1  0.3758561E-013  0.7246158E+02  0.7816164E-02  0.1226708E+00
        -11   -1    0    0    0    0  0.00000000000E+00  0.00000000000E+00  0.45593999997E+02  0.45594000000E+02  0.51100000000E-03 0.  1.
         11   -1    0    0    0    0 -0.00000000000E+00 -0.00000000000E+00 -0.45593999997E+02  0.45594000000E+02  0.51100000000E-03 0. -1.
    9900012    2    1    2    0    0  0.18310052686E+02 -0.16932187386E+01 -0.35431578970E+01  0.72461575169E+02  0.70000006350E+02 0.  0.
        -12    1    1    2    0    0 -0.18310052686E+02  0.16932187386E+01  0.35431578970E+01  0.18726424831E+02  0.00000000000E+00 0.  1.
         11    1    3    3    0    0  0.12666212520E+01  0.10567236685E+02 -0.68915355420E+00  0.10665165420E+02  0.51100000000E-03 0. -1.
        -11    1    3    3    0    0  0.14267978394E+02  0.77637723175E+01  0.23508892089E+02  0.28574803159E+02  0.51100000000E-03 0.  1.
         12    1    3    3    0    0  0.27754530404E+01 -0.20024227741E+02 -0.26362896432E+02  0.33221606591E+02  0.00000000000E+00 0. -1.
</event>
<event>
 7    1  0.3758561E-013  0.7246158E+02  0.7816164E-02  0.1226708E+00
        -11   -1    0    0    0    0  0.00000000000E+00  0.00000000000E+00  0.45593999997E+02  0.45594000000E+02  0.51100000000E-03 0. -1.
         11   -1    0    0    0    0 -0.00000000000E+00 -0.00000000000E+00 -0.45593999997E+02  0.45594000000E+02  0.51100000000E-03 0.  1.
    9900012    2    1    2    0    0 -0.16173361133E+02 -0.62880567670E+01  0.70399942238E+01  0.72461580510E+02  0.70000013308E+02 0.  0.
        -12    1    1    2    0    0  0.16173361133E+02  0.62880567670E+01 -0.70399942238E+01  0.18726419490E+02  0.00000000000E+00 0.  1.
         11    1    3    3    0    0  0.17822126640E+02  0.48481182209E+01 -0.14435204346E+02  0.23441577870E+02  0.51100000000E-03 0.  1.
        -11    1    3    3    0    0  0.32533764114E+01 -0.55035839550E+01  0.31171055617E+01  0.71126817564E+01  0.51100000000E-03 0. -1.
         12    1    3    3    0    0 -0.37248864185E+02 -0.56325910329E+01  0.18358093008E+02  0.41907320884E+02  0.00000000000E+00 0. -1.
</event>
<event>
 7    1  0.3758561E-013  0.7246161E+02  0.7816164E-02  0.1226708E+00
        -11   -1    0    0    0    0  0.00000000000E+00  0.00000000000E+00  0.45593999997E+02  0.45594000000E+02  0.51100000000E-03 0.  1.
         11   -1    0    0    0    0 -0.00000000000E+00 -0.00000000000E+00 -0.45593999997E+02  0.45594000000E+02  0.51100000000E-03 0. -1.
    9900012    2    1    2    0    0  0.12593932565E+02 -0.13038026254E+02 -0.46989813426E+01  0.72461609752E+02  0.70000051401E+02 0.  0.
        -12    1    1    2    0    0 -0.12593932565E+02  0.13038026254E+02  0.46989813426E+01  0.18726390248E+02  0.00000000000E+00 0.  1.
         11    1    3    3    0    0  0.66407398515E+01  0.17410902437E+02 -0.16416413240E+02  0.24834201686E+02  0.51100000000E-03 0. -1.
        -11    1    3    3    0    0 -0.13544451226E+02 -0.93447968420E+01  0.90289694447E+01  0.18769647747E+02  0.51100000000E-03 0.  1.
        -12    1    3    3    0    0  0.19497643940E+02 -0.21104131849E+02  0.26884624532E+01  0.28857760320E+02  0.00000000000E+00 0.  1.
</event>
<event>
 7    1  0.3758561E-013  0.7246141E+02  0.7816164E-02  0.1226708E+00
        -11   -1    0    0    0    0  0.00000000000E+00  0.00000000000E+00  0.45593999997E+02  0.45594000000E+02  0.51100000000E-03 0. -1.
         11   -1    0    0    0    0 -0.00000000000E+00 -0.00000000000E+00 -0.45593999997E+02  0.45594000000E+02  0.51100000000E-03 0.  1.
    9900012    2    1    2    0    0 -0.40453928474E+01  0.12699369575E+02  0.13154698656E+02  0.72461406941E+02  0.69999787201E+02 0.  0.
        -12    1    1    2    0    0  0.40453928474E+01 -0.12699369575E+02 -0.13154698656E+02  0.18726593059E+02  0.00000000000E+00 0.  1.
         11    1    3    3    0    0 -0.21778189388E+02  0.26565646413E+02  0.57964214938E+01  0.34837072276E+02  0.51100000000E-03 0. -1.
        -11    1    3    3    0    0 -0.52298487413E+01 -0.12121234555E+02 -0.71667104396E+00  0.13220789032E+02  0.51100000000E-03 0.  1.
        -12    1    3    3    0    0  0.22962645282E+02 -0.17450422831E+01  0.80749482057E+01  0.24403545633E+02  0.00000000000E+00 0.  1.
</event>
<event>
 7    1  0.3758561E-013  0.7246155E+02  0.7816164E-02  0.1226708E+00
        -11   -1    0    0    0    0  0.00000000000E+00  0.00000000000E+00  0.45593999997E+02  0.45594000000E+02  0.51100000000E-03 0. -1.
         11   -1    0    0    0    0 -0.00000000000E+00 -0.00000000000E+00 -0.45593999997E+02  0.45594000000E+02  0.51100000000E-03 0.  1.
    9900012    2    1    2    0    0 -0.11689352546E+02 -0.11636931427E+02  0.88668289283E+01  0.72461553694E+02  0.69999978375E+02 0.  0.
        -12    1    1    2    0    0  0.11689352546E+02  0.11636931427E+02 -0.88668289283E+01  0.18726446306E+02  0.00000000000E+00 0.  1.
         11    1    3    3    0    0 -0.40090674949E+01 -0.55790079486E+01 -0.42987478741E+01  0.81041461867E+01  0.51100000000E-03 0. -1.
        -11    1    3    3    0    0  0.18459771527E+02  0.10563636325E+02 -0.12023244749E+02  0.24431782411E+02  0.51100000000E-03 0.  1.
         12    1    3    3    0    0 -0.26140056578E+02 -0.16621559803E+02  0.25188821551E+02  0.39925625097E+02  0.00000000000E+00 0. -1.
</event>
<event>
 7    1  0.3758561E-013  0.7246156E+02  0.7816164E-02  0.1226708E+00
        -11   -1    0    0    0    0  0.00000000000E+00  0.00000000000E+00  0.45593999997E+02  0.45594000000E+02  0.51100000000E-03 0.  1.
         11   -1    0    0    0    0 -0.00000000000E+00 -0.00000000000E+00 -0.45593999997E+02  0.45594000000E+02  0.51100000000E-03 0. -1.
    9900012    2    1    2    0    0 -0.97362710240E+01 -0.95403001220E+01 -0.12840071700E+02  0.72461555032E+02  0.69999980118E+02 0.  0.
        -12    1    1    2    0    0  0.97362710240E+01  0.95403001220E+01  0.12840071700E+02  0.18726444968E+02  0.00000000000E+00 0.  1.
         11    1    3    3    0    0 -0.81868721737E+01 -0.10820031801E+02  0.55212676428E+01  0.14648629997E+02  0.51100000000E-03 0. -1.
        -11    1    3    3    0    0  0.27691142124E+01 -0.20201759125E+02  0.93944243183E+01  0.22450707646E+02  0.51100000000E-03 0.  1.
         12    1    3    3    0    0 -0.43185130627E+01  0.21481490804E+02 -0.27755763661E+02  0.35362217389E+02  0.00000000000E+00 0. -1.
</event>
<event>
 7    1  0.3758561E-013  0.7246162E+02  0.7816164E-02  0.1226708E+00
        -11   -1    0    0    0    0  0.00000000000E+00  0.00000000000E+00  0.45593999997E+02  0.45594000000E+02  0.51100000000E-03 0.  1.
         11   -1    0    0    0    0 -0.00000000000E+00 -0.00000000000E+00 -0.45593999997E+02  0.45594000000E+02  0.51100000000E-03 0. -1.
    9900012    2    1    2    0    0 -0.39988293092E+01 -0.22499733604E+01 -0.18155554037E+02  0.72461623993E+02  0.70000069952E+02 0.  0.
        -12    1    1    2    0    0  0.39988293092E+01  0.22499733604E+01  0.18155554037E+02  0.18726376007E+02  0.00000000000E+00 0.  1.
         11    1    3    3    0    0 -0.12304815195E+02  0.97455426951E+00 -0.20653052247E+02  0.24060482131E+02  0.51100000000E-03 0. -1.
        -11    1    3    3    0    0 -0.18294068345E+02  0.15709815064E+01  0.92236907870E+01  0.20547929129E+02  0.51100000000E-03 0.  1.
        -12    1    3    3    0    0  0.26600054231E+02 -0.47955091364E+01 -0.67261925776E+01  0.27853212733E+02  0.00000000000E+00 0.  1.
</event>
<event>
 7    1  0.3758561E-013  0.7246156E+02  0.7816164E-02  0.1226708E+00
        -11   -1    0    0    0    0  0.00000000000E+00  0.00000000000E+00  0.45593999997E+02  0.45594000000E+02  0.51100000000E-03 0. -1.
         11   -1    0    0    0    0 -0.00000000000E+00 -0.00000000000E+00 -0.45593999997E+02  0.45594000000E+02  0.51100000000E-03 0.  1.
    9900012    2    1    2    0    0 -0.46006385260E+01  0.58045244518E+01  0.17199454158E+02  0.72461558739E+02  0.69999984948E+02 0.  0.
        -12    1    1    2    0    0  0.46006385260E+01 -0.58045244518E+01 -0.17199454158E+02  0.18726441261E+02  0.00000000000E+00 0.  1.
         11    1    3    3    0    0  0.63103554741E+01 -0.20021070927E+02 -0.23163716843E+01  0.21119409209E+02  0.51100000000E-03 0. -1.
        -11    1    3    3    0    0 -0.20753443307E+02  0.24095643816E+02  0.28743337408E+01  0.31930663237E+02  0.51100000000E-03 0.  1.
         12    1    3    3    0    0  0.98424493071E+01  0.17299515629E+01  0.16641492101E+02  0.19411486294E+02  0.00000000000E+00 0. -1.
</event>
<event>
 7    1  0.3758561E-013  0.7246160E+02  0.7816164E-02  0.1226708E+00
        -11   -1    0    0    0    0  0.00000000000E+00  0.00000000000E+00  0.45593999997E+02  0.45594000000E+02  0.51100000000E-03 0.  1.
         11   -1    0    0    0    0 -0.00000000000E+00 -0.00000000000E+00 -0.45593999997E+02  0.45594000000E+02  0.51100000000E-03 0. -1.
    9900012    2    1    2    0    0  0.15080042100E+02  0.95823048401E+01 -0.56080078802E+01  0.72461601837E+02  0.70000041090E+02 0.  0.
        -12    1    1    2    0    0 -0.15080042100E+02 -0.95823048401E+01  0.56080078802E+01  0.18726398163E+02  0.00000000000E+00 0.  1.
         11    1    3    3    0    0 -0.11730316254E+01  0.90878582681E+01  0.11868174100E+01  0.92397893331E+01  0.51100000000E-03 0. -1.
        -11    1    3    3    0    0 -0.13744946919E+02 -0.17342137930E+02 -0.15785810053E+02  0.27182073377E+02  0.51100000000E-03 0.  1.
         12    1    3    3    0    0  0.29998020644E+02  0.17836584502E+02  0.89909847629E+01  0.36039739126E+02  0.00000000000E+00 0. -1.
</event>
<event>
 7    1  0.3758561E-013  0.7246157E+02  0.7816164E-02  0.1226708E+00
        -11   -1    0    0    0    0  0.00000000000E+00  0.00000000000E+00  0.45593999997E+02  0.45594000000E+02  0.51100000000E-03 0. -1.
         11   -1    0    0    0    0 -0.00000000000E+00 -0.00000000000E+00 -0.45593999997E+02  0.45594000000E+02  0.51100000000E-03 0.  1.
    9900012    2    1    2    0    0 -0.19669779346E+01 -0.11040404799E+02  0.14997320752E+02  0.72461570280E+02  0.69999999981E+02 0.  0.
        -12    1    1    2    0    0  0.19669779346E+01  0.11040404799E+02 -0.14997320752E+02  0.18726429720E+02  0.00000000000E+00 0.  1.
         11    1    3    3    0    0 -0.35987972300E+01 -0.10420184251E+02  0.59831552553E+00  0.11040360639E+02  0.51100000000E-03 0. -1.
        -11    1    3    3    0    0 -0.24556294010E+02  0.48511171227E+01 -0.82630851047E+01  0.26359504710E+02  0.51100000000E-03 0.  1.
        -12    1    3    3    0    0  0.26188113306E+02 -0.54713376710E+01  0.22662090331E+02  0.35061704930E+02  0.00000000000E+00 0.  1.
</event>
<event>
 7    1  0.3758561E-013  0.7246159E+02  0.7816164E-02  0.1226708E+00
        -11   -1    0    0    0    0  0.00000000000E+00  0.00000000000E+00  0.45593999997E+02  0.45594000000E+02  0.51100000000E-03 0. -1.
         11   -1    0    0    0    0 -0.00000000000E+00 -0.00000000000E+00 -0.45593999997E+02  0.45594000000E+02  0.51100000000E-03 0.  1.
    9900012    2    1    2    0    0  0.16229952077E+02  0.24756763695E+01  0.90076640755E+01  0.72461592710E+02  0.70000029201E+02 0.  0.
        -12    1    1    2    0    0 -0.16229952077E+02 -0.24756763695E+01 -0.90076640755E+01  0.18726407290E+02  0.00000000000E+00 0.  1.
         11    1    3    3    0    0  0.22454234349E+02  0.46935954727E+01 -0.10708368691E+02  0.25315837710E+02  0.51100000000E-03 0. -1.
        -11    1    3    3    0    0 -0.16628434294E+02 -0.57650417841E+01 -0.64661529368E+01  0.18749711142E+02  0.51100000000E-03 0.  1.
         12    1    3    3    0    0  0.10404152021E+02  0.35471226809E+01  0.26182185703E+02  0.28396043858E+02  0.00000000000E+00 0. -1.
</event>
<event>
 7    1  0.3758561E-013  0.7246155E+02  0.7816164E-02  0.1226708E+00
        -11   -1    0    0    0    0  0.00000000000E+00  0.00000000000E+00  0.45593999997E+02  0.45594000000E+02  0.51100000000E-03 0.  1.
         11   -1    0    0    0    0 -0.00000000000E+00 -0.00000000000E+00 -0.45593999997E+02  0.45594000000E+02  0.51100000000E-03 0. -1.
    9900012    2    1    2    0    0  0.18071757836E+02  0.22417945320E+01 -0.43664622129E+01  0.72461546352E+02  0.69999968810E+02 0.  0.
        -12    1    1    2    0    0 -0.18071757836E+02 -0.22417945320E+01  0.43664622129E+01  0.18726453648E+02  0.00000000000E+00 0.  1.
         11    1    3    3    0    0  0.10684169873E+02 -0.29214077835E+01  0.49285972631E+01  0.12123414558E+02  0.51100000000E-03 0. -1.
        -11    1    3    3    0    0  0.16903708279E+02 -0.23627091035E+02 -0.18204780804E+01  0.29108227789E+02  0.51100000000E-03 0.  1.
         12    1    3    3    0    0 -0.95161203159E+01  0.28790293350E+02 -0.74745813955E+01  0.31229904004E+02  0.00000000000E+00 0. -1.
</event>
<event>
 7    1  0.3758561E-013  0.7246158E+02  0.7816164E-02  0.1226708E+00
        -11   -1    0    0    0    0  0.00000000000E+00  0.00000000000E+00  0.45593999997E+02  0.45594000000E+02  0.51100000000E-03 0. -1.
         11   -1    0    0    0    0 -0.00000000000E+00 -0.00000000000E+00 -0.45593999997E+02  0.45594000000E+02  0.51100000000E-03 0.  1.
    9900012    2    1    2    0    0 -0.10706742307E+01  0.16438986626E+02  0.89046239807E+01  0.72461576080E+02  0.70000007537E+02 0.  0.
        -12    1    1    2    0    0  0.10706742307E+01 -0.16438986626E+02 -0.89046239807E+01  0.18726423920E+02  0.00000000000E+00 0.  1.
         11    1    3    3    0    0  0.28905797093E+01  0.13613120275E+02  0.75841877220E+01  0.15849050392E+02  0.51100000000E-03 0. -1.
        -11    1    3    3    0    0 -0.17123161354E+02  0.25449024326E+01 -0.23101669562E+02  0.28868084799E+02  0.51100000000E-03 0.  1.
         12    1    3    3    0    0  0.13161907414E+02  0.28096391854E+00  0.24422105821E+02  0.27744440889E+02  0.00000000000E+00 0. -1.
</event>
<event>
 7    1  0.3758561E-013  0.7246156E+02  0.7816164E-02  0.1226708E+00
        -11   -1    0    0    0    0  0.00000000000E+00  0.00000000000E+00  0.45593999997E+02  0.45594000000E+02  0.51100000000E-03 0.  1.
         11   -1    0    0    0    0 -0.00000000000E+00 -0.00000000000E+00 -0.45593999997E+02  0.45594000000E+02  0.51100000000E-03 0. -1.
    9900012    2    1    2    0    0  0.13070869342E+02 -0.72945310069E+01 -0.11252636672E+02  0.72461557731E+02  0.69999983634E+02 0.  0.
        -12    1    1    2    0    0 -0.13070869342E+02  0.72945310069E+01  0.11252636672E+02  0.18726442269E+02  0.00000000000E+00 0.  1.
         11    1    3    3    0    0  0.90571918572E+00  0.85782131256E+01 -0.46538563276E+01  0.98012471987E+01  0.51100000000E-03 0. -1.
        -11    1    3    3    0    0  0.25089166174E+02  0.11508741579E+02 -0.14760053778E+02  0.31301383034E+02  0.51100000000E-03 0.  1.
         12    1    3    3    0    0 -0.12924016018E+02 -0.27381485712E+02  0.81612734336E+01  0.31358927498E+02  0.00000000000E+00 0. -1.
</event>
<event>
 7    1  0.3758561E-013  0.7246153E+02  0.7816164E-02  0.1226708E+00
        -11   -1    0    0    0    0  0.00000000000E+00  0.00000000000E+00  0.45593999997E+02  0.45594000000E+02  0.51100000000E-03 0.  1.
         11   -1    0    0    0    0 -0.00000000000E+00 -0.00000000000E+00 -0.45593999997E+02  0.45594000000E+02  0.51100000000E-03 0. -1.
    9900012    2    1    2    0    0 -0.17048860681E+02  0.50624995631E+01  0.58641370675E+01  0.72461530608E+02  0.69999948301E+02 0.  0.
        -12    1    1    2    0    0  0.17048860681E+02 -0.50624995631E+01 -0.58641370675E+01  0.18726469392E+02  0.00000000000E+00 0.  1.
         11    1    3    3    0    0 -0.19791018695E+02 -0.26728404904E+02 -0.33594038175E+01  0.33427199164E+02  0.51100000000E-03 0. -1.
        -11    1    3    3    0    0  0.51908787497E+01 -0.71337088757E+00  0.34801484481E+00  0.52512126990E+01  0.51100000000E-03 0.  1.
        -12    1    3    3    0    0 -0.24487207361E+01  0.32504275355E+02  0.88755260402E+01  0.33783118744E+02  0.00000000000E+00 0.  1.
</event>
<event>
 7    1  0.3758561E-013  0.7246156E+02  0.7816164E-02  0.1226708E+00
        -11   -1    0    0    0    0  0.00000000000E+00  0.00000000000E+00  0.45593999997E+02  0.45594000000E+02  0.51100000000E-03 0.  1.
         11   -1    0    0    0    0 -0.00000000000E+00 -0.00000000000E+00 -0.45593999997E+02  0.45594000000E+02  0.51100000000E-03 0. -1.
    9900012    2    1    2    0    0 -0.45474938568E+01  0.10486622966E+02 -0.14833424333E+02  0.72461563098E+02  0.69999990625E+02 0.  0.
        -12    1    1    2    0    0  0.45474938568E+01 -0.10486622966E+02  0.14833424333E+02  0.18726436902E+02  0.00000000000E+00 0.  1.
         11    1    3    3    0    0 -0.38301775166E+01  0.18044232299E+02 -0.13041515863E+02  0.22590832551E+02  0.51100000000E-03 0. -1.
        -11    1    3    3    0    0  0.25829115243E+01  0.19722652557E+02  0.68933624770E+01  0.21051672198E+02  0.51100000000E-03 0.  1.
        -12    1    3    3    0    0 -0.33002278644E+01 -0.27280261890E+02 -0.86852709464E+01  0.28819058349E+02  0.00000000000E+00 0.  1.
</event>
<event>
 7    1  0.3758561E-013  0.7246157E+02  0.7816164E-02  0.1226708E+00
        -11   -1    0    0    0    0  0.00000000000E+00  0.00000000000E+00  0.45593999997E+02  0.45594000000E+02  0.51100000000E-03 0.  1.
         11   -1    0    0    0    0 -0.00000000000E+00 -0.00000000000E+00 -0.45593999997E+02  0.45594000000E+02  0.51100000000E-03 0. -1.
    9900012    2    1    2    0    0  0.47545378820E+01 -0.75686949496E+01 -0.16455644767E+02  0.72461574329E+02  0.70000005256E+02 0.  0.
        -12    1    1    2    0    0 -0.47545378820E+01  0.75686949496E+01  0.16455644767E+02  0.18726425671E+02  0.00000000000E+00 0.  1.
         11    1    3    3    0    0 -0.71661974530E+00 -0.10183563940E+02 -0.34717791155E+01  0.10782938786E+02  0.51100000000E-03 0. -1.
        -11    1    3    3    0    0 -0.40628217439E+01  0.19310958171E+02  0.17009028417E+02  0.26052383268E+02  0.51100000000E-03 0.  1.
         12    1    3    3    0    0  0.95339793712E+01 -0.16696089181E+02 -0.29992894068E+02  0.35626252275E+02  0.00000000000E+00 0. -1.
</event>
<event>
 7    1  0.3758561E-013  0.7246145E+02  0.7816164E-02  0.1226708E+00
        -11   -1    0    0    0    0  0.00000000000E+00  0.00000000000E+00  0.45593999997E+02  0.45594000000E+02  0.51100000000E-03 0.  1.
         11   -1    0    0    0    0 -0.00000000000E+00 -0.00000000000E+00 -0.45593999997E+02  0.45594000000E+02  0.51100000000E-03 0. -1.
    9900012    2    1    2    0    0 -0.11800826089E+02 -0.20331314083E+00 -0.14539012651E+02  0.72461448756E+02  0.69999841674E+02 0.  0.
        -12    1    1    2    0    0  0.11800826089E+02  0.20331314083E+00  0.14539012651E+02  0.18726551244E+02  0.00000000000E+00 0.  1.
         11    1    3    3    0    0 -0.25393984044E+02  0.40800723363E+01 -0.62435200527E+01  0.26466638601E+02  0.51100000000E-03 0. -1.
        -11    1    3    3    0    0  0.38111740646E+01  0.17607239942E+01  0.17370573444E+02  0.17870702806E+02  0.51100000000E-03 0.  1.
        -12    1    3    3    0    0  0.97819838902E+01 -0.60441094713E+01 -0.25666066042E+02  0.28124107350E+02  0.00000000000E+00 0.  1.
</event>
<event>
 7    1  0.3758561E-013  0.7246157E+02  0.7816164E-02  0.1226708E+00
        -11   -1    0    0    0    0  0.00000000000E+00  0.00000000000E+00  0.45593999997E+02  0.45594000000E+02  0.51100000000E-03 0.  1.
         11   -1    0    0    0    0 -0.00000000000E+00 -0.00000000000E+00 -0.45593999997E+02  0.45594000000E+02  0.51100000000E-03 0. -1.
    9900012    2    1    2    0    0  0.24080329755E+00 -0.88090150192E+01 -0.16523387944E+02  0.72461572659E+02  0.70000003080E+02 0.  0.
        -12    1    1    2    0    0 -0.24080329755E+00  0.88090150192E+01  0.16523387944E+02  0.18726427341E+02  0.00000000000E+00 0.  1.
         11    1    3    3    0    0  0.56612049857E+01 -0.20676255798E+02 -0.38750179691E+01  0.21784686370E+02  0.51100000000E-03 0. -1.
        -11    1    3    3    0    0 -0.40032058266E+01 -0.17094363992E+02  0.28688562313E+01  0.17789695711E+02  0.51100000000E-03 0.  1.
         12    1    3    3    0    0 -0.14171958616E+01  0.28961604770E+02 -0.15517226206E+02  0.32887190578E+02  0.00000000000E+00 0. -1.
</event>
<event>
 7    1  0.3758561E-013  0.7246160E+02  0.7816164E-02  0.1226708E+00
        -11   -1    0    0    0    0  0.00000000000E+00  0.00000000000E+00  0.45593999997E+02  0.45594000000E+02  0.51100000000E-03 0. -1.
         11   -1    0    0    0    0 -0.00000000000E+00 -0.00000000000E+00 -0.45593999997E+02  0.45594000000E+02  0.51100000000E-03 0.  1.
    9900012    2    1    2    0    0  0.32265618888E+01 -0.18138062384E+02  0.33583081858E+01  0.72461595045E+02  0.70000032243E+02 0.  0.
        -12    1    1    2    0    0 -0.32265618888E+01  0.18138062384E+02 -0.33583081858E+01  0.18726404955E+02  0.00000000000E+00 0.  1.
         11    1    3    3    0    0  0.23189082367E+02  0.77579375565E+01  0.10677618348E+01  0.24475686952E+02  0.51100000000E-03 0. -1.
        -11    1    3    3    0    0 -0.29917096620E+01 -0.95665463159E+01 -0.15508220021E+02  0.18465481949E+02  0.51100000000E-03 0.  1.
        -12    1    3    3    0    0 -0.16970810816E+02 -0.16329453624E+02  0.17798766372E+02  0.29520426145E+02  0.00000000000E+00 0.  1.
</event>
<event>
 7    1  0.3758561E-013  0.7246158E+02  0.7816164E-02  0.1226708E+00
        -11   -1    0    0    0    0  0.00000000000E+00  0.00000000000E+00  0.45593999997E+02  0.45594000000E+02  0.51100000000E-03 0. -1.
         11   -1    0    0    0    0 -0.00000000000E+00 -0.00000000000E+00 -0.45593999997E+02  0.45594000000E+02  0.51100000000E-03 0.  1.
    9900012    2    1    2    0    0 -0.15091895617E+02  0.10081775117E+02 -0.46120948270E+01  0.72461576916E+02  0.70000008626E+02 0.  0.
        -12    1    1    2    0    0  0.15091895617E+02 -0.10081775117E+02  0.46120948270E+01  0.18726423084E+02  0.00000000000E+00 0.  1.
         11    1    3    3    0    0 -0.78629642793E+01 -0.11539826010E+02 -0.21089201729E+02  0.25293244580E+02  0.51100000000E-03 0. -1.
        -11    1    3    3    0    0 -0.60629556082E+01 -0.78053516965E+01  0.14636305070E+02  0.17660814595E+02  0.51100000000E-03 0.  1.
         12    1    3    3    0    0 -0.11659757295E+01  0.29426952823E+02  0.18408018318E+01  0.29507517741E+02  0.00000000000E+00 0. -1.
</event>
<event>
 7    1  0.3758561E-013  0.7246158E+02  0.7816164E-02  0.1226708E+00
        -11   -1    0    0    0    0  0.00000000000E+00  0.00000000000E+00  0.45593999997E+02  0.45594000000E+02  0.51100000000E-03 0. -1.
         11   -1    0    0    0    0 -0.00000000000E+00 -0.00000000000E+00 -0.45593999997E+02  0.45594000000E+02  0.51100000000E-03 0.  1.
    9900012    2    1    2    0    0 -0.79345712549E+01  0.16586034294E+02  0.35531377213E+01  0.72461581702E+02  0.70000014861E+02 0.  0.
        -12    1    1    2    0    0  0.79345712549E+01 -0.16586034294E+02 -0.35531377213E+01  0.18726418298E+02  0.00000000000E+00 0.  1.
         11    1    3    3    0    0  0.21522106792E+02  0.11983872664E+00  0.23933255736E+01  0.21655102162E+02  0.51100000000E-03 0. -1.
        -11    1    3    3    0    0  0.50552576669E+01  0.26024441682E+01 -0.10405293847E+02  0.11857423246E+02  0.51100000000E-03 0.  1.
        -12    1    3    3    0    0 -0.34511935714E+02  0.13863751399E+02  0.11565105994E+02  0.38949056294E+02  0.00000000000E+00 0.  1.
</event>
<event>
 7    1  0.3758561E-013  0.7246158E+02  0.7816164E-02  0.1226708E+00
        -11   -1    0    0    0    0  0.00000000000E+00  0.00000000000E+00  0.45593999997E+02  0.45594000000E+02  0.51100000000E-03 0.  1.
         11   -1    0    0    0    0 -0.00000000000E+00 -0.00000000000E+00 -0.45593999997E+02  0.45594000000E+02  0.51100000000E-03 0. -1.
    9900012    2    1    2    0    0  0.14014561957E+02  0.46044000503E+00  0.12412042217E+02  0.72461581660E+02  0.70000014806E+02 0.  0.
        -12    1    1    2    0    0 -0.14014561957E+02 -0.46044000503E+00 -0.12412042217E+02  0.18726418340E+02  0.00000000000E+00 0.  1.
         11    1    3    3    0    0 -0.62746421583E+01 -0.66553582441E+01  0.12144947201E+02  0.15204100445E+02  0.51100000000E-03 0. -1.
        -11    1    3    3    0    0  0.47050718803E+01 -0.58701392527E+01  0.24514931792E+02  0.25643286008E+02  0.51100000000E-03 0.  1.
         12    1    3    3    0    0  0.15584132235E+02  0.12985937502E+02 -0.24247836776E+02  0.31614195208E+02  0.00000000000E+00 0. -1.
</event>
<event>
 7    1  0.3758561E-013  0.7246143E+02  0.7816164E-02  0.1226708E+00
        -11   -1    0    0    0    0  0.00000000000E+00  0.00000000000E+00  0.45593999997E+02  0.45594000000E+02  0.51100000000E-03 0. -1.
         11   -1    0    0    0    0 -0.00000000000E+00 -0.00000000000E+00 -0.45593999997E+02  0.45594000000E+02  0.51100000000E-03 0.  1.
    9900012    2    1    2    0    0  0.57871071626E+01  0.11414285311E+02  0.13671421486E+02  0.72461433739E+02  0.69999822111E+02 0.  0.
        -12    1    1    2    0    0 -0.57871071626E+01 -0.11414285311E+02 -0.13671421486E+02  0.18726566261E+02  0.00000000000E+00 0.  1.
         11    1    3    3    0    0 -0.18186445249E+02  0.12565781433E+02  0.93915967649E+01  0.24017654837E+02  0.51100000000E-03 0. -1.
        -11    1    3    3    0    0  0.18461677620E+02  0.19328469100E+02  0.51364907699E+01  0.27217766183E+02  0.51100000000E-03 0.  1.
         12    1    3    3    0    0  0.55118747908E+01 -0.20479965222E+02 -0.85666604840E+00  0.21226012719E+02  0.00000000000E+00 0. -1.
</event>
<event>
 7    1  0.3758561E-013  0.7246164E+02  0.7816164E-02  0.1226708E+00
        -11   -1    0    0    0    0  0.00000000000E+00  0.00000000000E+00  0.45593999997E+02  0.45594000000E+02  0.51100000000E-03 0. -1.
         11   -1    0    0    0    0 -0.00000000000E+00 -0.00000000000E+00 -0.45593999997E+02  0.45594000000E+02  0.51100000000E-03 0.  1.
    9900012    2    1    2    0    0 -0.10128690677E+01  0.17896540312E+02 -0.54188911756E+01  0.72461643161E+02  0.70000094922E+02 0.  0.
        -12    1    1    2    0    0  0.10128690677E+01 -0.17896540312E+02  0.54188911756E+01  0.18726356839E+02  0.00000000000E+00 0.  1.
         11    1    3    3    0    0 -0.12855224135E+02 -0.10871742888E+02  0.20479793658E+02  0.26511762098E+02  0.51100000000E-03 0. -1.
        -11    1    3    3    0    0 -0.12110027611E+01 -0.20956828431E+01  0.13387144828E+01  0.27659665569E+01  0.51100000000E-03 0.  1.
        -12    1    3    3    0    0  0.13053357829E+02  0.30863966044E+02 -0.27237399316E+02  0.43183914506E+02  0.00000000000E+00 0.  1.
</event>
<event>
 7    1  0.3758561E-013  0.7246156E+02  0.7816164E-02  0.1226708E+00
        -11   -1    0    0    0    0  0.00000000000E+00  0.00000000000E+00  0.45593999997E+02  0.45594000000E+02  0.51100000000E-03 0. -1.
         11   -1    0    0    0    0 -0.00000000000E+00 -0.00000000000E+00 -0.45593999997E+02  0.45594000000E+02  0.51100000000E-03 0.  1.
    9900012    2    1    2    0    0 -0.15695281632E+02 -0.98083331116E+01  0.28520578795E+01  0.72461561522E+02  0.69999988572E+02 0.  0.
        -12    1    1    2    0    0  0.15695281632E+02  0.98083331116E+01 -0.28520578795E+01  0.18726438478E+02  0.00000000000E+00 0.  1.
         11    1    3    3    0    0  0.98256837029E+01  0.87904716833E+01  0.29119700719E+01  0.13501704433E+02  0.51100000000E-03 0. -1.
        -11    1    3    3    0    0 -0.17536170349E+02  0.13597888819E+02 -0.99869057276E+01  0.24334299602E+02  0.51100000000E-03 0.  1.
        -12    1    3    3    0    0 -0.79847949854E+01 -0.32196693614E+02  0.99269935352E+01  0.34625557486E+02  0.00000000000E+00 0.  1.
</event>
<event>
 7    1  0.3758561E-013  0.7246157E+02  0.7816164E-02  0.1226708E+00
        -11   -1    0    0    0    0  0.00000000000E+00  0.00000000000E+00  0.45593999997E+02  0.45594000000E+02  0.51100000000E-03 0.  1.
         11   -1    0    0    0    0 -0.00000000000E+00 -0.00000000000E+00 -0.45593999997E+02  0.45594000000E+02  0.51100000000E-03 0. -1.
    9900012    2    1    2    0    0  0.17207419246E+02  0.73497182685E+01 -0.75210797678E+00  0.72461566753E+02  0.69999995387E+02 0.  0.
        -12    1    1    2    0    0 -0.17207419246E+02 -0.73497182685E+01  0.75210797678E+00  0.18726433247E+02  0.00000000000E+00 0.  1.
         11    1    3    3    0    0 -0.45594336774E+01  0.23386706696E+02 -0.32353090528E+00  0.23829208087E+02  0.51100000000E-03 0. -1.
        -11    1    3    3    0    0  0.29836977688E+00  0.72505518293E+01  0.12474422382E+02  0.14431588284E+02  0.51100000000E-03 0.  1.
        -12    1    3    3    0    0  0.21468483147E+02 -0.23287540257E+02 -0.12902999454E+02  0.34200770382E+02  0.00000000000E+00 0.  1.
</event>
<event>
 7    1  0.3758561E-013  0.7246159E+02  0.7816164E-02  0.1226708E+00
        -11   -1    0    0    0    0  0.00000000000E+00  0.00000000000E+00  0.45593999997E+02  0.45594000000E+02  0.51100000000E-03 0.  1.
         11   -1    0    0    0    0 -0.00000000000E+00 -0.00000000000E+00 -0.45593999997E+02  0.45594000000E+02  0.51100000000E-03 0. -1.
    9900012    2    1    2    0    0 -0.61530281784E+00 -0.15801565823E+02 -0.10030470782E+02  0.72461590197E+02  0.70000025927E+02 0.  0.
        -12    1    1    2    0    0  0.61530281784E+00  0.15801565823E+02  0.10030470782E+02  0.18726409803E+02  0.00000000000E+00 0.  1.
         11    1    3    3    0    0 -0.36931881063E+01  0.30661212225E+01 -0.15739880019E+02  0.16455532839E+02  0.51100000000E-03 0. -1.
        -11    1    3    3    0    0  0.19358437422E+02  0.48149192470E+01 -0.10982256388E+02  0.22771528328E+02  0.51100000000E-03 0.  1.
         12    1    3    3    0    0 -0.16280552133E+02 -0.23682606292E+02  0.16691665624E+02  0.33234529030E+02  0.00000000000E+00 0. -1.
</event>
<event>
 7    1  0.3758561E-013  0.7246163E+02  0.7816164E-02  0.1226708E+00
        -11   -1    0    0    0    0  0.00000000000E+00  0.00000000000E+00  0.45593999997E+02  0.45594000000E+02  0.51100000000E-03 0. -1.
         11   -1    0    0    0    0 -0.00000000000E+00 -0.00000000000E+00 -0.45593999997E+02  0.45594000000E+02  0.51100000000E-03 0.  1.
    9900012    2    1    2    0    0 -0.56500578405E+01 -0.10897118617E+02  0.14142362381E+02  0.72461634590E+02  0.70000083757E+02 0.  0.
        -12    1    1    2    0    0  0.56500578405E+01  0.10897118617E+02 -0.14142362381E+02  0.18726365410E+02  0.00000000000E+00 0.  1.
         11    1    3    3    0    0 -0.16669865252E+02 -0.20321076831E+02  0.13368639024E+02  0.29488151530E+02  0.51100000000E-03 0. -1.
        -11    1    3    3    0    0 -0.80219823914E+01 -0.53169798985E+00 -0.14521410693E+02  0.16598381638E+02  0.51100000000E-03 0.  1.
        -12    1    3    3    0    0  0.19041789803E+02  0.99556562035E+01  0.15295134051E+02  0.26375101421E+02  0.00000000000E+00 0.  1.
</event>
<event>
 7    1  0.3758561E-013  0.7246134E+02  0.7816164E-02  0.1226709E+00
        -11   -1    0    0    0    0  0.00000000000E+00  0.00000000000E+00  0.45593999997E+02  0.45594000000E+02  0.51100000000E-03 0. -1.
         11   -1    0    0    0    0 -0.00000000000E+00 -0.00000000000E+00 -0.45593999997E+02  0.45594000000E+02  0.51100000000E-03 0.  1.
    9900012    2    1    2    0    0 -0.25925809136E+01 -0.12115992705E+01  0.18506713716E+02  0.72461337159E+02  0.69999696297E+02 0.  0.
        -12    1    1    2    0    0  0.25925809136E+01  0.12115992705E+01 -0.18506713716E+02  0.18726662841E+02  0.00000000000E+00 0.  1.
         11    1    3    3    0    0  0.24984477826E+01  0.26696588483E+02  0.15084378290E+02  0.30765053983E+02  0.51100000000E-03 0. -1.
        -11    1    3    3    0    0 -0.10009958061E+00  0.53759302565E+01 -0.46238805648E+01  0.70916089703E+01  0.51100000000E-03 0.  1.
         12    1    3    3    0    0 -0.49909291156E+01 -0.33284118010E+02  0.80462159907E+01  0.34604674206E+02  0.00000000000E+00 0. -1.
</event>
<event>
 7    1  0.3758561E-013  0.7246157E+02  0.7816164E-02  0.1226708E+00
        -11   -1    0    0    0    0  0.00000000000E+00  0.00000000000E+00  0.45593999997E+02  0.45594000000E+02  0.51100000000E-03 0. -1.
         11   -1    0    0    0    0 -0.00000000000E+00 -0.00000000000E+00 -0.45593999997E+02  0.45594000000E+02  0.51100000000E-03 0.  1.
    9900012    2    1    2    0    0  0.97183979251E+01  0.11103054345E+02  0.11530571470E+02  0.72461570751E+02  0.70000000594E+02 0.  0.
        -12    1    1    2    0    0 -0.97183979251E+01 -0.11103054345E+02 -0.11530571470E+02  0.18726429249E+02  0.00000000000E+00 0.  1.
         11    1    3    3    0    0  0.21824798354E+01  0.59866851711E+00  0.11847400051E+02  0.12061613095E+02  0.51100000000E-03 0. -1.
        -11    1    3    3    0    0  0.20905464856E+02 -0.18685324544E+02  0.26148430273E+01  0.28160561403E+02  0.51100000000E-03 0.  1.
         12    1    3    3    0    0 -0.13369546767E+02  0.29189710372E+02 -0.29316716084E+01  0.32239396253E+02  0.00000000000E+00 0. -1.
</event>
<event>
 7    1  0.3758561E-013  0.7246159E+02  0.7816164E-02  0.1226708E+00
        -11   -1    0    0    0    0  0.00000000000E+00  0.00000000000E+00  0.45593999997E+02  0.45594000000E+02  0.51100000000E-03 0.  1.
         11   -1    0    0    0    0 -0.00000000000E+00 -0.00000000000E+00 -0.45593999997E+02  0.45594000000E+02  0.51100000000E-03 0. -1.
    9900012    2    1    2    0    0 -0.13285632834E+01  0.14201732485E+02 -0.12133599167E+02  0.72461587778E+02  0.70000022775E+02 0.  0.
        -12    1    1    2    0    0  0.13285632834E+01 -0.14201732485E+02  0.12133599167E+02  0.18726412222E+02  0.00000000000E+00 0.  1.
         11    1    3    3    0    0 -0.49023227740E+01 -0.79742657355E+01 -0.25182728655E+02  0.26866177721E+02  0.51100000000E-03 0. -1.
        -11    1    3    3    0    0 -0.14008830606E+02  0.31970681478E+01 -0.36208708388E+01  0.14818207907E+02  0.51100000000E-03 0.  1.
        -12    1    3    3    0    0  0.17582590097E+02  0.18978930073E+02  0.16670000326E+02  0.30777202149E+02  0.00000000000E+00 0.  1.
</event>
<event>
 7    1  0.3758561E-013  0.7246156E+02  0.7816164E-02  0.1226708E+00
        -11   -1    0    0    0    0  0.00000000000E+00  0.00000000000E+00  0.45593999997E+02  0.45594000000E+02  0.51100000000E-03 0.  1.
         11   -1    0    0    0    0 -0.00000000000E+00 -0.00000000000E+00 -0.45593999997E+02  0.45594000000E+02  0.51100000000E-03 0. -1.
    9900012    2    1    2    0    0 -0.23345135409E+01  0.30360108613E+01 -0.18330631767E+02  0.72461564771E+02  0.69999992804E+02 0.  0.
        -12    1    1    2    0    0  0.23345135409E+01 -0.30360108613E+01  0.18330631767E+02  0.18726435229E+02  0.00000000000E+00 0.  1.
         11    1    3    3    0    0  0.10803354111E+02  0.28325408600E+02 -0.20555985325E+02  0.36627718539E+02  0.51100000000E-03 0. -1.
        -11    1    3    3    0    0 -0.42446408425E+01  0.28448555370E+01 -0.29153977829E+01  0.58830029238E+01  0.51100000000E-03 0.  1.
        -12    1    3    3    0    0 -0.88932268097E+01 -0.28134253276E+02  0.51407513410E+01  0.29950843308E+02  0.00000000000E+00 0.  1.
</event>
<event>
 7    1  0.3758561E-013  0.7246158E+02  0.7816164E-02  0.1226708E+00
        -11   -1    0    0    0    0  0.00000000000E+00  0.00000000000E+00  0.45593999997E+02  0.45594000000E+02  0.51100000000E-03 0.  1.
         11   -1    0    0    0    0 -0.00000000000E+00 -0.00000000000E+00 -0.45593999997E+02  0.45594000000E+02  0.51100000000E-03 0. -1.
    9900012    2    1    2    0    0  0.16418090291E+02  0.80002219449E+01  0.41378343707E+01  0.72461577137E+02  0.70000008914E+02 0.  0.
        -12    1    1    2    0    0 -0.16418090291E+02 -0.80002219449E+01 -0.41378343707E+01  0.18726422863E+02  0.00000000000E+00 0.  1.
         11    1    3    3    0    0  0.23336317248E+02 -0.18569951133E+01 -0.16966336672E+02  0.28911740070E+02  0.51100000000E-03 0. -1.
        -11    1    3    3    0    0  0.55221115969E+01 -0.10750919324E+02  0.13907036054E+02  0.18425027405E+02  0.51100000000E-03 0.  1.
        -12    1    3    3    0    0 -0.12440338554E+02  0.20608136382E+02  0.71971349888E+01  0.25124809662E+02  0.00000000000E+00 0.  1.
</event>
<event>
 7    1  0.3758561E-013  0.7246095E+02  0.7816164E-02  0.1226710E+00
        -11   -1    0    0    0    0  0.00000000000E+00  0.00000000000E+00  0.45593999997E+02  0.45594000000E+02  0.51100000000E-03 0.  1.
         11   -1    0    0    0    0 -0.00000000000E+00 -0.00000000000E+00 -0.45593999997E+02  0.45594000000E+02  0.51100000000E-03 0. -1.
    9900012    2    1    2    0    0 -0.12933901626E+02 -0.71326103941E+01 -0.11512712370E+02  0.72460947685E+02  0.69999188931E+02 0.  0.
        -12    1    1    2    0    0  0.12933901626E+02  0.71326103941E+01  0.11512712370E+02  0.18727052315E+02  0.00000000000E+00 0.  1.
         11    1    3    3    0    0  0.78082915332E+01 -0.79808754813E+01 -0.15043157820E+02  0.18733936788E+02  0.51100000000E-03 0. -1.
        -11    1    3    3    0    0 -0.21527362861E+01 -0.21444449518E+02 -0.72864037628E+01  0.22750612491E+02  0.51100000000E-03 0.  1.
         12    1    3    3    0    0 -0.18589456873E+02  0.22292714605E+02  0.10816849213E+02  0.30976398406E+02  0.00000000000E+00 0. -1.
</event>
<event>
 7    1  0.3758561E-013  0.7246162E+02  0.7816164E-02  0.1226708E+00
        -11   -1    0    0    0    0  0.00000000000E+00  0.00000000000E+00  0.45593999997E+02  0.45594000000E+02  0.51100000000E-03 0.  1.
         11   -1    0    0    0    0 -0.00000000000E+00 -0.00000000000E+00 -0.45593999997E+02  0.45594000000E+02  0.51100000000E-03 0. -1.
    9900012    2    1    2    0    0  0.32845991875E+01  0.15698661494E+02 -0.96664751718E+01  0.72461620030E+02  0.70000064790E+02 0.  0.
        -12    1    1    2    0    0 -0.32845991875E+01 -0.15698661494E+02  0.96664751718E+01  0.18726379970E+02  0.00000000000E+00 0.  1.
         11    1    3    3    0    0  0.21056537457E+02  0.91236072282E+01 -0.29741217286E+01  0.23140081651E+02  0.51100000000E-03 0. -1.
        -11    1    3    3    0    0 -0.51698614050E+01  0.23030823606E+02  0.68316863969E+01  0.24572713367E+02  0.51100000000E-03 0.  1.
         12    1    3    3    0    0 -0.12602076864E+02 -0.16455769340E+02 -0.13524039840E+02  0.24748825012E+02  0.00000000000E+00 0. -1.
</event>
<event>
 7    1  0.3758561E-013  0.7246156E+02  0.7816164E-02  0.1226708E+00
        -11   -1    0    0    0    0  0.00000000000E+00  0.00000000000E+00  0.45593999997E+02  0.45594000000E+02  0.51100000000E-03 0.  1.
         11   -1    0    0    0    0 -0.00000000000E+00 -0.00000000000E+00 -0.45593999997E+02  0.45594000000E+02  0.51100000000E-03 0. -1.
    9900012    2    1    2    0    0 -0.12653682492E+02  0.13802786359E+02  0.21629864165E+00  0.72461564755E+02  0.69999992784E+02 0.  0.
        -12    1    1    2    0    0  0.12653682492E+02 -0.13802786359E+02 -0.21629864165E+00  0.18726435245E+02  0.00000000000E+00 0.  1.
         11    1    3    3    0    0 -0.10293623127E+02  0.15662723994E+02 -0.96485126116E+01  0.21080165936E+02  0.51100000000E-03 0. -1.
        -11    1    3    3    0    0 -0.26103005191E+02 -0.29931620983E+01  0.83257955329E+01  0.27561653993E+02  0.51100000000E-03 0.  1.
         12    1    3    3    0    0  0.23742945826E+02  0.11332244626E+01  0.15390157204E+01  0.23819744825E+02  0.00000000000E+00 0. -1.
</event>
<event>
 7    1  0.3758561E-013  0.7246157E+02  0.7816164E-02  0.1226708E+00
        -11   -1    0    0    0    0  0.00000000000E+00  0.00000000000E+00  0.45593999997E+02  0.45594000000E+02  0.51100000000E-03 0.  1.
         11   -1    0    0    0    0 -0.00000000000E+00 -0.00000000000E+00 -0.45593999997E+02  0.45594000000E+02  0.51100000000E-03 0. -1.
    9900012    2    1    2    0    0  0.22360026210E+01  0.13320331415E+01 -0.18544680392E+02  0.72461569725E+02  0.69999999258E+02 0.  0.
        -12    1    1    2    0    0 -0.22360026210E+01 -0.13320331415E+01  0.18544680392E+02  0.18726430275E+02  0.00000000000E+00 0.  1.
         11    1    3    3    0    0  0.15200566406E+02 -0.10716647505E+02 -0.12380394222E+02  0.22342289815E+02  0.51100000000E-03 0. -1.
        -11    1    3    3    0    0  0.20263836060E+01 -0.80364557698E+01  0.15117184901E+02  0.17240073418E+02  0.51100000000E-03 0.  1.
        -12    1    3    3    0    0 -0.14990947391E+02  0.20085136417E+02 -0.21281471071E+02  0.32879206492E+02  0.00000000000E+00 0.  1.
</event>
<event>
 7    1  0.3758561E-013  0.7246121E+02  0.7816164E-02  0.1226709E+00
        -11   -1    0    0    0    0  0.00000000000E+00  0.00000000000E+00  0.45593999997E+02  0.45594000000E+02  0.51100000000E-03 0.  1.
         11   -1    0    0    0    0 -0.00000000000E+00 -0.00000000000E+00 -0.45593999997E+02  0.45594000000E+02  0.51100000000E-03 0. -1.
    9900012    2    1    2    0    0 -0.84057669455E+01  0.62342374399E+01 -0.15529653524E+02  0.72461207083E+02  0.69999526848E+02 0.  0.
        -12    1    1    2    0    0  0.84057669455E+01 -0.62342374399E+01  0.15529653524E+02  0.18726792917E+02  0.00000000000E+00 0.  1.
         11    1    3    3    0    0  0.88408277432E+00  0.17524562405E+02 -0.68045238352E+01  0.18820027490E+02  0.51100000000E-03 0. -1.
        -11    1    3    3    0    0  0.13363039053E+02  0.72203345981E+01  0.10651921219E+02  0.18551751140E+02  0.51100000000E-03 0.  1.
         12    1    3    3    0    0 -0.22652888773E+02 -0.18510659563E+02 -0.19377050908E+02  0.35089428452E+02  0.00000000000E+00 0. -1.
</event>
<event>
 7    1  0.3758561E-013  0.7246166E+02  0.7816164E-02  0.1226708E+00
        -11   -1    0    0    0    0  0.00000000000E+00  0.00000000000E+00  0.45593999997E+02  0.45594000000E+02  0.51100000000E-03 0. -1.
         11   -1    0    0    0    0 -0.00000000000E+00 -0.00000000000E+00 -0.45593999997E+02  0.45594000000E+02  0.51100000000E-03 0.  1.
    9900012    2    1    2    0    0  0.17352458955E+01  0.12594943560E+02  0.13748901663E+02  0.72461655494E+02  0.70000110989E+02 0.  0.
        -12    1    1    2    0    0 -0.17352458955E+01 -0.12594943560E+02 -0.13748901663E+02  0.18726344506E+02  0.00000000000E+00 0.  1.
         11    1    3    3    0    0 -0.12626272630E+02  0.26788453492E+02 -0.20291396877E+01  0.29684363041E+02  0.51100000000E-03 0. -1.
        -11    1    3    3    0    0 -0.48119602026E+01  0.10119802127E+01  0.17565824334E+02  0.18241086857E+02  0.51100000000E-03 0.  1.
        -12    1    3    3    0    0  0.19173478728E+02 -0.15205490144E+02 -0.17877829830E+01  0.24536205596E+02  0.00000000000E+00 0.  1.
</event>
<event>
 7    1  0.3758561E-013  0.7246156E+02  0.7816164E-02  0.1226708E+00
        -11   -1    0    0    0    0  0.00000000000E+00  0.00000000000E+00  0.45593999997E+02  0.45594000000E+02  0.51100000000E-03 0.  1.
         11   -1    0    0    0    0 -0.00000000000E+00 -0.00000000000E+00 -0.45593999997E+02  0.45594000000E+02  0.51100000000E-03 0. -1.
    9900012    2    1    2    0    0  0.33774235280E+01  0.81372801377E+01 -0.16524442297E+02  0.72461561178E+02  0.69999988125E+02 0.  0.
        -12    1    1    2    0    0 -0.33774235280E+01 -0.81372801377E+01  0.16524442297E+02  0.18726438822E+02  0.00000000000E+00 0.  1.
         11    1    3    3    0    0  0.32677002202E+02  0.14693783455E+02 -0.15166935131E+02  0.38906678947E+02  0.51100000000E-03 0. -1.
        -11    1    3    3    0    0 -0.49790788146E+01  0.78408614647E+00 -0.58870771123E+01  0.77500770392E+01  0.51100000000E-03 0.  1.
        -12    1    3    3    0    0 -0.24320499859E+02 -0.73405894642E+01  0.45295699470E+01  0.25804805192E+02  0.00000000000E+00 0.  1.
</event>
<event>
 7    1  0.3758561E-013  0.7246153E+02  0.7816164E-02  0.1226708E+00
        -11   -1    0    0    0    0  0.00000000000E+00  0.00000000000E+00  0.45593999997E+02  0.45594000000E+02  0.51100000000E-03 0.  1.
         11   -1    0    0    0    0 -0.00000000000E+00 -0.00000000000E+00 -0.45593999997E+02  0.45594000000E+02  0.51100000000E-03 0. -1.
    9900012    2    1    2    0    0 -0.10167187039E+02  0.11097785590E+02 -0.11142174929E+02  0.72461532115E+02  0.69999950264E+02 0.  0.
        -12    1    1    2    0    0  0.10167187039E+02 -0.11097785590E+02  0.11142174929E+02  0.18726467885E+02  0.00000000000E+00 0.  1.
         11    1    3    3    0    0 -0.96645867634E+01  0.16906633088E+01 -0.30151884773E+02  0.31708023201E+02  0.51100000000E-03 0. -1.
        -11    1    3    3    0    0 -0.13994568911E+01  0.15848594105E+02 -0.43590818950E+01  0.16496606012E+02  0.51100000000E-03 0.  1.
        -12    1    3    3    0    0  0.89685661512E+00 -0.64414718236E+01  0.23368791739E+02  0.24256902901E+02  0.00000000000E+00 0.  1.
</event>
<event>
 7    1  0.3758561E-013  0.7246156E+02  0.7816164E-02  0.1226708E+00
        -11   -1    0    0    0    0  0.00000000000E+00  0.00000000000E+00  0.45593999997E+02  0.45594000000E+02  0.51100000000E-03 0.  1.
         11   -1    0    0    0    0 -0.00000000000E+00 -0.00000000000E+00 -0.45593999997E+02  0.45594000000E+02  0.51100000000E-03 0. -1.
    9900012    2    1    2    0    0  0.36296612633E+01 -0.89519983968E+01 -0.16042654279E+02  0.72461562205E+02  0.69999989462E+02 0.  0.
        -12    1    1    2    0    0 -0.36296612633E+01  0.89519983968E+01  0.16042654279E+02  0.18726437795E+02  0.00000000000E+00 0.  1.
         11    1    3    3    0    0  0.15265646467E+02  0.48064150101E+01  0.87486155334E+00  0.16028317763E+02  0.51100000000E-03 0. -1.
        -11    1    3    3    0    0 -0.71678358053E+01 -0.48276845425E+01 -0.34851200516E+02  0.35906692773E+02  0.51100000000E-03 0.  1.
         12    1    3    3    0    0 -0.44681493983E+01 -0.89307288644E+01  0.17933684684E+02  0.20526551669E+02  0.00000000000E+00 0. -1.
</event>
<event>
 7    1  0.3758561E-013  0.7246159E+02  0.7816164E-02  0.1226708E+00
        -11   -1    0    0    0    0  0.00000000000E+00  0.00000000000E+00  0.45593999997E+02  0.45594000000E+02  0.51100000000E-03 0.  1.
         11   -1    0    0    0    0 -0.00000000000E+00 -0.00000000000E+00 -0.45593999997E+02  0.45594000000E+02  0.51100000000E-03 0. -1.
    9900012    2    1    2    0    0 -0.18352643271E+01 -0.17617280894E+02 -0.60779552542E+01  0.72461592942E+02  0.70000029502E+02 0.  0.
        -12    1    1    2    0    0  0.18352643271E+01  0.17617280894E+02  0.60779552542E+01  0.18726407058E+02  0.00000000000E+00 0.  1.
         11    1    3    3    0    0  0.18198506265E+01 -0.13122266191E+02  0.13514535173E+02  0.18924808783E+02  0.51100000000E-03 0.  1.
        -11    1    3    3    0    0 -0.17993408726E+02 -0.10823768522E+02 -0.28584057503E+02  0.35467803233E+02  0.51100000000E-03 0. -1.
         12    1    3    3    0    0  0.14338293772E+02  0.63287538186E+01  0.89915670758E+01  0.18068980925E+02  0.00000000000E+00 0. -1.
</event>
<event>
 7    1  0.3758561E-013  0.7246165E+02  0.7816164E-02  0.1226708E+00
        -11   -1    0    0    0    0  0.00000000000E+00  0.00000000000E+00  0.45593999997E+02  0.45594000000E+02  0.51100000000E-03 0.  1.
         11   -1    0    0    0    0 -0.00000000000E+00 -0.00000000000E+00 -0.45593999997E+02  0.45594000000E+02  0.51100000000E-03 0. -1.
    9900012    2    1    2    0    0 -0.13312918140E+02 -0.10986537104E+02 -0.72621251205E+01  0.72461648294E+02  0.70000101609E+02 0.  0.
        -12    1    1    2    0    0  0.13312918140E+02  0.10986537104E+02  0.72621251205E+01  0.18726351706E+02  0.00000000000E+00 0.  1.
         11    1    3    3    0    0 -0.41899073557E+01 -0.11043807389E+02 -0.20382259077E+02  0.23557535751E+02  0.51100000000E-03 0. -1.
        -11    1    3    3    0    0 -0.15116803658E+02 -0.19525650797E+02  0.14036273414E+02  0.28403974431E+02  0.51100000000E-03 0.  1.
         12    1    3    3    0    0  0.59937928733E+01  0.19582921082E+02 -0.91613945700E+00  0.20500138112E+02  0.00000000000E+00 0. -1.
</event>
<event>
 7    1  0.3758561E-013  0.7246156E+02  0.7816164E-02  0.1226708E+00
        -11   -1    0    0    0    0  0.00000000000E+00  0.00000000000E+00  0.45593999997E+02  0.45594000000E+02  0.51100000000E-03 0.  1.
         11   -1    0    0    0    0 -0.00000000000E+00 -0.00000000000E+00 -0.45593999997E+02  0.45594000000E+02  0.51100000000E-03 0. -1.
    9900012    2    1    2    0    0  0.15343485690E+02  0.21501265147E+01 -0.10518270592E+02  0.72461558443E+02  0.69999984561E+02 0.  0.
        -12    1    1    2    0    0 -0.15343485690E+02 -0.21501265147E+01  0.10518270592E+02  0.18726441557E+02  0.00000000000E+00 0.  1.
         11    1    3    3    0    0 -0.16504095888E+02  0.15812984681E+01 -0.15208564839E+02  0.22498580636E+02  0.51100000000E-03 0. -1.
        -11    1    3    3    0    0 -0.65520715921E+01  0.43361695624E+01  0.80303039925E+01  0.11234669158E+02  0.51100000000E-03 0.  1.
         12    1    3    3    0    0  0.38399653170E+02 -0.37673415158E+01 -0.33400097452E+01  0.38728308649E+02  0.00000000000E+00 0. -1.
</event>
<event>
 7    1  0.3758561E-013  0.7246159E+02  0.7816164E-02  0.1226708E+00
        -11   -1    0    0    0    0  0.00000000000E+00  0.00000000000E+00  0.45593999997E+02  0.45594000000E+02  0.51100000000E-03 0.  1.
         11   -1    0    0    0    0 -0.00000000000E+00 -0.00000000000E+00 -0.45593999997E+02  0.45594000000E+02  0.51100000000E-03 0. -1.
    9900012    2    1    2    0    0  0.17163206964E+02 -0.15876356698E+01 -0.73199958755E+01  0.72461585503E+02  0.70000019812E+02 0.  0.
        -12    1    1    2    0    0 -0.17163206964E+02  0.15876356698E+01  0.73199958755E+01  0.18726414497E+02  0.00000000000E+00 0.  1.
         11    1    3    3    0    0  0.20640253177E+02 -0.17842128221E+01 -0.90954854302E+01  0.22625899365E+02  0.51100000000E-03 0. -1.
        -11    1    3    3    0    0  0.17111362535E+02  0.16312585573E+02  0.19110593270E+00  0.23641820946E+02  0.51100000000E-03 0.  1.
        -12    1    3    3    0    0 -0.20588408749E+02 -0.16116008421E+02  0.15843836220E+01  0.26193865192E+02  0.00000000000E+00 0.  1.
</event>
<event>
 7    1  0.3758561E-013  0.7246160E+02  0.7816164E-02  0.1226708E+00
        -11   -1    0    0    0    0  0.00000000000E+00  0.00000000000E+00  0.45593999997E+02  0.45594000000E+02  0.51100000000E-03 0.  1.
         11   -1    0    0    0    0 -0.00000000000E+00 -0.00000000000E+00 -0.45593999997E+02  0.45594000000E+02  0.51100000000E-03 0. -1.
    9900012    2    1    2    0    0  0.32066635203E+01  0.46223987551E+01 -0.17861376712E+02  0.72461600474E+02  0.70000039314E+02 0.  0.
        -12    1    1    2    0    0 -0.32066635203E+01 -0.46223987551E+01  0.17861376712E+02  0.18726399526E+02  0.00000000000E+00 0.  1.
         11    1    3    3    0    0  0.10700716395E+02 -0.52824782437E+01  0.55394142155E+01  0.13156557979E+02  0.51100000000E-03 0. -1.
        -11    1    3    3    0    0 -0.78310142633E+01  0.14650488815E+02  0.13925521182E+02  0.21676755924E+02  0.51100000000E-03 0.  1.
         12    1    3    3    0    0  0.33696138886E+00 -0.47456118167E+01 -0.37326312110E+02  0.37628286570E+02  0.00000000000E+00 0. -1.
</event>
<event>
 7    1  0.3758561E-013  0.7246172E+02  0.7816164E-02  0.1226708E+00
        -11   -1    0    0    0    0  0.00000000000E+00  0.00000000000E+00  0.45593999997E+02  0.45594000000E+02  0.51100000000E-03 0.  1.
         11   -1    0    0    0    0 -0.00000000000E+00 -0.00000000000E+00 -0.45593999997E+02  0.45594000000E+02  0.51100000000E-03 0. -1.
    9900012    2    1    2    0    0 -0.75524141196E+01  0.13564911571E+02 -0.10470335420E+02  0.72461716098E+02  0.70000189936E+02 0.  0.
        -12    1    1    2    0    0  0.75524141196E+01 -0.13564911571E+02  0.10470335420E+02  0.18726283902E+02  0.00000000000E+00 0.  1.
         11    1    3    3    0    0 -0.15788133182E+02  0.18132460049E+02 -0.19628200447E+02  0.31037356683E+02  0.51100000000E-03 0. -1.
        -11    1    3    3    0    0  0.70884603995E+01  0.17045005239E+02  0.17250026695E+01  0.18540607026E+02  0.51100000000E-03 0.  1.
         12    1    3    3    0    0  0.11472586625E+01 -0.21612553716E+02  0.74328623582E+01  0.22883752389E+02  0.00000000000E+00 0. -1.
</event>
<event>
 7    1  0.3758561E-013  0.7246164E+02  0.7816164E-02  0.1226708E+00
        -11   -1    0    0    0    0  0.00000000000E+00  0.00000000000E+00  0.45593999997E+02  0.45594000000E+02  0.51100000000E-03 0.  1.
         11   -1    0    0    0    0 -0.00000000000E+00 -0.00000000000E+00 -0.45593999997E+02  0.45594000000E+02  0.51100000000E-03 0. -1.
    9900012    2    1    2    0    0  0.13548190963E+02  0.42080157169E+01 -0.12223572117E+02  0.72461639170E+02  0.70000089723E+02 0.  0.
        -12    1    1    2    0    0 -0.13548190963E+02 -0.42080157169E+01  0.12223572117E+02  0.18726360830E+02  0.00000000000E+00 0.  1.
         11    1    3    3    0    0  0.90730692904E+01  0.57526238293E+01 -0.81446688784E+01  0.13481427917E+02  0.51100000000E-03 0. -1.
        -11    1    3    3    0    0  0.20780493893E+02 -0.20172143171E+02 -0.14176009456E+02  0.32244434108E+02  0.51100000000E-03 0.  1.
        -12    1    3    3    0    0 -0.16305372221E+02  0.18627535059E+02  0.10097106217E+02  0.26735777146E+02  0.00000000000E+00 0.  1.
</event>
<event>
 7    1  0.3758561E-013  0.7246155E+02  0.7816164E-02  0.1226708E+00
        -11   -1    0    0    0    0  0.00000000000E+00  0.00000000000E+00  0.45593999997E+02  0.45594000000E+02  0.51100000000E-03 0.  1.
         11   -1    0    0    0    0 -0.00000000000E+00 -0.00000000000E+00 -0.45593999997E+02  0.45594000000E+02  0.51100000000E-03 0. -1.
    9900012    2    1    2    0    0 -0.91613599428E+01 -0.11808171441E+02 -0.11283458147E+02  0.72461551951E+02  0.69999976104E+02 0.  0.
        -12    1    1    2    0    0  0.91613599428E+01  0.11808171441E+02  0.11283458147E+02  0.18726448049E+02  0.00000000000E+00 0.  1.
         11    1    3    3    0    0  0.15543696259E+02 -0.21289622815E+01 -0.14530518106E+02  0.21383987712E+02  0.51100000000E-03 0. -1.
        -11    1    3    3    0    0 -0.57975829114E+01 -0.20865832393E+02 -0.11594936490E+02  0.24564964514E+02  0.51100000000E-03 0.  1.
         12    1    3    3    0    0 -0.18907473291E+02  0.11186623233E+02  0.14841996449E+02  0.26512599725E+02  0.00000000000E+00 0. -1.
</event>
<event>
 7    1  0.3758561E-013  0.7246168E+02  0.7816164E-02  0.1226708E+00
        -11   -1    0    0    0    0  0.00000000000E+00  0.00000000000E+00  0.45593999997E+02  0.45594000000E+02  0.51100000000E-03 0.  1.
         11   -1    0    0    0    0 -0.00000000000E+00 -0.00000000000E+00 -0.45593999997E+02  0.45594000000E+02  0.51100000000E-03 0. -1.
    9900012    2    1    2    0    0  0.11619171304E+02 -0.11178983617E+02  0.95236591926E+01  0.72461684267E+02  0.70000148471E+02 0.  0.
        -12    1    1    2    0    0 -0.11619171304E+02  0.11178983617E+02 -0.95236591926E+01  0.18726315733E+02  0.00000000000E+00 0.  1.
         11    1    3    3    0    0 -0.20152023016E+01 -0.12990919286E+02  0.11747710133E+02  0.17630476961E+02  0.51100000000E-03 0. -1.
        -11    1    3    3    0    0  0.27465373637E+02 -0.33217283819E+01  0.15546799039E+02  0.31734580335E+02  0.51100000000E-03 0.  1.
         12    1    3    3    0    0 -0.13831000031E+02  0.51336640513E+01 -0.17770849980E+02  0.23096626971E+02  0.00000000000E+00 0. -1.
</event>
<event>
 7    1  0.3758561E-013  0.7246160E+02  0.7816164E-02  0.1226708E+00
        -11   -1    0    0    0    0  0.00000000000E+00  0.00000000000E+00  0.45593999997E+02  0.45594000000E+02  0.51100000000E-03 0.  1.
         11   -1    0    0    0    0 -0.00000000000E+00 -0.00000000000E+00 -0.45593999997E+02  0.45594000000E+02  0.51100000000E-03 0. -1.
    9900012    2    1    2    0    0  0.40732653949E+00 -0.13513347826E+02  0.12957684664E+02  0.72461599485E+02  0.70000038027E+02 0.  0.
        -12    1    1    2    0    0 -0.40732653949E+00  0.13513347826E+02 -0.12957684664E+02  0.18726400515E+02  0.00000000000E+00 0.  1.
         11    1    3    3    0    0 -0.17449210310E+02 -0.13942651348E+02  0.18424666183E+02  0.28954115273E+02  0.51100000000E-03 0. -1.
        -11    1    3    3    0    0  0.19251546337E+02 -0.81615159687E+01  0.11916254898E+02  0.24067187421E+02  0.51100000000E-03 0.  1.
         12    1    3    3    0    0 -0.13950094875E+01  0.85908194904E+01 -0.17383236417E+02  0.19440296791E+02  0.00000000000E+00 0. -1.
</event>
<event>
 7    1  0.3758561E-013  0.7246159E+02  0.7816164E-02  0.1226708E+00
        -11   -1    0    0    0    0  0.00000000000E+00  0.00000000000E+00  0.45593999997E+02  0.45594000000E+02  0.51100000000E-03 0. -1.
         11   -1    0    0    0    0 -0.00000000000E+00 -0.00000000000E+00 -0.45593999997E+02  0.45594000000E+02  0.51100000000E-03 0.  1.
    9900012    2    1    2    0    0  0.12538221639E+02  0.11455191828E+02  0.78898717455E+01  0.72461588229E+02  0.70000023363E+02 0.  0.
        -12    1    1    2    0    0 -0.12538221639E+02 -0.11455191828E+02 -0.78898717455E+01  0.18726411771E+02  0.00000000000E+00 0.  1.
         11    1    3    3    0    0 -0.87309095474E+01  0.56514775078E+01 -0.10627789504E+02  0.14870033273E+02  0.51100000000E-03 0. -1.
        -11    1    3    3    0    0  0.11005092104E+02  0.26004177192E+02 -0.14401015685E+00  0.28237386969E+02  0.51100000000E-03 0.  1.
         12    1    3    3    0    0  0.10264039082E+02 -0.20200462872E+02  0.18661671406E+02  0.29354167987E+02  0.00000000000E+00 0. -1.
</event>
<event>
 7    1  0.3758561E-013  0.7246162E+02  0.7816164E-02  0.1226708E+00
        -11   -1    0    0    0    0  0.00000000000E+00  0.00000000000E+00  0.45593999997E+02  0.45594000000E+02  0.51100000000E-03 0.  1.
         11   -1    0    0    0    0 -0.00000000000E+00 -0.00000000000E+00 -0.45593999997E+02  0.45594000000E+02  0.51100000000E-03 0. -1.
    9900012    2    1    2    0    0  0.85412749880E+01 -0.21814368008E+01 -0.16521661545E+02  0.72461619006E+02  0.70000063455E+02 0.  0.
        -12    1    1    2    0    0 -0.85412749880E+01  0.21814368008E+01  0.16521661545E+02  0.18726380994E+02  0.00000000000E+00 0.  1.
         11    1    3    3    0    0  0.22879339723E+02 -0.56130543956E+01 -0.25253149695E+02  0.34535375133E+02  0.51100000000E-03 0. -1.
        -11    1    3    3    0    0  0.10258293244E+02  0.76165467887E+00 -0.27548704623E+01  0.10649037969E+02  0.51100000000E-03 0.  1.
        -12    1    3    3    0    0 -0.24596357979E+02  0.26699629159E+01  0.11486358612E+02  0.27277205904E+02  0.00000000000E+00 0.  1.
</event>
<event>
 7    1  0.3758561E-013  0.7246157E+02  0.7816164E-02  0.1226708E+00
        -11   -1    0    0    0    0  0.00000000000E+00  0.00000000000E+00  0.45593999997E+02  0.45594000000E+02  0.51100000000E-03 0.  1.
         11   -1    0    0    0    0 -0.00000000000E+00 -0.00000000000E+00 -0.45593999997E+02  0.45594000000E+02  0.51100000000E-03 0. -1.
    9900012    2    1    2    0    0 -0.10609220581E+02 -0.38831471644E+00 -0.15426367420E+02  0.72461570511E+02  0.70000000282E+02 0.  0.
        -12    1    1    2    0    0  0.10609220581E+02  0.38831471644E+00  0.15426367420E+02  0.18726429489E+02  0.00000000000E+00 0.  1.
         11    1    3    3    0    0  0.16916457941E+02 -0.21336691516E+02 -0.11383553833E+02  0.29512815051E+02  0.51100000000E-03 0. -1.
        -11    1    3    3    0    0 -0.22565749020E+02  0.11892427234E+02 -0.13576027180E+02  0.28895525062E+02  0.51100000000E-03 0.  1.
        -12    1    3    3    0    0 -0.49599295018E+01  0.90559495650E+01  0.95332135934E+01  0.14053230397E+02  0.00000000000E+00 0.  1.
</event>
<event>
 7    1  0.3758561E-013  0.7246156E+02  0.7816164E-02  0.1226708E+00
        -11   -1    0    0    0    0  0.00000000000E+00  0.00000000000E+00  0.45593999997E+02  0.45594000000E+02  0.51100000000E-03 0. -1.
         11   -1    0    0    0    0 -0.00000000000E+00 -0.00000000000E+00 -0.45593999997E+02  0.45594000000E+02  0.51100000000E-03 0.  1.
    9900012    2    1    2    0    0 -0.99221049818E+01 -0.15803395054E+02  0.15760431740E+01  0.72461564819E+02  0.69999992867E+02 0.  0.
        -12    1    1    2    0    0  0.99221049818E+01  0.15803395054E+02 -0.15760431740E+01  0.18726435181E+02  0.00000000000E+00 0.  1.
         11    1    3    3    0    0  0.83510628665E+01  0.25122595287E+01 -0.20686013877E+01  0.89627457234E+01  0.51100000000E-03 0. -1.
        -11    1    3    3    0    0 -0.11854983638E+02  0.89336568044E+01 -0.21327238357E+02  0.25984648490E+02  0.51100000000E-03 0.  1.
         12    1    3    3    0    0 -0.64181842105E+01 -0.27249311388E+02  0.24971882919E+02  0.37514170605E+02  0.00000000000E+00 0. -1.
</event>
<event>
 7    1  0.3758561E-013  0.7246158E+02  0.7816164E-02  0.1226708E+00
        -11   -1    0    0    0    0  0.00000000000E+00  0.00000000000E+00  0.45593999997E+02  0.45594000000E+02  0.51100000000E-03 0. -1.
         11   -1    0    0    0    0 -0.00000000000E+00 -0.00000000000E+00 -0.45593999997E+02  0.45594000000E+02  0.51100000000E-03 0.  1.
    9900012    2    1    2    0    0 -0.53863674791E+01 -0.53606871049E+01  0.17115169535E+02  0.72461576180E+02  0.70000007667E+02 0.  0.
        -12    1    1    2    0    0  0.53863674791E+01  0.53606871049E+01 -0.17115169535E+02  0.18726423820E+02  0.00000000000E+00 0.  1.
         11    1    3    3    0    0  0.27698113197E+02  0.17692991938E+01  0.15121383550E+02  0.31606520451E+02  0.51100000000E-03 0. -1.
        -11    1    3    3    0    0 -0.80773369734E+01 -0.10129979220E+02  0.76435276786E+01  0.15042718080E+02  0.51100000000E-03 0.  1.
        -12    1    3    3    0    0 -0.25007143703E+02  0.29999929217E+01 -0.56497416928E+01  0.25812337649E+02  0.00000000000E+00 0.  1.
</event>
<event>
 7    1  0.3758561E-013  0.7246156E+02  0.7816164E-02  0.1226708E+00
        -11   -1    0    0    0    0  0.00000000000E+00  0.00000000000E+00  0.45593999997E+02  0.45594000000E+02  0.51100000000E-03 0.  1.
         11   -1    0    0    0    0 -0.00000000000E+00 -0.00000000000E+00 -0.45593999997E+02  0.45594000000E+02  0.51100000000E-03 0. -1.
    9900012    2    1    2    0    0  0.12226064665E+02 -0.13682361467E+02  0.37411110980E+01  0.72461559207E+02  0.69999985557E+02 0.  0.
        -12    1    1    2    0    0 -0.12226064665E+02  0.13682361467E+02 -0.37411110980E+01  0.18726440793E+02  0.00000000000E+00 0.  1.
         11    1    3    3    0    0  0.63254691902E+01  0.13711103387E+02  0.57049396527E+01  0.16141631060E+02  0.51100000000E-03 0. -1.
        -11    1    3    3    0    0  0.22547124183E+02  0.55265621920E+00 -0.65119483167E+01  0.23475172181E+02  0.51100000000E-03 0.  1.
        -12    1    3    3    0    0 -0.16646528708E+02 -0.27946121074E+02  0.45481197620E+01  0.32844755966E+02  0.00000000000E+00 0.  1.
</event>
<event>
 7    1  0.3758561E-013  0.7246157E+02  0.7816164E-02  0.1226708E+00
        -11   -1    0    0    0    0  0.00000000000E+00  0.00000000000E+00  0.45593999997E+02  0.45594000000E+02  0.51100000000E-03 0.  1.
         11   -1    0    0    0    0 -0.00000000000E+00 -0.00000000000E+00 -0.45593999997E+02  0.45594000000E+02  0.51100000000E-03 0. -1.
    9900012    2    1    2    0    0  0.40394529694E+01 -0.10515258705E+02 -0.14959650918E+02  0.72461574780E+02  0.70000005843E+02 0.  0.
        -12    1    1    2    0    0 -0.40394529694E+01  0.10515258705E+02  0.14959650918E+02  0.18726425220E+02  0.00000000000E+00 0.  1.
         11    1    3    3    0    0  0.29566313783E+02 -0.71433576555E+01 -0.49397134524E+01  0.30815503218E+02  0.51100000000E-03 0. -1.
        -11    1    3    3    0    0  0.18347145928E+01 -0.52114669732E+01  0.73421179209E+01  0.91887029267E+01  0.51100000000E-03 0.  1.
         12    1    3    3    0    0 -0.27361575406E+02  0.18395659233E+01 -0.17362055387E+02  0.32457368636E+02  0.00000000000E+00 0. -1.
</event>
<event>
 7    1  0.3758561E-013  0.7246150E+02  0.7816164E-02  0.1226708E+00
        -11   -1    0    0    0    0  0.00000000000E+00  0.00000000000E+00  0.45593999997E+02  0.45594000000E+02  0.51100000000E-03 0.  1.
         11   -1    0    0    0    0 -0.00000000000E+00 -0.00000000000E+00 -0.45593999997E+02  0.45594000000E+02  0.51100000000E-03 0. -1.
    9900012    2    1    2    0    0  0.17066839464E+02  0.51472670709E+01 -0.57367501549E+01  0.72461503533E+02  0.69999913031E+02 0.  0.
        -12    1    1    2    0    0 -0.17066839464E+02 -0.51472670709E+01  0.57367501549E+01  0.18726496467E+02  0.00000000000E+00 0.  1.
         11    1    3    3    0    0  0.18934571778E+02  0.23902133571E+02 -0.27443671258E+02  0.41024201273E+02  0.51100000000E-03 0. -1.
        -11    1    3    3    0    0  0.34832011555E+01 -0.48855392089E+01  0.12162587119E+01  0.61221294634E+01  0.51100000000E-03 0.  1.
        -12    1    3    3    0    0 -0.53509334695E+01 -0.13869327291E+02  0.20490662391E+02  0.25315172797E+02  0.00000000000E+00 0.  1.
</event>
<event>
 7    1  0.3758561E-013  0.7246152E+02  0.7816164E-02  0.1226708E+00
        -11   -1    0    0    0    0  0.00000000000E+00  0.00000000000E+00  0.45593999997E+02  0.45594000000E+02  0.51100000000E-03 0. -1.
         11   -1    0    0    0    0 -0.00000000000E+00 -0.00000000000E+00 -0.45593999997E+02  0.45594000000E+02  0.51100000000E-03 0.  1.
    9900012    2    1    2    0    0 -0.14542422474E+02 -0.69281480243E+01  0.95498615673E+01  0.72461517617E+02  0.69999931378E+02 0.  0.
        -12    1    1    2    0    0  0.14542422474E+02  0.69281480243E+01 -0.95498615673E+01  0.18726482383E+02  0.00000000000E+00 0.  1.
         11    1    3    3    0    0  0.25782958196E+01 -0.16496294610E+01  0.10710725968E+02  0.11139503477E+02  0.51100000000E-03 0. -1.
        -11    1    3    3    0    0 -0.47431999598E+01 -0.27897695857E+02  0.13829775064E+02  0.31496699169E+02  0.51100000000E-03 0.  1.
        -12    1    3    3    0    0 -0.12377518334E+02  0.22619177294E+02 -0.14990639464E+02  0.29825314971E+02  0.00000000000E+00 0.  1.
</event>
<event>
 7    1  0.3758561E-013  0.7246196E+02  0.7816164E-02  0.1226707E+00
        -11   -1    0    0    0    0  0.00000000000E+00  0.00000000000E+00  0.45593999997E+02  0.45594000000E+02  0.51100000000E-03 0.  1.
         11   -1    0    0    0    0 -0.00000000000E+00 -0.00000000000E+00 -0.45593999997E+02  0.45594000000E+02  0.51100000000E-03 0. -1.
    9900012    2    1    2    0    0 -0.38374709962E+01  0.18301431905E+02 -0.99801223406E+00  0.72461958725E+02  0.70000506001E+02 0.  0.
        -12    1    1    2    0    0  0.38374709962E+01 -0.18301431905E+02  0.99801223406E+00  0.18726041275E+02  0.00000000000E+00 0.  1.
         11    1    3    3    0    0  0.20039524700E+02  0.20621652442E+02 -0.16571663995E+02  0.33188177827E+02  0.51100000000E-03 0. -1.
        -11    1    3    3    0    0 -0.80976626589E+01 -0.12689965891E+02  0.41354823363E+00  0.15059163232E+02  0.51100000000E-03 0.  1.
        -12    1    3    3    0    0 -0.15779333037E+02  0.10369745353E+02  0.15160103527E+02  0.24214617666E+02  0.00000000000E+00 0.  1.
</event>
<event>
 7    1  0.3758561E-013  0.7246157E+02  0.7816164E-02  0.1226708E+00
        -11   -1    0    0    0    0  0.00000000000E+00  0.00000000000E+00  0.45593999997E+02  0.45594000000E+02  0.51100000000E-03 0.  1.
         11   -1    0    0    0    0 -0.00000000000E+00 -0.00000000000E+00 -0.45593999997E+02  0.45594000000E+02  0.51100000000E-03 0. -1.
    9900012    2    1    2    0    0  0.16715475630E+02  0.83900371550E+01  0.93776499526E+00  0.72461568087E+02  0.69999997125E+02 0.  0.
        -12    1    1    2    0    0 -0.16715475630E+02 -0.83900371550E+01 -0.93776499526E+00  0.18726431913E+02  0.00000000000E+00 0.  1.
         11    1    3    3    0    0 -0.95370217676E+01  0.12644726334E+00 -0.25150701424E+02  0.26898486119E+02  0.51100000000E-03 0. -1.
        -11    1    3    3    0    0  0.13344586047E+02 -0.83326811131E+01  0.72086605246E+01  0.17305384657E+02  0.51100000000E-03 0.  1.
        -12    1    3    3    0    0  0.12907911351E+02  0.16596271005E+02  0.18879805895E+02  0.28257697311E+02  0.00000000000E+00 0.  1.
</event>
<event>
 7    1  0.3758561E-013  0.7246156E+02  0.7816164E-02  0.1226708E+00
        -11   -1    0    0    0    0  0.00000000000E+00  0.00000000000E+00  0.45593999997E+02  0.45594000000E+02  0.51100000000E-03 0. -1.
         11   -1    0    0    0    0 -0.00000000000E+00 -0.00000000000E+00 -0.45593999997E+02  0.45594000000E+02  0.51100000000E-03 0.  1.
    9900012    2    1    2    0    0  0.44900726865E+01 -0.17138954815E+02 -0.60642412512E+01  0.72461560220E+02  0.69999986877E+02 0.  0.
        -12    1    1    2    0    0 -0.44900726865E+01  0.17138954815E+02  0.60642412512E+01  0.18726439780E+02  0.00000000000E+00 0.  1.
         11    1    3    3    0    0  0.12347710845E+02  0.27453325009E+01 -0.13283485675E+02  0.18342677165E+02  0.51100000000E-03 0.  1.
        -11    1    3    3    0    0 -0.18433148443E+01 -0.34436330647E+02  0.13678863827E+02  0.37099460830E+02  0.51100000000E-03 0. -1.
         12    1    3    3    0    0 -0.60143233137E+01  0.14552043331E+02 -0.64596194028E+01  0.17019422225E+02  0.00000000000E+00 0. -1.
</event>
<event>
 7    1  0.3758561E-013  0.7246147E+02  0.7816164E-02  0.1226708E+00
        -11   -1    0    0    0    0  0.00000000000E+00  0.00000000000E+00  0.45593999997E+02  0.45594000000E+02  0.51100000000E-03 0. -1.
         11   -1    0    0    0    0 -0.00000000000E+00 -0.00000000000E+00 -0.45593999997E+02  0.45594000000E+02  0.51100000000E-03 0.  1.
    9900012    2    1    2    0    0 -0.86577535263E+01  0.16199545797E+02  0.36470599564E+01  0.72461467313E+02  0.69999865848E+02 0.  0.
        -12    1    1    2    0    0  0.86577535263E+01 -0.16199545797E+02 -0.36470599564E+01  0.18726532687E+02  0.00000000000E+00 0.  1.
         11    1    3    3    0    0 -0.99120540119E+01  0.27019753443E+02  0.15632003458E+02  0.32751723973E+02  0.51100000000E-03 0. -1.
        -11    1    3    3    0    0 -0.74303948705E+01 -0.86013011334E+01  0.10518661528E+02  0.15486619700E+02  0.51100000000E-03 0.  1.
         12    1    3    3    0    0  0.86846953561E+01 -0.22189065124E+01 -0.22503605030E+02  0.24223123640E+02  0.00000000000E+00 0. -1.
</event>
<event>
 7    1  0.3758561E-013  0.7246155E+02  0.7816164E-02  0.1226708E+00
        -11   -1    0    0    0    0  0.00000000000E+00  0.00000000000E+00  0.45593999997E+02  0.45594000000E+02  0.51100000000E-03 0.  1.
         11   -1    0    0    0    0 -0.00000000000E+00 -0.00000000000E+00 -0.45593999997E+02  0.45594000000E+02  0.51100000000E-03 0. -1.
    9900012    2    1    2    0    0 -0.45559308834E+00  0.78193532723E+01 -0.17009708335E+02  0.72461547365E+02  0.69999970130E+02 0.  0.
        -12    1    1    2    0    0  0.45559308834E+00 -0.78193532723E+01  0.17009708335E+02  0.18726452635E+02  0.00000000000E+00 0.  1.
         11    1    3    3    0    0 -0.62974511577E+01  0.15598623924E+02  0.15007773574E+02  0.22543474162E+02  0.51100000000E-03 0. -1.
        -11    1    3    3    0    0  0.12192899017E+02  0.83784042218E+01 -0.15810067465E+01  0.14878307240E+02  0.51100000000E-03 0.  1.
         12    1    3    3    0    0 -0.63510409479E+01 -0.16157674873E+02 -0.30436475162E+02  0.35039765963E+02  0.00000000000E+00 0. -1.
</event>
<event>
 7    1  0.3758561E-013  0.7246156E+02  0.7816164E-02  0.1226708E+00
        -11   -1    0    0    0    0  0.00000000000E+00  0.00000000000E+00  0.45593999997E+02  0.45594000000E+02  0.51100000000E-03 0.  1.
         11   -1    0    0    0    0 -0.00000000000E+00 -0.00000000000E+00 -0.45593999997E+02  0.45594000000E+02  0.51100000000E-03 0. -1.
    9900012    2    1    2    0    0  0.11762309053E+02 -0.11186876338E+02 -0.93370991905E+01  0.72461560462E+02  0.69999987192E+02 0.  0.
        -12    1    1    2    0    0 -0.11762309053E+02  0.11186876338E+02  0.93370991905E+01  0.18726439538E+02  0.00000000000E+00 0.  1.
         11    1    3    3    0    0  0.37666624459E+01  0.68423686866E+01 -0.90927916088E+00  0.78633672227E+01  0.51100000000E-03 0. -1.
        -11    1    3    3    0    0 -0.75269741186E+01  0.17896874862E+02  0.94253974204E+01  0.21582205309E+02  0.51100000000E-03 0.  1.
        -12    1    3    3    0    0  0.15522620726E+02 -0.35926119887E+02 -0.17853217450E+02  0.43015987931E+02  0.00000000000E+00 0.  1.
</event>
<event>
 7    1  0.3758561E-013  0.7246146E+02  0.7816164E-02  0.1226708E+00
        -11   -1    0    0    0    0  0.00000000000E+00  0.00000000000E+00  0.45593999997E+02  0.45594000000E+02  0.51100000000E-03 0.  1.
         11   -1    0    0    0    0 -0.00000000000E+00 -0.00000000000E+00 -0.45593999997E+02  0.45594000000E+02  0.51100000000E-03 0. -1.
    9900012    2    1    2    0    0  0.34971196172E+01  0.13276719217E+02 -0.12735081825E+02  0.72461456596E+02  0.69999851887E+02 0.  0.
        -12    1    1    2    0    0 -0.34971196172E+01 -0.13276719217E+02  0.12735081825E+02  0.18726543404E+02  0.00000000000E+00 0.  1.
         11    1    3    3    0    0 -0.86703587208E+01 -0.88375989246E+01 -0.34716241282E+02  0.36857776440E+02  0.51100000000E-03 0. -1.
        -11    1    3    3    0    0 -0.40019428896E+00  0.22716490742E+01 -0.12024972156E+01  0.26012583108E+01  0.51100000000E-03 0.  1.
        -12    1    3    3    0    0  0.12567672627E+02  0.19842669067E+02  0.23183656672E+02  0.33002421845E+02  0.00000000000E+00 0.  1.
</event>
<event>
 7    1  0.3758561E-013  0.7246158E+02  0.7816164E-02  0.1226708E+00
        -11   -1    0    0    0    0  0.00000000000E+00  0.00000000000E+00  0.45593999997E+02  0.45594000000E+02  0.51100000000E-03 0. -1.
         11   -1    0    0    0    0 -0.00000000000E+00 -0.00000000000E+00 -0.45593999997E+02  0.45594000000E+02  0.51100000000E-03 0.  1.
    9900012    2    1    2    0    0  0.20122560608E+00  0.15849283225E+01  0.18658142695E+02  0.72461580738E+02  0.70000013605E+02 0.  0.
        -12    1    1    2    0    0 -0.20122560608E+00 -0.15849283225E+01 -0.18658142695E+02  0.18726419262E+02  0.00000000000E+00 0.  1.
         11    1    3    3    0    0  0.46953170718E+01  0.15521881265E+02  0.17945703716E+02  0.24187250413E+02  0.51100000000E-03 0. -1.
        -11    1    3    3    0    0 -0.75315139993E+01  0.16204067863E+02 -0.12841518895E+01  0.17914925754E+02  0.51100000000E-03 0.  1.
        -12    1    3    3    0    0  0.30374225336E+01 -0.30141020806E+02  0.19965908691E+01  0.30359404572E+02  0.00000000000E+00 0.  1.
</event>
<event>
 7    1  0.3758561E-013  0.7246155E+02  0.7816164E-02  0.1226708E+00
        -11   -1    0    0    0    0  0.00000000000E+00  0.00000000000E+00  0.45593999997E+02  0.45594000000E+02  0.51100000000E-03 0.  1.
         11   -1    0    0    0    0 -0.00000000000E+00 -0.00000000000E+00 -0.45593999997E+02  0.45594000000E+02  0.51100000000E-03 0. -1.
    9900012    2    1    2    0    0 -0.59092712016E+01 -0.11870445966E+02 -0.13223193938E+02  0.72461552619E+02  0.69999976975E+02 0.  0.
        -12    1    1    2    0    0  0.59092712016E+01  0.11870445966E+02  0.13223193938E+02  0.18726447381E+02  0.00000000000E+00 0.  1.
         11    1    3    3    0    0  0.82089878968E+01  0.44645191746E+01  0.89234002360E+01  0.12920777290E+02  0.51100000000E-03 0. -1.
        -11    1    3    3    0    0 -0.25350180400E+00  0.43421791859E+01  0.14555750103E+02  0.15191729479E+02  0.51100000000E-03 0.  1.
         12    1    3    3    0    0 -0.13864757294E+02 -0.20677144326E+02 -0.36702344278E+02  0.44349045850E+02  0.00000000000E+00 0. -1.
</event>
<event>
 7    1  0.3758561E-013  0.7246153E+02  0.7816164E-02  0.1226708E+00
        -11   -1    0    0    0    0  0.00000000000E+00  0.00000000000E+00  0.45593999997E+02  0.45594000000E+02  0.51100000000E-03 0.  1.
         11   -1    0    0    0    0 -0.00000000000E+00 -0.00000000000E+00 -0.45593999997E+02  0.45594000000E+02  0.51100000000E-03 0. -1.
    9900012    2    1    2    0    0 -0.11633614087E+02  0.12415874259E+02 -0.78221332412E+01  0.72461529996E+02  0.69999947504E+02 0.  0.
        -12    1    1    2    0    0  0.11633614087E+02 -0.12415874259E+02  0.78221332412E+01  0.18726470004E+02  0.00000000000E+00 0.  1.
         11    1    3    3    0    0  0.11971920945E+01  0.71025929315E+01 -0.26925021701E+02  0.27871793791E+02  0.51100000000E-03 0. -1.
        -11    1    3    3    0    0 -0.16119841985E+02 -0.96721333698E+01 -0.15490659865E+01  0.18862637017E+02  0.51100000000E-03 0.  1.
         12    1    3    3    0    0  0.32890358031E+01  0.14985414698E+02  0.20651954447E+02  0.25727099188E+02  0.00000000000E+00 0. -1.
</event>
<event>
 7    1  0.3758561E-013  0.7246157E+02  0.7816164E-02  0.1226708E+00
        -11   -1    0    0    0    0  0.00000000000E+00  0.00000000000E+00  0.45593999997E+02  0.45594000000E+02  0.51100000000E-03 0. -1.
         11   -1    0    0    0    0 -0.00000000000E+00 -0.00000000000E+00 -0.45593999997E+02  0.45594000000E+02  0.51100000000E-03 0.  1.
    9900012    2    1    2    0    0  0.20618032695E+01  0.14276315534E+02  0.11942148888E+02  0.72461571135E+02  0.70000001096E+02 0.  0.
        -12    1    1    2    0    0 -0.20618032695E+01 -0.14276315534E+02 -0.11942148888E+02  0.18726428865E+02  0.00000000000E+00 0.  1.
         11    1    3    3    0    0  0.51611307334E+01 -0.72242867240E+01  0.21806569026E+02  0.23544724294E+02  0.51100000000E-03 0. -1.
        -11    1    3    3    0    0 -0.43420507897E+01  0.79334912856E+00  0.15519258215E+02  0.16134750810E+02  0.51100000000E-03 0.  1.
        -12    1    3    3    0    0  0.12427233258E+01  0.20707253130E+02 -0.25383678353E+02  0.32782096031E+02  0.00000000000E+00 0.  1.
</event>
<event>
 7    1  0.3758561E-013  0.7246157E+02  0.7816164E-02  0.1226708E+00
        -11   -1    0    0    0    0  0.00000000000E+00  0.00000000000E+00  0.45593999997E+02  0.45594000000E+02  0.51100000000E-03 0.  1.
         11   -1    0    0    0    0 -0.00000000000E+00 -0.00000000000E+00 -0.45593999997E+02  0.45594000000E+02  0.51100000000E-03 0. -1.
    9900012    2    1    2    0    0  0.31258932838E+01  0.18367223867E+02  0.18849670178E+01  0.72461568891E+02  0.69999998172E+02 0.  0.
        -12    1    1    2    0    0 -0.31258932838E+01 -0.18367223867E+02 -0.18849670178E+01  0.18726431109E+02  0.00000000000E+00 0.  1.
         11    1    3    3    0    0 -0.71947339069E+01 -0.47758075573E+01 -0.24193224759E+02  0.25688220225E+02  0.51100000000E-03 0. -1.
        -11    1    3    3    0    0  0.94777757516E+01  0.17701717762E+01 -0.35124157913E+01  0.10261520661E+02  0.51100000000E-03 0.  1.
        -12    1    3    3    0    0  0.84285143919E+00  0.21372859648E+02  0.29590607568E+02  0.36511828006E+02  0.00000000000E+00 0.  1.
</event>
<event>
 7    1  0.3758561E-013  0.7246158E+02  0.7816164E-02  0.1226708E+00
        -11   -1    0    0    0    0  0.00000000000E+00  0.00000000000E+00  0.45593999997E+02  0.45594000000E+02  0.51100000000E-03 0.  1.
         11   -1    0    0    0    0 -0.00000000000E+00 -0.00000000000E+00 -0.45593999997E+02  0.45594000000E+02  0.51100000000E-03 0. -1.
    9900012    2    1    2    0    0  0.90099791209E+01 -0.16129023102E+02  0.30584060648E+01  0.72461575952E+02  0.70000007370E+02 0.  0.
        -12    1    1    2    0    0 -0.90099791209E+01  0.16129023102E+02 -0.30584060648E+01  0.18726424048E+02  0.00000000000E+00 0.  1.
         11    1    3    3    0    0  0.31089030432E+01 -0.81212627751E+01 -0.87538786934E+01  0.12338986167E+02  0.51100000000E-03 0. -1.
        -11    1    3    3    0    0  0.12004819374E+02  0.39977867140E+01 -0.21076591770E+02  0.24582935295E+02  0.51100000000E-03 0.  1.
        -12    1    3    3    0    0 -0.61037432966E+01 -0.12005547041E+02  0.32888876528E+02  0.35539654490E+02  0.00000000000E+00 0.  1.
</event>
<event>
 7    1  0.3758561E-013  0.7246155E+02  0.7816164E-02  0.1226708E+00
        -11   -1    0    0    0    0  0.00000000000E+00  0.00000000000E+00  0.45593999997E+02  0.45594000000E+02  0.51100000000E-03 0.  1.
         11   -1    0    0    0    0 -0.00000000000E+00 -0.00000000000E+00 -0.45593999997E+02  0.45594000000E+02  0.51100000000E-03 0. -1.
    9900012    2    1    2    0    0  0.12400541106E+02  0.92119667181E+01  0.10585190349E+02  0.72461547980E+02  0.69999970931E+02 0.  0.
        -12    1    1    2    0    0 -0.12400541106E+02 -0.92119667181E+01 -0.10585190349E+02  0.18726452020E+02  0.00000000000E+00 0.  1.
         11    1    3    3    0    0  0.16812164912E+02 -0.79713712293E+01  0.30516668232E+02  0.35741554087E+02  0.51100000000E-03 0.  1.
        -11    1    3    3    0    0  0.54675720259E+01 -0.87031049193E+00 -0.14373315107E+02  0.15402726111E+02  0.51100000000E-03 0. -1.
        -12    1    3    3    0    0 -0.98791958322E+01  0.18053648439E+02 -0.55581627757E+01  0.21317267782E+02  0.00000000000E+00 0.  1.
</event>
<event>
 7    1  0.3758561E-013  0.7246152E+02  0.7816164E-02  0.1226708E+00
        -11   -1    0    0    0    0  0.00000000000E+00  0.00000000000E+00  0.45593999997E+02  0.45594000000E+02  0.51100000000E-03 0.  1.
         11   -1    0    0    0    0 -0.00000000000E+00 -0.00000000000E+00 -0.45593999997E+02  0.45594000000E+02  0.51100000000E-03 0. -1.
    9900012    2    1    2    0    0  0.94371163739E+01  0.12865458242E+02  0.98031489247E+01  0.72461523822E+02  0.69999939461E+02 0.  0.
        -12    1    1    2    0    0 -0.94371163739E+01 -0.12865458242E+02 -0.98031489247E+01  0.18726476178E+02  0.00000000000E+00 0.  1.
         11    1    3    3    0    0  0.11885052605E+02 -0.14869634078E+02  0.18887908810E+02  0.26816293415E+02  0.51100000000E-03 0. -1.
        -11    1    3    3    0    0 -0.88507035486E+01 -0.41978548397E+01  0.39539676512E+01  0.10563654624E+02  0.51100000000E-03 0.  1.
        -12    1    3    3    0    0  0.64027673170E+01  0.31932947160E+02 -0.13038727537E+02  0.35081575783E+02  0.00000000000E+00 0.  1.
</event>
<event>
 7    1  0.3758561E-013  0.7246159E+02  0.7816164E-02  0.1226708E+00
        -11   -1    0    0    0    0  0.00000000000E+00  0.00000000000E+00  0.45593999997E+02  0.45594000000E+02  0.51100000000E-03 0.  1.
         11   -1    0    0    0    0 -0.00000000000E+00 -0.00000000000E+00 -0.45593999997E+02  0.45594000000E+02  0.51100000000E-03 0. -1.
    9900012    2    1    2    0    0 -0.48922416338E+01 -0.17903719418E+02  0.24902003164E+01  0.72461593649E+02  0.70000030424E+02 0.  0.
        -12    1    1    2    0    0  0.48922416338E+01  0.17903719418E+02 -0.24902003164E+01  0.18726406351E+02  0.00000000000E+00 0.  1.
         11    1    3    3    0    0  0.23894817897E+02 -0.22703446071E+02  0.29172766888E+01  0.33089564660E+02  0.51100000000E-03 0.  1.
        -11    1    3    3    0    0 -0.10362321057E+02  0.74522017120E+01 -0.11945653591E+02  0.17481751858E+02  0.51100000000E-03 0. -1.
        -12    1    3    3    0    0 -0.18424738473E+02 -0.26524750589E+01  0.11518577218E+02  0.21890277131E+02  0.00000000000E+00 0.  1.
</event>
<event>
 7    1  0.3758561E-013  0.7246186E+02  0.7816164E-02  0.1226707E+00
        -11   -1    0    0    0    0  0.00000000000E+00  0.00000000000E+00  0.45593999997E+02  0.45594000000E+02  0.51100000000E-03 0.  1.
         11   -1    0    0    0    0 -0.00000000000E+00 -0.00000000000E+00 -0.45593999997E+02  0.45594000000E+02  0.51100000000E-03 0. -1.
    9900012    2    1    2    0    0  0.29769091614E+01 -0.34437072296E+01 -0.18164444676E+02  0.72461864306E+02  0.70000383004E+02 0.  0.
        -12    1    1    2    0    0 -0.29769091614E+01  0.34437072296E+01  0.18164444676E+02  0.18726135694E+02  0.00000000000E+00 0.  1.
         11    1    3    3    0    0 -0.21658910371E+02  0.10635868590E+02 -0.65353650272E+01  0.24998821881E+02  0.51100000000E-03 0. -1.
        -11    1    3    3    0    0  0.16254246278E+02  0.78653476672E+00  0.10612870960E+02  0.19428128816E+02  0.51100000000E-03 0.  1.
        -12    1    3    3    0    0  0.83815732546E+01 -0.14866110586E+02 -0.22241950609E+02  0.28034913609E+02  0.00000000000E+00 0.  1.
</event>
<event>
 7    1  0.3758561E-013  0.7246156E+02  0.7816164E-02  0.1226708E+00
        -11   -1    0    0    0    0  0.00000000000E+00  0.00000000000E+00  0.45593999997E+02  0.45594000000E+02  0.51100000000E-03 0.  1.
         11   -1    0    0    0    0 -0.00000000000E+00 -0.00000000000E+00 -0.45593999997E+02  0.45594000000E+02  0.51100000000E-03 0. -1.
    9900012    2    1    2    0    0  0.98805738262E+01  0.88228318557E+01 -0.13236747191E+02  0.72461559407E+02  0.69999985817E+02 0.  0.
        -12    1    1    2    0    0 -0.98805738262E+01 -0.88228318557E+01  0.13236747191E+02  0.18726440593E+02  0.00000000000E+00 0.  1.
         11    1    3    3    0    0  0.59387089800E+01 -0.10016413895E+02  0.29137885820E+01  0.12003623446E+02  0.51100000000E-03 0. -1.
        -11    1    3    3    0    0 -0.32627383214E+01  0.13698480020E+02  0.19315850759E+02  0.23903888951E+02  0.51100000000E-03 0.  1.
         12    1    3    3    0    0  0.72046031675E+01  0.51407657314E+01 -0.35466386532E+02  0.36554047009E+02  0.00000000000E+00 0. -1.
</event>
<event>
 7    1  0.3758561E-013  0.7246137E+02  0.7816164E-02  0.1226709E+00
        -11   -1    0    0    0    0  0.00000000000E+00  0.00000000000E+00  0.45593999997E+02  0.45594000000E+02  0.51100000000E-03 0.  1.
         11   -1    0    0    0    0 -0.00000000000E+00 -0.00000000000E+00 -0.45593999997E+02  0.45594000000E+02  0.51100000000E-03 0. -1.
    9900012    2    1    2    0    0  0.18576832020E+02  0.12068344137E+01  0.20326493239E+01  0.72461366547E+02  0.69999734581E+02 0.  0.
        -12    1    1    2    0    0 -0.18576832020E+02 -0.12068344137E+01 -0.20326493239E+01  0.18726633453E+02  0.00000000000E+00 0.  1.
         11    1    3    3    0    0  0.52980024662E+01  0.14964331199E+02  0.16609644471E+02  0.22975646413E+02  0.51100000000E-03 0. -1.
        -11    1    3    3    0    0 -0.13994048161E+02 -0.81843116354E+01  0.31075135498E+01  0.16506755635E+02  0.51100000000E-03 0.  1.
         12    1    3    3    0    0  0.27272877715E+02 -0.55731851494E+01 -0.17684508697E+02  0.32978964499E+02  0.00000000000E+00 0. -1.
</event>
<event>
 7    1  0.3758561E-013  0.7246148E+02  0.7816164E-02  0.1226708E+00
        -11   -1    0    0    0    0  0.00000000000E+00  0.00000000000E+00  0.45593999997E+02  0.45594000000E+02  0.51100000000E-03 0. -1.
         11   -1    0    0    0    0 -0.00000000000E+00 -0.00000000000E+00 -0.45593999997E+02  0.45594000000E+02  0.51100000000E-03 0.  1.
    9900012    2    1    2    0    0 -0.15815765650E+02 -0.63167623102E+01 -0.77873293605E+01  0.72461483299E+02  0.69999886672E+02 0.  0.
        -12    1    1    2    0    0  0.15815765650E+02  0.63167623102E+01  0.77873293605E+01  0.18726516701E+02  0.00000000000E+00 0.  1.
         11    1    3    3    0    0 -0.12367168205E+02  0.15302654502E+02  0.12762886377E+02  0.23452278208E+02  0.51100000000E-03 0. -1.
        -11    1    3    3    0    0  0.96372524574E+01  0.25414939268E+01  0.52959083325E+01  0.11286384347E+02  0.51100000000E-03 0.  1.
         12    1    3    3    0    0 -0.13085849902E+02 -0.24160910739E+02 -0.25846124070E+02  0.37722820743E+02  0.00000000000E+00 0. -1.
</event>
<event>
 7    1  0.3758561E-013  0.7246161E+02  0.7816164E-02  0.1226708E+00
        -11   -1    0    0    0    0  0.00000000000E+00  0.00000000000E+00  0.45593999997E+02  0.45594000000E+02  0.51100000000E-03 0.  1.
         11   -1    0    0    0    0 -0.00000000000E+00 -0.00000000000E+00 -0.45593999997E+02  0.45594000000E+02  0.51100000000E-03 0. -1.
    9900012    2    1    2    0    0  0.14369605448E+02  0.79152206354E+01 -0.90300239821E+01  0.72461611892E+02  0.70000054189E+02 0.  0.
        -12    1    1    2    0    0 -0.14369605448E+02 -0.79152206354E+01  0.90300239821E+01  0.18726388108E+02  0.00000000000E+00 0.  1.
         11    1    3    3    0    0  0.97583168348E+01  0.23277287687E+02 -0.16673800530E+02  0.30250165188E+02  0.51100000000E-03 0. -1.
        -11    1    3    3    0    0  0.87620710171E+01  0.71238055048E+01  0.14464004930E+02  0.18350202513E+02  0.51100000000E-03 0.  1.
         12    1    3    3    0    0 -0.41507824034E+01 -0.22485872556E+02 -0.68202283816E+01  0.23861244191E+02  0.00000000000E+00 0. -1.
</event>
<event>
 7    1  0.3758561E-013  0.7246156E+02  0.7816164E-02  0.1226708E+00
        -11   -1    0    0    0    0  0.00000000000E+00  0.00000000000E+00  0.45593999997E+02  0.45594000000E+02  0.51100000000E-03 0. -1.
         11   -1    0    0    0    0 -0.00000000000E+00 -0.00000000000E+00 -0.45593999997E+02  0.45594000000E+02  0.51100000000E-03 0.  1.
    9900012    2    1    2    0    0  0.16417934011E+02  0.26454627891E+00  0.90033836721E+01  0.72461562552E+02  0.69999989915E+02 0.  0.
        -12    1    1    2    0    0 -0.16417934011E+02 -0.26454627891E+00 -0.90033836721E+01  0.18726437448E+02  0.00000000000E+00 0.  1.
         11    1    3    3    0    0  0.79923067638E+01  0.26307123408E+02  0.11417673823E+02  0.29770874780E+02  0.51100000000E-03 0. -1.
        -11    1    3    3    0    0 -0.63747514149E+01 -0.66480608719E+01  0.11398857498E+02  0.14654969173E+02  0.51100000000E-03 0.  1.
         12    1    3    3    0    0  0.14800378662E+02 -0.19394516257E+02 -0.13813147649E+02  0.28035718599E+02  0.00000000000E+00 0. -1.
</event>
<event>
 7    1  0.3758561E-013  0.7246161E+02  0.7816164E-02  0.1226708E+00
        -11   -1    0    0    0    0  0.00000000000E+00  0.00000000000E+00  0.45593999997E+02  0.45594000000E+02  0.51100000000E-03 0.  1.
         11   -1    0    0    0    0 -0.00000000000E+00 -0.00000000000E+00 -0.45593999997E+02  0.45594000000E+02  0.51100000000E-03 0. -1.
    9900012    2    1    2    0    0  0.17816670015E+02  0.46242211816E+01 -0.34438903221E+01  0.72461614003E+02  0.70000056939E+02 0.  0.
        -12    1    1    2    0    0 -0.17816670015E+02 -0.46242211816E+01  0.34438903221E+01  0.18726385997E+02  0.00000000000E+00 0.  1.
         11    1    3    3    0    0  0.22890262075E+02 -0.10083610122E+02  0.22005685027E+01  0.25109476159E+02  0.51100000000E-03 0. -1.
        -11    1    3    3    0    0  0.13552161374E+02  0.57961033212E+01  0.12908777014E+02  0.19593172685E+02  0.51100000000E-03 0.  1.
         12    1    3    3    0    0 -0.18625753434E+02  0.89117279821E+01 -0.18553235839E+02  0.27758965159E+02  0.00000000000E+00 0. -1.
</event>
<event>
 7    1  0.3758561E-013  0.7246155E+02  0.7816164E-02  0.1226708E+00
        -11   -1    0    0    0    0  0.00000000000E+00  0.00000000000E+00  0.45593999997E+02  0.45594000000E+02  0.51100000000E-03 0.  1.
         11   -1    0    0    0    0 -0.00000000000E+00 -0.00000000000E+00 -0.45593999997E+02  0.45594000000E+02  0.51100000000E-03 0. -1.
    9900012    2    1    2    0    0 -0.75642916585E+01  0.17098890246E+02 -0.10437357279E+01  0.72461549717E+02  0.69999973194E+02 0.  0.
        -12    1    1    2    0    0  0.75642916585E+01 -0.17098890246E+02  0.10437357279E+01  0.18726450283E+02  0.00000000000E+00 0.  1.
         11    1    3    3    0    0  0.14117161180E+01 -0.13952367044E+02 -0.12987658897E+02  0.19113889515E+02  0.51100000000E-03 0. -1.
        -11    1    3    3    0    0 -0.21847616594E+02  0.13557809209E+02  0.17284511177E+02  0.30982041060E+02  0.51100000000E-03 0.  1.
         12    1    3    3    0    0  0.12871608818E+02  0.17493448081E+02 -0.53405880079E+01  0.22365619141E+02  0.00000000000E+00 0. -1.
</event>
<event>
 7    1  0.3758561E-013  0.7246155E+02  0.7816164E-02  0.1226708E+00
        -11   -1    0    0    0    0  0.00000000000E+00  0.00000000000E+00  0.45593999997E+02  0.45594000000E+02  0.51100000000E-03 0. -1.
         11   -1    0    0    0    0 -0.00000000000E+00 -0.00000000000E+00 -0.45593999997E+02  0.45594000000E+02  0.51100000000E-03 0.  1.
    9900012    2    1    2    0    0  0.14885383530E+02  0.14780413647E+01  0.11265908372E+02  0.72461549708E+02  0.69999973182E+02 0.  0.
        -12    1    1    2    0    0 -0.14885383530E+02 -0.14780413647E+01 -0.11265908372E+02  0.18726450292E+02  0.00000000000E+00 0.  1.
         11    1    3    3    0    0  0.18957402130E+02  0.80104663309E+01 -0.20998464781E+02  0.29402146007E+02  0.51100000000E-03 0. -1.
        -11    1    3    3    0    0 -0.39199599842E+01 -0.11037110388E+00 -0.43668341821E+01  0.58692000386E+01  0.51100000000E-03 0.  1.
         12    1    3    3    0    0 -0.15205861589E+00 -0.64220538624E+01  0.36631207335E+02  0.37190203662E+02  0.00000000000E+00 0. -1.
</event>
<event>
 7    1  0.3758561E-013  0.7246159E+02  0.7816164E-02  0.1226708E+00
        -11   -1    0    0    0    0  0.00000000000E+00  0.00000000000E+00  0.45593999997E+02  0.45594000000E+02  0.51100000000E-03 0.  1.
         11   -1    0    0    0    0 -0.00000000000E+00 -0.00000000000E+00 -0.45593999997E+02  0.45594000000E+02  0.51100000000E-03 0. -1.
    9900012    2    1    2    0    0 -0.22646227641E+01 -0.17352265712E+02  0.66670003148E+01  0.72461587242E+02  0.70000022077E+02 0.  0.
        -12    1    1    2    0    0  0.22646227641E+01  0.17352265712E+02 -0.66670003148E+01  0.18726412758E+02  0.00000000000E+00 0.  1.
         11    1    3    3    0    0 -0.29706785657E+00  0.11924215579E+02 -0.23209430764E+02  0.26095073158E+02  0.51100000000E-03 0. -1.
        -11    1    3    3    0    0  0.62535678255E+01 -0.14676230557E+02  0.56782596106E+01  0.16933442839E+02  0.51100000000E-03 0.  1.
        -12    1    3    3    0    0 -0.82211227330E+01 -0.14600250734E+02  0.24198171468E+02  0.29433071244E+02  0.00000000000E+00 0.  1.
</event>
<event>
 7    1  0.3758561E-013  0.7246161E+02  0.7816164E-02  0.1226708E+00
        -11   -1    0    0    0    0  0.00000000000E+00  0.00000000000E+00  0.45593999997E+02  0.45594000000E+02  0.51100000000E-03 0.  1.
         11   -1    0    0    0    0 -0.00000000000E+00 -0.00000000000E+00 -0.45593999997E+02  0.45594000000E+02  0.51100000000E-03 0. -1.
    9900012    2    1    2    0    0  0.91562692245E+01  0.13490280266E+02  0.92115604643E+01  0.72461607557E+02  0.70000048541E+02 0.  0.
        -12    1    1    2    0    0 -0.91562692245E+01 -0.13490280266E+02 -0.92115604643E+01  0.18726392443E+02  0.00000000000E+00 0.  1.
         11    1    3    3    0    0 -0.13039870259E+02  0.74769128894E+01 -0.19028006177E+01  0.15151339650E+02  0.51100000000E-03 0. -1.
        -11    1    3    3    0    0 -0.13434259430E+02 -0.88774249557E+01 -0.26393034816E+01  0.16317289095E+02  0.51100000000E-03 0.  1.
         12    1    3    3    0    0  0.35630398913E+02  0.14890792332E+02  0.13753664564E+02  0.40992978812E+02  0.00000000000E+00 0. -1.
</event>
<event>
 7    1  0.3758561E-013  0.7246140E+02  0.7816164E-02  0.1226708E+00
        -11   -1    0    0    0    0  0.00000000000E+00  0.00000000000E+00  0.45593999997E+02  0.45594000000E+02  0.51100000000E-03 0.  1.
         11   -1    0    0    0    0 -0.00000000000E+00 -0.00000000000E+00 -0.45593999997E+02  0.45594000000E+02  0.51100000000E-03 0. -1.
    9900012    2    1    2    0    0  0.11199130873E+02 -0.11209582586E+02 -0.99804994851E+01  0.72461397424E+02  0.69999774804E+02 0.  0.
        -12    1    1    2    0    0 -0.11199130873E+02  0.11209582586E+02  0.99804994851E+01  0.18726602576E+02  0.00000000000E+00 0.  1.
         11    1    3    3    0    0  0.98514676560E+01  0.46012736509E+01 -0.11434179015E+02  0.15778579917E+02  0.51100000000E-03 0. -1.
        -11    1    3    3    0    0  0.90822496088E+01  0.18908876119E+02 -0.12142972272E+01  0.21012076815E+02  0.51100000000E-03 0.  1.
         12    1    3    3    0    0 -0.77345863916E+01 -0.34719732356E+02  0.26679767572E+01  0.35670740692E+02  0.00000000000E+00 0. -1.
</event>
<event>
 7    1  0.3758561E-013  0.7246160E+02  0.7816164E-02  0.1226708E+00
        -11   -1    0    0    0    0  0.00000000000E+00  0.00000000000E+00  0.45593999997E+02  0.45594000000E+02  0.51100000000E-03 0.  1.
         11   -1    0    0    0    0 -0.00000000000E+00 -0.00000000000E+00 -0.45593999997E+02  0.45594000000E+02  0.51100000000E-03 0. -1.
    9900012    2    1    2    0    0 -0.23266653808E+01 -0.16726702862E+02 -0.80921018994E+01  0.72461599557E+02  0.70000038120E+02 0.  0.
        -12    1    1    2    0    0  0.23266653808E+01  0.16726702862E+02  0.80921018994E+01  0.18726400443E+02  0.00000000000E+00 0.  1.
         11    1    3    3    0    0  0.65016852327E+01  0.73772654232E+00 -0.42153903927E+01  0.77836795758E+01  0.51100000000E-03 0. -1.
        -11    1    3    3    0    0 -0.30842311927E+01 -0.21841309280E+02  0.25910345528E+02  0.34027948494E+02  0.51100000000E-03 0.  1.
         12    1    3    3    0    0 -0.57441194208E+01  0.43768798759E+01 -0.29787057034E+02  0.30649971487E+02  0.00000000000E+00 0. -1.
</event>
<event>
 7    1  0.3758561E-013  0.7246138E+02  0.7816164E-02  0.1226709E+00
        -11   -1    0    0    0    0  0.00000000000E+00  0.00000000000E+00  0.45593999997E+02  0.45594000000E+02  0.51100000000E-03 0.  1.
         11   -1    0    0    0    0 -0.00000000000E+00 -0.00000000000E+00 -0.45593999997E+02  0.45594000000E+02  0.51100000000E-03 0. -1.
    9900012    2    1    2    0    0  0.86428758615E+01 -0.14598968862E+02 -0.79282370088E+01  0.72461384261E+02  0.69999757656E+02 0.  0.
        -12    1    1    2    0    0 -0.86428758615E+01  0.14598968862E+02  0.79282370088E+01  0.18726615739E+02  0.00000000000E+00 0.  1.
         11    1    3    3    0    0  0.13468815356E+02 -0.84873003264E+01 -0.10193719449E+02  0.18903840097E+02  0.51100000000E-03 0. -1.
        -11    1    3    3    0    0  0.20339542001E+02 -0.16318757874E+02  0.38263941124E+01  0.26356026248E+02  0.51100000000E-03 0.  1.
        -12    1    3    3    0    0 -0.25165481496E+02  0.10207089339E+02 -0.15609116720E+01  0.27201517916E+02  0.00000000000E+00 0.  1.
</event>
<event>
 7    1  0.3758561E-013  0.7246151E+02  0.7816164E-02  0.1226708E+00
        -11   -1    0    0    0    0  0.00000000000E+00  0.00000000000E+00  0.45593999997E+02  0.45594000000E+02  0.51100000000E-03 0.  1.
         11   -1    0    0    0    0 -0.00000000000E+00 -0.00000000000E+00 -0.45593999997E+02  0.45594000000E+02  0.51100000000E-03 0. -1.
    9900012    2    1    2    0    0  0.10646493747E+02  0.15398261875E+02 -0.47641762320E+00  0.72461514168E+02  0.69999926885E+02 0.  0.
        -12    1    1    2    0    0 -0.10646493747E+02 -0.15398261875E+02  0.47641762320E+00  0.18726485832E+02  0.00000000000E+00 0.  1.
         11    1    3    3    0    0 -0.11517935746E+02  0.47981063043E+01  0.15804131102E+02  0.20135918854E+02  0.51100000000E-03 0. -1.
        -11    1    3    3    0    0  0.16799546273E+02  0.18597674910E+02  0.79165611787E+01  0.26282507647E+02  0.51100000000E-03 0.  1.
         12    1    3    3    0    0  0.53648832191E+01 -0.79975193394E+01 -0.24197109904E+02  0.26043087667E+02  0.00000000000E+00 0. -1.
</event>
<event>
 7    1  0.3758561E-013  0.7246155E+02  0.7816164E-02  0.1226708E+00
        -11   -1    0    0    0    0  0.00000000000E+00  0.00000000000E+00  0.45593999997E+02  0.45594000000E+02  0.51100000000E-03 0.  1.
         11   -1    0    0    0    0 -0.00000000000E+00 -0.00000000000E+00 -0.45593999997E+02  0.45594000000E+02  0.51100000000E-03 0. -1.
    9900012    2    1    2    0    0  0.16762173657E+02 -0.83089465802E+01 -0.81912066820E+00  0.72461547649E+02  0.69999970500E+02 0.  0.
        -12    1    1    2    0    0 -0.16762173657E+02  0.83089465802E+01  0.81912066820E+00  0.18726452351E+02  0.00000000000E+00 0.  1.
         11    1    3    3    0    0 -0.16354197270E+02 -0.52731009277E+01 -0.32078396372E+01  0.17480148659E+02  0.51100000000E-03 0. -1.
        -11    1    3    3    0    0  0.17055892156E+02  0.49917398798E+01  0.22073277391E+02  0.28338145658E+02  0.51100000000E-03 0.  1.
        -12    1    3    3    0    0  0.16060478771E+02 -0.80275855322E+01 -0.19684558422E+02  0.26643253332E+02  0.00000000000E+00 0.  1.
</event>
<event>
 7    1  0.3758561E-013  0.7246157E+02  0.7816164E-02  0.1226708E+00
        -11   -1    0    0    0    0  0.00000000000E+00  0.00000000000E+00  0.45593999997E+02  0.45594000000E+02  0.51100000000E-03 0. -1.
         11   -1    0    0    0    0 -0.00000000000E+00 -0.00000000000E+00 -0.45593999997E+02  0.45594000000E+02  0.51100000000E-03 0.  1.
    9900012    2    1    2    0    0  0.61280008492E+01  0.14979944246E+02  0.94195578552E+01  0.72461569635E+02  0.69999999141E+02 0.  0.
        -12    1    1    2    0    0 -0.61280008492E+01 -0.14979944246E+02 -0.94195578552E+01  0.18726430365E+02  0.00000000000E+00 0.  1.
         11    1    3    3    0    0  0.87349770154E+01  0.26202514661E+02  0.14949990686E+02  0.31406588796E+02  0.51100000000E-03 0. -1.
        -11    1    3    3    0    0 -0.19648545019E+02 -0.76202012592E+01  0.36143944915E+01  0.21382156963E+02  0.51100000000E-03 0.  1.
        -12    1    3    3    0    0  0.17041568853E+02 -0.36023691562E+01 -0.91448273224E+01  0.19672823876E+02  0.00000000000E+00 0.  1.
</event>
<event>
 7    1  0.3758561E-013  0.7246158E+02  0.7816164E-02  0.1226708E+00
        -11   -1    0    0    0    0  0.00000000000E+00  0.00000000000E+00  0.45593999997E+02  0.45594000000E+02  0.51100000000E-03 0. -1.
         11   -1    0    0    0    0 -0.00000000000E+00 -0.00000000000E+00 -0.45593999997E+02  0.45594000000E+02  0.51100000000E-03 0.  1.
    9900012    2    1    2    0    0  0.94168554977E+01  0.45141187071E+01  0.15544265786E+02  0.72461584593E+02  0.70000018627E+02 0.  0.
        -12    1    1    2    0    0 -0.94168554977E+01 -0.45141187071E+01 -0.15544265786E+02  0.18726415407E+02  0.00000000000E+00 0.  1.
         11    1    3    3    0    0  0.79753675872E+00 -0.18348569213E+02  0.16214766172E+02  0.24499483654E+02  0.51100000000E-03 0. -1.
        -11    1    3    3    0    0  0.86979728783E+01 -0.22992185701E+01 -0.16102052374E+02  0.18444978426E+02  0.51100000000E-03 0.  1.
         12    1    3    3    0    0 -0.78654139285E-01  0.25161906490E+02  0.15431551988E+02  0.29517122513E+02  0.00000000000E+00 0. -1.
</event>
<event>
 7    1  0.3758561E-013  0.7246157E+02  0.7816164E-02  0.1226708E+00
        -11   -1    0    0    0    0  0.00000000000E+00  0.00000000000E+00  0.45593999997E+02  0.45594000000E+02  0.51100000000E-03 0.  1.
         11   -1    0    0    0    0 -0.00000000000E+00 -0.00000000000E+00 -0.45593999997E+02  0.45594000000E+02  0.51100000000E-03 0. -1.
    9900012    2    1    2    0    0  0.11155302443E+02 -0.59746284809E+01 -0.13803709977E+02  0.72461565016E+02  0.69999993124E+02 0.  0.
        -12    1    1    2    0    0 -0.11155302443E+02  0.59746284809E+01  0.13803709977E+02  0.18726434984E+02  0.00000000000E+00 0.  1.
         11    1    3    3    0    0  0.18037058113E+02  0.51064020390E+01 -0.20946562504E+02  0.28109949984E+02  0.51100000000E-03 0. -1.
        -11    1    3    3    0    0  0.62411577913E+01 -0.19902053532E+02 -0.81127712013E+01  0.22379920513E+02  0.51100000000E-03 0.  1.
        -12    1    3    3    0    0 -0.13122913461E+02  0.88210230120E+01  0.15255623728E+02  0.21971694519E+02  0.00000000000E+00 0.  1.
</event>
<event>
 7    1  0.3758561E-013  0.7246155E+02  0.7816164E-02  0.1226708E+00
        -11   -1    0    0    0    0  0.00000000000E+00  0.00000000000E+00  0.45593999997E+02  0.45594000000E+02  0.51100000000E-03 0.  1.
         11   -1    0    0    0    0 -0.00000000000E+00 -0.00000000000E+00 -0.45593999997E+02  0.45594000000E+02  0.51100000000E-03 0. -1.
    9900012    2    1    2    0    0 -0.14921586686E+01 -0.17641984359E+02 -0.61003004721E+01  0.72461553047E+02  0.69999977533E+02 0.  0.
        -12    1    1    2    0    0  0.14921586686E+01  0.17641984359E+02  0.61003004721E+01  0.18726446953E+02  0.00000000000E+00 0.  1.
         11    1    3    3    0    0  0.16947972103E+02 -0.74547976247E+01  0.17872753851E+02  0.25734084334E+02  0.51100000000E-03 0. -1.
        -11    1    3    3    0    0 -0.54049167598E+01  0.36016937242E+01  0.75343773898E+01  0.99474703205E+01  0.51100000000E-03 0.  1.
         12    1    3    3    0    0 -0.13035214012E+02 -0.13788880459E+02 -0.31507431713E+02  0.36779998393E+02  0.00000000000E+00 0. -1.
</event>
<event>
 7    1  0.3758561E-013  0.7246161E+02  0.7816164E-02  0.1226708E+00
        -11   -1    0    0    0    0  0.00000000000E+00  0.00000000000E+00  0.45593999997E+02  0.45594000000E+02  0.51100000000E-03 0. -1.
         11   -1    0    0    0    0 -0.00000000000E+00 -0.00000000000E+00 -0.45593999997E+02  0.45594000000E+02  0.51100000000E-03 0.  1.
    9900012    2    1    2    0    0  0.50597178044E+01  0.12288266813E+02 -0.13193771762E+02  0.72461605290E+02  0.70000045588E+02 0.  0.
        -12    1    1    2    0    0 -0.50597178044E+01 -0.12288266813E+02  0.13193771762E+02  0.18726394710E+02  0.00000000000E+00 0.  1.
         11    1    3    3    0    0  0.12799271764E+02 -0.13374978118E+02 -0.39202199718E+01  0.18922989252E+02  0.51100000000E-03 0. -1.
        -11    1    3    3    0    0  0.16490948947E+02  0.17142797352E+02  0.47766101216E+01  0.24261964115E+02  0.51100000000E-03 0.  1.
         12    1    3    3    0    0 -0.24230502906E+02  0.85204475798E+01 -0.14050161912E+02  0.29276651922E+02  0.00000000000E+00 0. -1.
</event>
<event>
 7    1  0.3758561E-013  0.7246158E+02  0.7816164E-02  0.1226708E+00
        -11   -1    0    0    0    0  0.00000000000E+00  0.00000000000E+00  0.45593999997E+02  0.45594000000E+02  0.51100000000E-03 0.  1.
         11   -1    0    0    0    0 -0.00000000000E+00 -0.00000000000E+00 -0.45593999997E+02  0.45594000000E+02  0.51100000000E-03 0. -1.
    9900012    2    1    2    0    0 -0.36699973133E+01  0.18331463497E+02 -0.10804850614E+01  0.72461577967E+02  0.70000009995E+02 0.  0.
        -12    1    1    2    0    0  0.36699973133E+01 -0.18331463497E+02  0.10804850614E+01  0.18726422033E+02  0.00000000000E+00 0.  1.
         11    1    3    3    0    0  0.10827548450E+02  0.90169584316E+01 -0.28181052616E+02  0.31507349485E+02  0.51100000000E-03 0. -1.
        -11    1    3    3    0    0  0.71607977583E+01  0.40153053654E+01  0.53093811499E+01  0.97769744895E+01  0.51100000000E-03 0.  1.
         12    1    3    3    0    0 -0.21658343521E+02  0.52991996996E+01  0.21791186405E+02  0.31177253992E+02  0.00000000000E+00 0. -1.
</event>
<event>
 7    1  0.3758561E-013  0.7246155E+02  0.7816164E-02  0.1226708E+00
        -11   -1    0    0    0    0  0.00000000000E+00  0.00000000000E+00  0.45593999997E+02  0.45594000000E+02  0.51100000000E-03 0.  1.
         11   -1    0    0    0    0 -0.00000000000E+00 -0.00000000000E+00 -0.45593999997E+02  0.45594000000E+02  0.51100000000E-03 0. -1.
    9900012    2    1    2    0    0 -0.17389951814E+02  0.39059928549E+01  0.57456763261E+01  0.72461548101E+02  0.69999971090E+02 0.  0.
        -12    1    1    2    0    0  0.17389951814E+02 -0.39059928549E+01 -0.57456763261E+01  0.18726451899E+02  0.00000000000E+00 0.  1.
         11    1    3    3    0    0 -0.14278666058E+01  0.63901438179E+01 -0.11477396190E+01  0.66475595184E+01  0.51100000000E-03 0. -1.
        -11    1    3    3    0    0 -0.39338938036E+02  0.21478238606E+01  0.12498215935E+02  0.41332439983E+02  0.51100000000E-03 0.  1.
         12    1    3    3    0    0  0.23376852828E+02 -0.46319748235E+01 -0.56047999903E+01  0.24481548600E+02  0.00000000000E+00 0. -1.
</event>
<event>
 7    1  0.3758561E-013  0.7246158E+02  0.7816164E-02  0.1226708E+00
        -11   -1    0    0    0    0  0.00000000000E+00  0.00000000000E+00  0.45593999997E+02  0.45594000000E+02  0.51100000000E-03 0.  1.
         11   -1    0    0    0    0 -0.00000000000E+00 -0.00000000000E+00 -0.45593999997E+02  0.45594000000E+02  0.51100000000E-03 0. -1.
    9900012    2    1    2    0    0  0.79033773796E+01 -0.34383357875E+01 -0.16625082927E+02  0.72461577242E+02  0.70000009051E+02 0.  0.
        -12    1    1    2    0    0 -0.79033773796E+01  0.34383357875E+01  0.16625082927E+02  0.18726422758E+02  0.00000000000E+00 0.  1.
         11    1    3    3    0    0  0.13253697408E+02 -0.34024547028E+01 -0.11760906483E+02  0.18043173628E+02  0.51100000000E-03 0. -1.
        -11    1    3    3    0    0  0.15657441816E+02 -0.19792471344E+02 -0.41167641130E+01  0.25570396030E+02  0.51100000000E-03 0.  1.
         12    1    3    3    0    0 -0.21007761844E+02  0.19756590259E+02 -0.74741233065E+00  0.28848007584E+02  0.00000000000E+00 0. -1.
</event>
<event>
 7    1  0.3758561E-013  0.7246152E+02  0.7816164E-02  0.1226708E+00
        -11   -1    0    0    0    0  0.00000000000E+00  0.00000000000E+00  0.45593999997E+02  0.45594000000E+02  0.51100000000E-03 0.  1.
         11   -1    0    0    0    0 -0.00000000000E+00 -0.00000000000E+00 -0.45593999997E+02  0.45594000000E+02  0.51100000000E-03 0. -1.
    9900012    2    1    2    0    0 -0.59680897608E+01  0.16461339439E+02  0.66398313772E+01  0.72461517356E+02  0.69999931038E+02 0.  0.
        -12    1    1    2    0    0  0.59680897608E+01 -0.16461339439E+02 -0.66398313772E+01  0.18726482644E+02  0.00000000000E+00 0.  1.
         11    1    3    3    0    0 -0.13711034841E+02 -0.10668306620E+02 -0.12760618046E+01  0.17419344894E+02  0.51100000000E-03 0. -1.
        -11    1    3    3    0    0  0.77469079581E+00 -0.13117645049E+02 -0.11872167014E+01  0.13194022935E+02  0.51100000000E-03 0.  1.
         12    1    3    3    0    0  0.69682542848E+01  0.40247291107E+02  0.91031098833E+01  0.41848149526E+02  0.00000000000E+00 0. -1.
</event>
<event>
 7    1  0.3758561E-013  0.7246156E+02  0.7816164E-02  0.1226708E+00
        -11   -1    0    0    0    0  0.00000000000E+00  0.00000000000E+00  0.45593999997E+02  0.45594000000E+02  0.51100000000E-03 0.  1.
         11   -1    0    0    0    0 -0.00000000000E+00 -0.00000000000E+00 -0.45593999997E+02  0.45594000000E+02  0.51100000000E-03 0. -1.
    9900012    2    1    2    0    0  0.18515401011E+02  0.15581845611E+01 -0.23305765089E+01  0.72461558785E+02  0.69999985007E+02 0.  0.
        -12    1    1    2    0    0 -0.18515401011E+02 -0.15581845611E+01  0.23305765089E+01  0.18726441215E+02  0.00000000000E+00 0.  1.
         11    1    3    3    0    0 -0.12141136574E+02  0.90475912201E+01  0.14768712995E+01  0.15213390592E+02  0.51100000000E-03 0.  1.
        -11    1    3    3    0    0 -0.70315924672E+01 -0.25046631666E+01 -0.15725771195E+02  0.17407369420E+02  0.51100000000E-03 0. -1.
        -12    1    3    3    0    0  0.37688130052E+02 -0.49847434925E+01  0.11918323386E+02  0.39840798773E+02  0.00000000000E+00 0.  1.
</event>
<event>
 7    1  0.3758561E-013  0.7246145E+02  0.7816164E-02  0.1226708E+00
        -11   -1    0    0    0    0  0.00000000000E+00  0.00000000000E+00  0.45593999997E+02  0.45594000000E+02  0.51100000000E-03 0. -1.
         11   -1    0    0    0    0 -0.00000000000E+00 -0.00000000000E+00 -0.45593999997E+02  0.45594000000E+02  0.51100000000E-03 0.  1.
    9900012    2    1    2    0    0 -0.10387500651E+02  0.26988997117E+01  0.15345988924E+02  0.72461451853E+02  0.69999845708E+02 0.  0.
        -12    1    1    2    0    0  0.10387500651E+02 -0.26988997117E+01 -0.15345988924E+02  0.18726548147E+02  0.00000000000E+00 0.  1.
         11    1    3    3    0    0  0.12242466378E+02  0.53707032250E+01  0.18142344800E+01  0.13491252097E+02  0.51100000000E-03 0. -1.
        -11    1    3    3    0    0 -0.31488361998E+02  0.12418178790E+02 -0.41403653174E+01  0.34100890473E+02  0.51100000000E-03 0.  1.
         12    1    3    3    0    0  0.88583949698E+01 -0.15089982303E+02  0.17672119762E+02  0.24869309283E+02  0.00000000000E+00 0. -1.
</event>
<event>
 7    1  0.3758561E-013  0.7246166E+02  0.7816164E-02  0.1226708E+00
        -11   -1    0    0    0    0  0.00000000000E+00  0.00000000000E+00  0.45593999997E+02  0.45594000000E+02  0.51100000000E-03 0.  1.
         11   -1    0    0    0    0 -0.00000000000E+00 -0.00000000000E+00 -0.45593999997E+02  0.45594000000E+02  0.51100000000E-03 0. -1.
    9900012    2    1    2    0    0 -0.11970439577E+02  0.36273364516E+01  0.13936523309E+02  0.72461663590E+02  0.70000121535E+02 0.  0.
        -12    1    1    2    0    0  0.11970439577E+02 -0.36273364516E+01 -0.13936523309E+02  0.18726336410E+02  0.00000000000E+00 0.  1.
         11    1    3    3    0    0  0.10078611543E+02  0.21755911403E+02 -0.20559883354E+01  0.24065019840E+02  0.51100000000E-03 0. -1.
        -11    1    3    3    0    0  0.61034009344E+01 -0.11748974245E+02  0.14289457875E+02  0.19480208043E+02  0.51100000000E-03 0.  1.
         12    1    3    3    0    0 -0.28152452054E+02 -0.63796007061E+01  0.17030537698E+01  0.28916435707E+02  0.00000000000E+00 0. -1.
</event>
<event>
 7    1  0.3758561E-013  0.7246149E+02  0.7816164E-02  0.1226708E+00
        -11   -1    0    0    0    0  0.00000000000E+00  0.00000000000E+00  0.45593999997E+02  0.45594000000E+02  0.51100000000E-03 0.  1.
         11   -1    0    0    0    0 -0.00000000000E+00 -0.00000000000E+00 -0.45593999997E+02  0.45594000000E+02  0.51100000000E-03 0. -1.
    9900012    2    1    2    0    0 -0.45713164400E+01  0.48258402049E+01 -0.17507037776E+02  0.72461493669E+02  0.69999900181E+02 0.  0.
        -12    1    1    2    0    0  0.45713164400E+01 -0.48258402049E+01  0.17507037776E+02  0.18726506331E+02  0.00000000000E+00 0.  1.
         11    1    3    3    0    0 -0.35994655495E+01 -0.70628924141E+00 -0.36322425794E+01  0.51621878260E+01  0.51100000000E-03 0. -1.
        -11    1    3    3    0    0  0.10911979768E+01 -0.15068354496E+02  0.21520257892E+02  0.26293868491E+02  0.51100000000E-03 0.  1.
         12    1    3    3    0    0 -0.20630488673E+01  0.20600483943E+02 -0.35395053088E+02  0.41005437352E+02  0.00000000000E+00 0. -1.
</event>
<event>
 7    1  0.3758561E-013  0.7246158E+02  0.7816164E-02  0.1226708E+00
        -11   -1    0    0    0    0  0.00000000000E+00  0.00000000000E+00  0.45593999997E+02  0.45594000000E+02  0.51100000000E-03 0.  1.
         11   -1    0    0    0    0 -0.00000000000E+00 -0.00000000000E+00 -0.45593999997E+02  0.45594000000E+02  0.51100000000E-03 0. -1.
    9900012    2    1    2    0    0 -0.11966039878E+02  0.14377970830E+02 -0.87551226637E+00  0.72461583438E+02  0.70000017121E+02 0.  0.
        -12    1    1    2    0    0  0.11966039878E+02 -0.14377970830E+02  0.87551226637E+00  0.18726416562E+02  0.00000000000E+00 0.  1.
         11    1    3    3    0    0 -0.54573387420E+01  0.31841939556E+01  0.16583690100E+02  0.17746560650E+02  0.51100000000E-03 0. -1.
        -11    1    3    3    0    0  0.13388571569E+02 -0.14211777599E+02 -0.78594021627E+01  0.21047533675E+02  0.51100000000E-03 0.  1.
         12    1    3    3    0    0 -0.19897272704E+02  0.25405554474E+02 -0.95998002037E+01  0.33667489113E+02  0.00000000000E+00 0. -1.
</event>
<event>
 7    1  0.3758561E-013  0.7246158E+02  0.7816164E-02  0.1226708E+00
        -11   -1    0    0    0    0  0.00000000000E+00  0.00000000000E+00  0.45593999997E+02  0.45594000000E+02  0.51100000000E-03 0.  1.
         11   -1    0    0    0    0 -0.00000000000E+00 -0.00000000000E+00 -0.45593999997E+02  0.45594000000E+02  0.51100000000E-03 0. -1.
    9900012    2    1    2    0    0  0.14173551005E+02 -0.75203418447E+01 -0.96557548129E+01  0.72461583082E+02  0.70000016659E+02 0.  0.
        -12    1    1    2    0    0 -0.14173551005E+02  0.75203418447E+01  0.96557548129E+01  0.18726416918E+02  0.00000000000E+00 0.  1.
         11    1    3    3    0    0 -0.74028488505E+01  0.17690451198E+02 -0.44994423182E+01  0.19697695706E+02  0.51100000000E-03 0. -1.
        -11    1    3    3    0    0  0.50207047524E+01 -0.65187825030E+00 -0.19292139818E+02  0.19945402489E+02  0.51100000000E-03 0.  1.
        -12    1    3    3    0    0  0.16555695104E+02 -0.24558914793E+02  0.14135827323E+02  0.32818484887E+02  0.00000000000E+00 0.  1.
</event>
<event>
 7    1  0.3758561E-013  0.7246155E+02  0.7816164E-02  0.1226708E+00
        -11   -1    0    0    0    0  0.00000000000E+00  0.00000000000E+00  0.45593999997E+02  0.45594000000E+02  0.51100000000E-03 0.  1.
         11   -1    0    0    0    0 -0.00000000000E+00 -0.00000000000E+00 -0.45593999997E+02  0.45594000000E+02  0.51100000000E-03 0. -1.
    9900012    2    1    2    0    0 -0.72544379927E+01  0.40280864284E+01 -0.16787722368E+02  0.72461548837E+02  0.69999972048E+02 0.  0.
        -12    1    1    2    0    0  0.72544379927E+01 -0.40280864284E+01  0.16787722368E+02  0.18726451163E+02  0.00000000000E+00 0.  1.
         11    1    3    3    0    0 -0.48756859040E+01  0.12140135436E+02 -0.14503541906E+02  0.19532227971E+02  0.51100000000E-03 0. -1.
        -11    1    3    3    0    0 -0.53976945909E+00  0.19330325262E+02  0.11147564967E+02  0.22320865368E+02  0.51100000000E-03 0.  1.
         12    1    3    3    0    0 -0.18389826296E+01 -0.27442374270E+02 -0.13431745429E+02  0.30608455498E+02  0.00000000000E+00 0. -1.
</event>
<event>
 7    1  0.3758561E-013  0.7246184E+02  0.7816164E-02  0.1226707E+00
        -11   -1    0    0    0    0  0.00000000000E+00  0.00000000000E+00  0.45593999997E+02  0.45594000000E+02  0.51100000000E-03 0. -1.
         11   -1    0    0    0    0 -0.00000000000E+00 -0.00000000000E+00 -0.45593999997E+02  0.45594000000E+02  0.51100000000E-03 0.  1.
    9900012    2    1    2    0    0 -0.47561690434E+01 -0.10364584120E+02  0.14853394781E+02  0.72461839569E+02  0.70000350780E+02 0.  0.
        -12    1    1    2    0    0  0.47561690434E+01  0.10364584120E+02 -0.14853394781E+02  0.18726160431E+02  0.00000000000E+00 0.  1.
         11    1    3    3    0    0 -0.25017257376E+02 -0.14271258316E+02  0.69745654221E+01  0.29634043660E+02  0.51100000000E-03 0. -1.
        -11    1    3    3    0    0 -0.21497465144E+01  0.55510623443E+01 -0.11633084094E+02  0.13067683384E+02  0.51100000000E-03 0.  1.
        -12    1    3    3    0    0  0.22410834847E+02 -0.16443881486E+01  0.19511913453E+02  0.29760112526E+02  0.00000000000E+00 0.  1.
</event>
<event>
 7    1  0.3758561E-013  0.7246156E+02  0.7816164E-02  0.1226708E+00
        -11   -1    0    0    0    0  0.00000000000E+00  0.00000000000E+00  0.45593999997E+02  0.45594000000E+02  0.51100000000E-03 0.  1.
         11   -1    0    0    0    0 -0.00000000000E+00 -0.00000000000E+00 -0.45593999997E+02  0.45594000000E+02  0.51100000000E-03 0. -1.
    9900012    2    1    2    0    0 -0.51190280666E+01 -0.17901651043E+02  0.20014589088E+01  0.72461564242E+02  0.69999992116E+02 0.  0.
        -12    1    1    2    0    0  0.51190280666E+01  0.17901651043E+02 -0.20014589088E+01  0.18726435758E+02  0.00000000000E+00 0.  1.
         11    1    3    3    0    0  0.71280851753E+00 -0.95940962755E+01  0.15730569457E+01  0.97482966585E+01  0.51100000000E-03 0. -1.
        -11    1    3    3    0    0  0.25074596130E+02 -0.14554130194E+02  0.84097436507E+01  0.30187445491E+02  0.51100000000E-03 0.  1.
         12    1    3    3    0    0 -0.30906432714E+02  0.62465754258E+01 -0.79813416875E+01  0.32525822092E+02  0.00000000000E+00 0. -1.
</event>
<event>
 7    1  0.3758561E-013  0.7246151E+02  0.7816164E-02  0.1226708E+00
        -11   -1    0    0    0    0  0.00000000000E+00  0.00000000000E+00  0.45593999997E+02  0.45594000000E+02  0.51100000000E-03 0. -1.
         11   -1    0    0    0    0 -0.00000000000E+00 -0.00000000000E+00 -0.45593999997E+02  0.45594000000E+02  0.51100000000E-03 0.  1.
    9900012    2    1    2    0    0  0.47520088159E+01 -0.11613605949E+02  0.13900500745E+02  0.72461512024E+02  0.69999924093E+02 0.  0.
        -12    1    1    2    0    0 -0.47520088159E+01  0.11613605949E+02 -0.13900500745E+02  0.18726487976E+02  0.00000000000E+00 0.  1.
         11    1    3    3    0    0 -0.12189546115E+02 -0.28419227204E+02  0.35776540437E+01  0.31129361029E+02  0.51100000000E-03 0. -1.
        -11    1    3    3    0    0  0.15412266030E+02 -0.10770189794E+01 -0.64730487078E+01  0.16751067843E+02  0.51100000000E-03 0.  1.
        -12    1    3    3    0    0  0.15292889011E+01  0.17882640235E+02  0.16795895409E+02  0.24581083152E+02  0.00000000000E+00 0.  1.
</event>
<event>
 7    1  0.3758561E-013  0.7246157E+02  0.7816164E-02  0.1226708E+00
        -11   -1    0    0    0    0  0.00000000000E+00  0.00000000000E+00  0.45593999997E+02  0.45594000000E+02  0.51100000000E-03 0.  1.
         11   -1    0    0    0    0 -0.00000000000E+00 -0.00000000000E+00 -0.45593999997E+02  0.45594000000E+02  0.51100000000E-03 0. -1.
    9900012    2    1    2    0    0  0.15479273046E+02  0.80660149630E+01  0.67831283838E+01  0.72461566221E+02  0.69999994694E+02 0.  0.
        -12    1    1    2    0    0 -0.15479273046E+02 -0.80660149630E+01 -0.67831283838E+01  0.18726433779E+02  0.00000000000E+00 0.  1.
         11    1    3    3    0    0  0.13709460516E+02  0.28770883171E+01  0.17218547942E+01  0.14113529998E+02  0.51100000000E-03 0. -1.
        -11    1    3    3    0    0  0.28301778087E+02  0.75260134770E+01  0.10597889670E+02  0.31143968717E+02  0.51100000000E-03 0.  1.
         12    1    3    3    0    0 -0.26531965557E+02 -0.23370868311E+01 -0.55366160805E+01  0.27204067505E+02  0.00000000000E+00 0. -1.
</event>
<event>
 7    1  0.3758561E-013  0.7246154E+02  0.7816164E-02  0.1226708E+00
        -11   -1    0    0    0    0  0.00000000000E+00  0.00000000000E+00  0.45593999997E+02  0.45594000000E+02  0.51100000000E-03 0. -1.
         11   -1    0    0    0    0 -0.00000000000E+00 -0.00000000000E+00 -0.45593999997E+02  0.45594000000E+02  0.51100000000E-03 0.  1.
    9900012    2    1    2    0    0  0.27474915557E+01 -0.14234136874E+02  0.11854151695E+02  0.72461540783E+02  0.69999961556E+02 0.  0.
        -12    1    1    2    0    0 -0.27474915557E+01  0.14234136874E+02 -0.11854151695E+02  0.18726459217E+02  0.00000000000E+00 0.  1.
         11    1    3    3    0    0  0.61699749642E+01 -0.17879821358E+02  0.22769071133E+02  0.29600459512E+02  0.51100000000E-03 0. -1.
        -11    1    3    3    0    0  0.15737335021E+02 -0.77649609734E+01  0.10002747733E+01  0.17577226242E+02  0.51100000000E-03 0.  1.
        -12    1    3    3    0    0 -0.19159818430E+02  0.11410645457E+02 -0.11915194211E+02  0.25283855028E+02  0.00000000000E+00 0.  1.
</event>
<event>
 7    1  0.3758561E-013  0.7246155E+02  0.7816164E-02  0.1226708E+00
        -11   -1    0    0    0    0  0.00000000000E+00  0.00000000000E+00  0.45593999997E+02  0.45594000000E+02  0.51100000000E-03 0.  1.
         11   -1    0    0    0    0 -0.00000000000E+00 -0.00000000000E+00 -0.45593999997E+02  0.45594000000E+02  0.51100000000E-03 0. -1.
    9900012    2    1    2    0    0 -0.11709099175E+02  0.18514795296E+01 -0.14496511123E+02  0.72461553068E+02  0.69999977560E+02 0.  0.
        -12    1    1    2    0    0  0.11709099175E+02 -0.18514795296E+01  0.14496511123E+02  0.18726446932E+02  0.00000000000E+00 0.  1.
         11    1    3    3    0    0 -0.16313176315E+02  0.13867116020E+02  0.44221602800E+01  0.21862573728E+02  0.51100000000E-03 0. -1.
        -11    1    3    3    0    0  0.23080175234E+02  0.27652206071E+01 -0.85848369735E+01  0.24779837771E+02  0.51100000000E-03 0.  1.
         12    1    3    3    0    0 -0.18476098095E+02 -0.14780857098E+02 -0.10333834430E+02  0.25819141569E+02  0.00000000000E+00 0. -1.
</event>
<event>
 7    1  0.3758561E-013  0.7246157E+02  0.7816164E-02  0.1226708E+00
        -11   -1    0    0    0    0  0.00000000000E+00  0.00000000000E+00  0.45593999997E+02  0.45594000000E+02  0.51100000000E-03 0. -1.
         11   -1    0    0    0    0 -0.00000000000E+00 -0.00000000000E+00 -0.45593999997E+02  0.45594000000E+02  0.51100000000E-03 0.  1.
    9900012    2    1    2    0    0 -0.82148166156E+01 -0.11005781106E+02 -0.12730626456E+02  0.72461567352E+02  0.69999996167E+02 0.  0.
        -12    1    1    2    0    0  0.82148166156E+01  0.11005781106E+02  0.12730626456E+02  0.18726432648E+02  0.00000000000E+00 0.  1.
         11    1    3    3    0    0  0.34718472584E+01  0.77852322601E+01  0.12684089344E+02  0.15282332528E+02  0.51100000000E-03 0. -1.
        -11    1    3    3    0    0  0.91393839193E+01 -0.15414023547E+01  0.93300170197E+01  0.13151177799E+02  0.51100000000E-03 0.  1.
         12    1    3    3    0    0 -0.20826047793E+02 -0.17249611011E+02 -0.34744732820E+02  0.44028057025E+02  0.00000000000E+00 0. -1.
</event>
<event>
 7    1  0.3758561E-013  0.7246139E+02  0.7816164E-02  0.1226708E+00
        -11   -1    0    0    0    0  0.00000000000E+00  0.00000000000E+00  0.45593999997E+02  0.45594000000E+02  0.51100000000E-03 0.  1.
         11   -1    0    0    0    0 -0.00000000000E+00 -0.00000000000E+00 -0.45593999997E+02  0.45594000000E+02  0.51100000000E-03 0. -1.
    9900012    2    1    2    0    0 -0.13287121226E+02 -0.11979555207E+02  0.55343021296E+01  0.72461392366E+02  0.69999768215E+02 0.  0.
        -12    1    1    2    0    0  0.13287121226E+02  0.11979555207E+02 -0.55343021296E+01  0.18726607634E+02  0.00000000000E+00 0.  1.
         11    1    3    3    0    0 -0.13953978709E+02 -0.22435582327E+02 -0.79114591009E+01  0.27580066380E+02  0.51100000000E-03 0. -1.
        -11    1    3    3    0    0  0.19514510385E+02 -0.12672778293E+01  0.11290138712E+02  0.22580729418E+02  0.51100000000E-03 0.  1.
        -12    1    3    3    0    0 -0.18847652902E+02  0.11723304950E+02  0.21556225187E+01  0.22300596568E+02  0.00000000000E+00 0.  1.
</event>
<event>
 7    1  0.3758561E-013  0.7246163E+02  0.7816164E-02  0.1226708E+00
        -11   -1    0    0    0    0  0.00000000000E+00  0.00000000000E+00  0.45593999997E+02  0.45594000000E+02  0.51100000000E-03 0. -1.
         11   -1    0    0    0    0 -0.00000000000E+00 -0.00000000000E+00 -0.45593999997E+02  0.45594000000E+02  0.51100000000E-03 0.  1.
    9900012    2    1    2    0    0 -0.28751187484E+01 -0.18295263506E+02 -0.27737746807E+01  0.72461633546E+02  0.70000082397E+02 0.  0.
        -12    1    1    2    0    0  0.28751187484E+01  0.18295263506E+02  0.27737746807E+01  0.18726366454E+02  0.00000000000E+00 0.  1.
         11    1    3    3    0    0 -0.11125337621E+02 -0.12003409812E+02  0.10929107595E+02  0.19679948612E+02  0.51100000000E-03 0. -1.
        -11    1    3    3    0    0 -0.22361866226E+01 -0.20826561164E+02  0.98814005698E+01  0.23160057383E+02  0.51100000000E-03 0.  1.
        -12    1    3    3    0    0  0.10486405495E+02  0.14534707469E+02 -0.23584282846E+02  0.29621627551E+02  0.00000000000E+00 0.  1.
</event>
<event>
 7    1  0.3758561E-013  0.7246155E+02  0.7816164E-02  0.1226708E+00
        -11   -1    0    0    0    0  0.00000000000E+00  0.00000000000E+00  0.45593999997E+02  0.45594000000E+02  0.51100000000E-03 0. -1.
         11   -1    0    0    0    0 -0.00000000000E+00 -0.00000000000E+00 -0.45593999997E+02  0.45594000000E+02  0.51100000000E-03 0.  1.
    9900012    2    1    2    0    0 -0.13524292056E+01 -0.13788773586E+02  0.12598437594E+02  0.72461548879E+02  0.69999972103E+02 0.  0.
        -12    1    1    2    0    0  0.13524292056E+01  0.13788773586E+02 -0.12598437594E+02  0.18726451121E+02  0.00000000000E+00 0.  1.
         11    1    3    3    0    0  0.13447885538E+02  0.11464576079E+01 -0.83004899504E+01  0.15844813794E+02  0.51100000000E-03 0. -1.
        -11    1    3    3    0    0  0.16905211437E+02 -0.11051519458E+02  0.44243010741E+01  0.20675993237E+02  0.51100000000E-03 0.  1.
         12    1    3    3    0    0 -0.31705526181E+02 -0.38837117357E+01  0.16474626471E+02  0.35940741848E+02  0.00000000000E+00 0. -1.
</event>
<event>
 7    1  0.3758561E-013  0.7246162E+02  0.7816164E-02  0.1226708E+00
        -11   -1    0    0    0    0  0.00000000000E+00  0.00000000000E+00  0.45593999997E+02  0.45594000000E+02  0.51100000000E-03 0. -1.
         11   -1    0    0    0    0 -0.00000000000E+00 -0.00000000000E+00 -0.45593999997E+02  0.45594000000E+02  0.51100000000E-03 0.  1.
    9900012    2    1    2    0    0  0.16082357721E+02 -0.87066554129E+01 -0.40285398199E+01  0.72461622576E+02  0.70000068107E+02 0.  0.
        -12    1    1    2    0    0 -0.16082357721E+02  0.87066554129E+01  0.40285398199E+01  0.18726377424E+02  0.00000000000E+00 0.  1.
         11    1    3    3    0    0 -0.19495759994E+02  0.16246519825E+02 -0.17690709931E+01  0.25439411876E+02  0.51100000000E-03 0. -1.
        -11    1    3    3    0    0  0.91025703258E+01 -0.48920914919E+01 -0.83068904981E+01  0.13258724513E+02  0.51100000000E-03 0.  1.
        -12    1    3    3    0    0  0.26475547389E+02 -0.20061083746E+02  0.60474216712E+01  0.33763486187E+02  0.00000000000E+00 0.  1.
</event>
<event>
 7    1  0.3758561E-013  0.7246170E+02  0.7816164E-02  0.1226708E+00
        -11   -1    0    0    0    0  0.00000000000E+00  0.00000000000E+00  0.45593999997E+02  0.45594000000E+02  0.51100000000E-03 0. -1.
         11   -1    0    0    0    0 -0.00000000000E+00 -0.00000000000E+00 -0.45593999997E+02  0.45594000000E+02  0.51100000000E-03 0.  1.
    9900012    2    1    2    0    0 -0.35323211458E+01 -0.18254927307E+02  0.22259151584E+01  0.72461698658E+02  0.70000167217E+02 0.  0.
        -12    1    1    2    0    0  0.35323211458E+01  0.18254927307E+02 -0.22259151584E+01  0.18726301342E+02  0.00000000000E+00 0.  1.
         11    1    3    3    0    0  0.23482040549E+02 -0.21334276038E+01  0.10328117693E+02  0.25741557004E+02  0.51100000000E-03 0. -1.
        -11    1    3    3    0    0  0.60431317318E+00  0.62470982223E+01  0.58108027381E+01  0.85531783176E+01  0.51100000000E-03 0.  1.
        -12    1    3    3    0    0 -0.27618674868E+02 -0.22368597925E+02 -0.13913005272E+02  0.38166963336E+02  0.00000000000E+00 0.  1.
</event>
<event>
 7    1  0.3854009E-013  0.7246181E+02  0.7816164E-02  0.1226707E+00
        -11   -1    0    0    0    0  0.00000000000E+00  0.00000000000E+00  0.45593999997E+02  0.45594000000E+02  0.51100000000E-03 0. -1.
         11   -1    0    0    0    0 -0.00000000000E+00 -0.00000000000E+00 -0.45593999997E+02  0.45594000000E+02  0.51100000000E-03 0.  1.
    9900012    2    1    2    0    0 -0.40124225502E+01  0.81607496900E+01  0.16369879916E+02  0.72461806081E+02  0.70000307156E+02 0.  0.
        -12    1    1    2    0    0  0.40124225502E+01 -0.81607496900E+01 -0.16369879916E+02  0.18726193919E+02  0.00000000000E+00 0.  1.
         11    1    3    3    0    0  0.81376895904E+01 -0.86031385980E+00 -0.96365644406E+00  0.82395852935E+01  0.51100000000E-03 0. -1.
        -11    1    3    3    0    0  0.99858493455E+01 -0.95241393409E+01 -0.15328395777E+02  0.20624891144E+02  0.51100000000E-03 0.  1.
         12    1    3    3    0    0 -0.22135961486E+02  0.18545202891E+02  0.32661932137E+02  0.43597329644E+02  0.00000000000E+00 0. -1.
</event>
<event>
 7    1  0.3758561E-013  0.7246156E+02  0.7816164E-02  0.1226708E+00
        -11   -1    0    0    0    0  0.00000000000E+00  0.00000000000E+00  0.45593999997E+02  0.45594000000E+02  0.51100000000E-03 0. -1.
         11   -1    0    0    0    0 -0.00000000000E+00 -0.00000000000E+00 -0.45593999997E+02  0.45594000000E+02  0.51100000000E-03 0.  1.
    9900012    2    1    2    0    0  0.56216621125E+01  0.95312942408E+01  0.15107313466E+02  0.72461559469E+02  0.69999985897E+02 0.  0.
        -12    1    1    2    0    0 -0.56216621125E+01 -0.95312942408E+01 -0.15107313466E+02  0.18726440531E+02  0.00000000000E+00 0.  1.
         11    1    3    3    0    0 -0.88837191733E+01 -0.18367776315E+02 -0.73813420643E+01  0.21697462617E+02  0.51100000000E-03 0. -1.
        -11    1    3    3    0    0  0.15791067400E+02  0.67822949294E+01 -0.32041450159E+01  0.17482101696E+02  0.51100000000E-03 0.  1.
         12    1    3    3    0    0 -0.12856861147E+01  0.21116775626E+02  0.25692800546E+02  0.33281995156E+02  0.00000000000E+00 0. -1.
</event>
<event>
 7    1  0.3758561E-013  0.7246157E+02  0.7816164E-02  0.1226708E+00
        -11   -1    0    0    0    0  0.00000000000E+00  0.00000000000E+00  0.45593999997E+02  0.45594000000E+02  0.51100000000E-03 0. -1.
         11   -1    0    0    0    0 -0.00000000000E+00 -0.00000000000E+00 -0.45593999997E+02  0.45594000000E+02  0.51100000000E-03 0.  1.
    9900012    2    1    2    0    0 -0.82659292877E+01  0.21287827020E+01  0.16667984196E+02  0.72461574822E+02  0.70000005899E+02 0.  0.
        -12    1    1    2    0    0  0.82659292877E+01 -0.21287827020E+01 -0.16667984196E+02  0.18726425178E+02  0.00000000000E+00 0.  1.
         11    1    3    3    0    0  0.57954481990E+01  0.38997371391E+01 -0.28753406463E+01  0.75539892557E+01  0.51100000000E-03 0. -1.
        -11    1    3    3    0    0 -0.23306639119E+02 -0.18460585030E+02 -0.85600059106E+01  0.30939720880E+02  0.51100000000E-03 0.  1.
         12    1    3    3    0    0  0.92452616323E+01  0.16689630593E+02  0.28103330753E+02  0.33967864687E+02  0.00000000000E+00 0. -1.
</event>
<event>
 7    1  0.3758561E-013  0.7246147E+02  0.7816164E-02  0.1226708E+00
        -11   -1    0    0    0    0  0.00000000000E+00  0.00000000000E+00  0.45593999997E+02  0.45594000000E+02  0.51100000000E-03 0.  1.
         11   -1    0    0    0    0 -0.00000000000E+00 -0.00000000000E+00 -0.45593999997E+02  0.45594000000E+02  0.51100000000E-03 0. -1.
    9900012    2    1    2    0    0  0.34145970060E+01  0.12482978175E+02  0.13535090960E+02  0.72461470580E+02  0.69999870104E+02 0.  0.
        -12    1    1    2    0    0 -0.34145970060E+01 -0.12482978175E+02 -0.13535090960E+02  0.18726529420E+02  0.00000000000E+00 0.  1.
         11    1    3    3    0    0  0.99348312368E+01  0.98995384768E+01 -0.13815464054E+01  0.14092920368E+02  0.51100000000E-03 0. -1.
        -11    1    3    3    0    0 -0.14822679789E+02  0.83830050552E+01  0.33287869355E+02  0.37390758970E+02  0.51100000000E-03 0.  1.
         12    1    3    3    0    0  0.83024455582E+01 -0.57995653574E+01 -0.18371231990E+02  0.20977791242E+02  0.00000000000E+00 0. -1.
</event>
<event>
 7    1  0.3758561E-013  0.7246156E+02  0.7816164E-02  0.1226708E+00
        -11   -1    0    0    0    0  0.00000000000E+00  0.00000000000E+00  0.45593999997E+02  0.45594000000E+02  0.51100000000E-03 0.  1.
         11   -1    0    0    0    0 -0.00000000000E+00 -0.00000000000E+00 -0.45593999997E+02  0.45594000000E+02  0.51100000000E-03 0. -1.
    9900012    2    1    2    0    0  0.15399990393E+01  0.28972059732E+01 -0.18436764060E+02  0.72461556972E+02  0.69999982645E+02 0.  0.
        -12    1    1    2    0    0 -0.15399990393E+01 -0.28972059732E+01  0.18436764060E+02  0.18726443028E+02  0.00000000000E+00 0.  1.
         11    1    3    3    0    0 -0.40040761063E+01 -0.69852318755E+01  0.67993073198E+00  0.80801235065E+01  0.51100000000E-03 0. -1.
        -11    1    3    3    0    0 -0.13178773087E+02 -0.13125516780E+02  0.11406374681E+02  0.21818905437E+02  0.51100000000E-03 0.  1.
         12    1    3    3    0    0  0.18722848233E+02  0.23007954629E+02 -0.30523069473E+02  0.42562528029E+02  0.00000000000E+00 0. -1.
</event>
<event>
 7    1  0.3758561E-013  0.7246160E+02  0.7816164E-02  0.1226708E+00
        -11   -1    0    0    0    0  0.00000000000E+00  0.00000000000E+00  0.45593999997E+02  0.45594000000E+02  0.51100000000E-03 0. -1.
         11   -1    0    0    0    0 -0.00000000000E+00 -0.00000000000E+00 -0.45593999997E+02  0.45594000000E+02  0.51100000000E-03 0.  1.
    9900012    2    1    2    0    0 -0.93766807036E+01  0.12021002888E+02  0.10874354446E+02  0.72461595218E+02  0.70000032467E+02 0.  0.
        -12    1    1    2    0    0  0.93766807036E+01 -0.12021002888E+02 -0.10874354446E+02  0.18726404782E+02  0.00000000000E+00 0.  1.
         11    1    3    3    0    0  0.42156890098E+01 -0.17158661937E+02  0.23223546375E+02  0.29180898201E+02  0.51100000000E-03 0. -1.
        -11    1    3    3    0    0 -0.71446087159E+00 -0.48977821741E+01 -0.24896056888E+01  0.55404748270E+01  0.51100000000E-03 0.  1.
        -12    1    3    3    0    0 -0.12877908842E+02  0.34077447000E+02 -0.98595862400E+01  0.37740222190E+02  0.00000000000E+00 0.  1.
</event>
<event>
 7    1  0.3758561E-013  0.7246152E+02  0.7816164E-02  0.1226708E+00
        -11   -1    0    0    0    0  0.00000000000E+00  0.00000000000E+00  0.45593999997E+02  0.45594000000E+02  0.51100000000E-03 0. -1.
         11   -1    0    0    0    0 -0.00000000000E+00 -0.00000000000E+00 -0.45593999997E+02  0.45594000000E+02  0.51100000000E-03 0.  1.
    9900012    2    1    2    0    0  0.89134034654E+01  0.16148635668E+02 -0.32332631701E+01  0.72461516454E+02  0.69999929863E+02 0.  0.
        -12    1    1    2    0    0 -0.89134034654E+01 -0.16148635668E+02  0.32332631701E+01  0.18726483546E+02  0.00000000000E+00 0.  1.
         11    1    3    3    0    0 -0.47159129979E+00  0.11659868521E+02 -0.17276866487E+02  0.20848622213E+02  0.51100000000E-03 0. -1.
        -11    1    3    3    0    0  0.53451951941E+01 -0.10649409377E+02 -0.14671966469E+02  0.18900995532E+02  0.51100000000E-03 0.  1.
         12    1    3    3    0    0  0.40397995711E+01  0.15138176523E+02  0.28715569787E+02  0.32711898710E+02  0.00000000000E+00 0. -1.
</event>
<event>
 7    1  0.3758561E-013  0.7246166E+02  0.7816164E-02  0.1226708E+00
        -11   -1    0    0    0    0  0.00000000000E+00  0.00000000000E+00  0.45593999997E+02  0.45594000000E+02  0.51100000000E-03 0. -1.
         11   -1    0    0    0    0 -0.00000000000E+00 -0.00000000000E+00 -0.45593999997E+02  0.45594000000E+02  0.51100000000E-03 0.  1.
    9900012    2    1    2    0    0 -0.36874915280E+01  0.13441007464E+02  0.12506696486E+02  0.72461662066E+02  0.70000119550E+02 0.  0.
        -12    1    1    2    0    0  0.36874915280E+01 -0.13441007464E+02 -0.12506696486E+02  0.18726337934E+02  0.00000000000E+00 0.  1.
         11    1    3    3    0    0 -0.18730017834E+02  0.27122009809E+02  0.17217420344E+02  0.37186779206E+02  0.51100000000E-03 0. -1.
        -11    1    3    3    0    0  0.53448241344E+01  0.88644279446E+01 -0.23847727532E+01  0.10622258195E+02  0.51100000000E-03 0.  1.
        -12    1    3    3    0    0  0.96977021718E+01 -0.22545430290E+02 -0.23259511050E+01  0.24652624666E+02  0.00000000000E+00 0.  1.
</event>
<event>
 7    1  0.3758561E-013  0.7246155E+02  0.7816164E-02  0.1226708E+00
        -11   -1    0    0    0    0  0.00000000000E+00  0.00000000000E+00  0.45593999997E+02  0.45594000000E+02  0.51100000000E-03 0.  1.
         11   -1    0    0    0    0 -0.00000000000E+00 -0.00000000000E+00 -0.45593999997E+02  0.45594000000E+02  0.51100000000E-03 0. -1.
    9900012    2    1    2    0    0  0.11266151025E+02 -0.14816572254E+02 -0.20549518452E+01  0.72461553478E+02  0.69999978093E+02 0.  0.
        -12    1    1    2    0    0 -0.11266151025E+02  0.14816572254E+02  0.20549518452E+01  0.18726446522E+02  0.00000000000E+00 0.  1.
         11    1    3    3    0    0 -0.65747376500E+01 -0.15902297766E+01 -0.33947875303E+01  0.75683940533E+01  0.51100000000E-03 0. -1.
        -11    1    3    3    0    0  0.18539651583E+02 -0.27778000929E+02  0.21722249681E+02  0.39839580167E+02  0.51100000000E-03 0.  1.
         12    1    3    3    0    0 -0.69876290849E+00  0.14551658452E+02 -0.20382413996E+02  0.25053579257E+02  0.00000000000E+00 0. -1.
</event>
<event>
 7    1  0.3758561E-013  0.7246163E+02  0.7816164E-02  0.1226708E+00
        -11   -1    0    0    0    0  0.00000000000E+00  0.00000000000E+00  0.45593999997E+02  0.45594000000E+02  0.51100000000E-03 0. -1.
         11   -1    0    0    0    0 -0.00000000000E+00 -0.00000000000E+00 -0.45593999997E+02  0.45594000000E+02  0.51100000000E-03 0.  1.
    9900012    2    1    2    0    0  0.28403983270E+00 -0.96895505311E+01  0.16022138376E+02  0.72461628588E+02  0.70000075938E+02 0.  0.
        -12    1    1    2    0    0 -0.28403983270E+00  0.96895505311E+01 -0.16022138376E+02  0.18726371412E+02  0.00000000000E+00 0.  1.
         11    1    3    3    0    0  0.25739237523E+01 -0.66029852083E+01 -0.11310471584E+02  0.13347331750E+02  0.51100000000E-03 0. -1.
        -11    1    3    3    0    0  0.13413075973E+02  0.17578099614E+02  0.98890296031E+00  0.22133190516E+02  0.51100000000E-03 0.  1.
         12    1    3    3    0    0 -0.15702959892E+02 -0.20664664937E+02  0.26343706999E+02  0.36981106322E+02  0.00000000000E+00 0. -1.
</event>
<event>
 7    1  0.3758561E-013  0.7246183E+02  0.7816164E-02  0.1226707E+00
        -11   -1    0    0    0    0  0.00000000000E+00  0.00000000000E+00  0.45593999997E+02  0.45594000000E+02  0.51100000000E-03 0. -1.
         11   -1    0    0    0    0 -0.00000000000E+00 -0.00000000000E+00 -0.45593999997E+02  0.45594000000E+02  0.51100000000E-03 0.  1.
    9900012    2    1    2    0    0  0.48238490400E+01  0.18055762359E+02  0.11786593828E+01  0.72461833498E+02  0.70000342870E+02 0.  0.
        -12    1    1    2    0    0 -0.48238490400E+01 -0.18055762359E+02 -0.11786593828E+01  0.18726166502E+02  0.00000000000E+00 0.  1.
         11    1    3    3    0    0 -0.53994711970E+01 -0.98511032594E+01  0.79771223541E+00  0.11262098814E+02  0.51100000000E-03 0. -1.
        -11    1    3    3    0    0  0.11545478538E+02 -0.14279153296E+02  0.41472216230E+01  0.18825295243E+02  0.51100000000E-03 0.  1.
        -12    1    3    3    0    0 -0.13221583012E+01  0.42186018915E+02 -0.37662744756E+01  0.42374439440E+02  0.00000000000E+00 0.  1.
</event>
<event>
 7    1  0.3758561E-013  0.7246156E+02  0.7816164E-02  0.1226708E+00
        -11   -1    0    0    0    0  0.00000000000E+00  0.00000000000E+00  0.45593999997E+02  0.45594000000E+02  0.51100000000E-03 0.  1.
         11   -1    0    0    0    0 -0.00000000000E+00 -0.00000000000E+00 -0.45593999997E+02  0.45594000000E+02  0.51100000000E-03 0. -1.
    9900012    2    1    2    0    0  0.72175359273E+01  0.31139399064E+01 -0.16996766322E+02  0.72461561150E+02  0.69999988088E+02 0.  0.
        -12    1    1    2    0    0 -0.72175359273E+01 -0.31139399064E+01  0.16996766322E+02  0.18726438850E+02  0.00000000000E+00 0.  1.
         11    1    3    3    0    0  0.78768086900E+01  0.15744353713E+02 -0.34547634527E+02  0.38774577247E+02  0.51100000000E-03 0. -1.
        -11    1    3    3    0    0 -0.16951138320E+01  0.55905750449E+01 -0.26914520833E+01  0.64320956782E+01  0.51100000000E-03 0.  1.
        -12    1    3    3    0    0  0.10358410693E+01 -0.18220988852E+02  0.20242320289E+02  0.27254888225E+02  0.00000000000E+00 0.  1.
</event>
<event>
 7    1  0.3758561E-013  0.7246155E+02  0.7816164E-02  0.1226708E+00
        -11   -1    0    0    0    0  0.00000000000E+00  0.00000000000E+00  0.45593999997E+02  0.45594000000E+02  0.51100000000E-03 0.  1.
         11   -1    0    0    0    0 -0.00000000000E+00 -0.00000000000E+00 -0.45593999997E+02  0.45594000000E+02  0.51100000000E-03 0. -1.
    9900012    2    1    2    0    0 -0.16673794635E+02  0.67534553182E+01 -0.52014775113E+01  0.72461549334E+02  0.69999972695E+02 0.  0.
        -12    1    1    2    0    0  0.16673794635E+02 -0.67534553182E+01  0.52014775113E+01  0.18726450666E+02  0.00000000000E+00 0.  1.
         11    1    3    3    0    0 -0.23428517829E+02 -0.16662645403E+02 -0.19897578290E+02  0.34963592802E+02  0.51100000000E-03 0. -1.
        -11    1    3    3    0    0  0.27956720320E+01  0.15841578065E+01 -0.62228577113E+01  0.70035202879E+01  0.51100000000E-03 0.  1.
        -12    1    3    3    0    0  0.39590511626E+01  0.21831942915E+02  0.20918958490E+02  0.30494436244E+02  0.00000000000E+00 0.  1.
</event>
<event>
 7    1  0.3758561E-013  0.7246159E+02  0.7816164E-02  0.1226708E+00
        -11   -1    0    0    0    0  0.00000000000E+00  0.00000000000E+00  0.45593999997E+02  0.45594000000E+02  0.51100000000E-03 0. -1.
         11   -1    0    0    0    0 -0.00000000000E+00 -0.00000000000E+00 -0.45593999997E+02  0.45594000000E+02  0.51100000000E-03 0.  1.
    9900012    2    1    2    0    0 -0.45028835868E+01  0.48984571727E+01 -0.17504499422E+02  0.72461592356E+02  0.70000028739E+02 0.  0.
        -12    1    1    2    0    0  0.45028835868E+01 -0.48984571727E+01  0.17504499422E+02  0.18726407644E+02  0.00000000000E+00 0.  1.
         11    1    3    3    0    0  0.94195751966E+00 -0.19966020010E+02  0.50602400686E+01  0.20618808618E+02  0.51100000000E-03 0. -1.
        -11    1    3    3    0    0 -0.71810801415E+01  0.13688983610E+02  0.92934237099E+01  0.18036737753E+02  0.51100000000E-03 0.  1.
        -12    1    3    3    0    0  0.17362390350E+01  0.11175493573E+02 -0.31858163200E+02  0.33806045984E+02  0.00000000000E+00 0.  1.
</event>
<event>
 7    1  0.3758561E-013  0.7246157E+02  0.7816164E-02  0.1226708E+00
        -11   -1    0    0    0    0  0.00000000000E+00  0.00000000000E+00  0.45593999997E+02  0.45594000000E+02  0.51100000000E-03 0.  1.
         11   -1    0    0    0    0 -0.00000000000E+00 -0.00000000000E+00 -0.45593999997E+02  0.45594000000E+02  0.51100000000E-03 0. -1.
    9900012    2    1    2    0    0 -0.10828099755E+02  0.36638026742E+01 -0.14832666590E+02  0.72461569681E+02  0.69999999200E+02 0.  0.
        -12    1    1    2    0    0  0.10828099755E+02 -0.36638026742E+01  0.14832666590E+02  0.18726430319E+02  0.00000000000E+00 0.  1.
         11    1    3    3    0    0 -0.23855212354E+02  0.94624360350E+01  0.74063031501E+01  0.26710712809E+02  0.51100000000E-03 0. -1.
        -11    1    3    3    0    0 -0.18585584058E+01  0.10874476978E+02  0.35826040578E+01  0.11599290538E+02  0.51100000000E-03 0.  1.
        -12    1    3    3    0    0  0.14885671005E+02 -0.16673110338E+02 -0.25821573798E+02  0.34151566333E+02  0.00000000000E+00 0.  1.
</event>
<event>
 7    1  0.3758561E-013  0.7246156E+02  0.7816164E-02  0.1226708E+00
        -11   -1    0    0    0    0  0.00000000000E+00  0.00000000000E+00  0.45593999997E+02  0.45594000000E+02  0.51100000000E-03 0.  1.
         11   -1    0    0    0    0 -0.00000000000E+00 -0.00000000000E+00 -0.45593999997E+02  0.45594000000E+02  0.51100000000E-03 0. -1.
    9900012    2    1    2    0    0 -0.39404462755E+01 -0.14335196124E+02  0.11386603718E+02  0.72461555890E+02  0.69999981236E+02 0.  0.
        -12    1    1    2    0    0  0.39404462755E+01  0.14335196124E+02 -0.11386603718E+02  0.18726444110E+02  0.00000000000E+00 0.  1.
         11    1    3    3    0    0 -0.11106660842E+02  0.93981186337E+01 -0.70082929004E+00  0.14566183813E+02  0.51100000000E-03 0. -1.
        -11    1    3    3    0    0  0.26085003005E+02 -0.21909310471E+02  0.17272858461E+02  0.38194199910E+02  0.51100000000E-03 0.  1.
         12    1    3    3    0    0 -0.18918788439E+02 -0.18240042861E+01 -0.51854254527E+01  0.19701172167E+02  0.00000000000E+00 0. -1.
</event>
<event>
 7    1  0.3758561E-013  0.7246156E+02  0.7816164E-02  0.1226708E+00
        -11   -1    0    0    0    0  0.00000000000E+00  0.00000000000E+00  0.45593999997E+02  0.45594000000E+02  0.51100000000E-03 0.  1.
         11   -1    0    0    0    0 -0.00000000000E+00 -0.00000000000E+00 -0.45593999997E+02  0.45594000000E+02  0.51100000000E-03 0. -1.
    9900012    2    1    2    0    0  0.14936169454E+02  0.11225522482E+02 -0.12562480753E+01  0.72461556873E+02  0.69999982517E+02 0.  0.
        -12    1    1    2    0    0 -0.14936169454E+02 -0.11225522482E+02  0.12562480753E+01  0.18726443127E+02  0.00000000000E+00 0.  1.
         11    1    3    3    0    0  0.40617826973E+01 -0.46256443162E+01 -0.10377960186E+02  0.12066346668E+02  0.51100000000E-03 0. -1.
        -11    1    3    3    0    0  0.24466350969E+02 -0.12036062753E+02  0.10797698229E+02  0.29326769745E+02  0.51100000000E-03 0.  1.
         12    1    3    3    0    0 -0.13591964213E+02  0.27887229552E+02 -0.16759861180E+01  0.31068440461E+02  0.00000000000E+00 0. -1.
</event>
<event>
 7    1  0.3758561E-013  0.7246143E+02  0.7816164E-02  0.1226708E+00
        -11   -1    0    0    0    0  0.00000000000E+00  0.00000000000E+00  0.45593999997E+02  0.45594000000E+02  0.51100000000E-03 0. -1.
         11   -1    0    0    0    0 -0.00000000000E+00 -0.00000000000E+00 -0.45593999997E+02  0.45594000000E+02  0.51100000000E-03 0.  1.
    9900012    2    1    2    0    0 -0.19459486221E+01  0.56402941734E+01  0.17750623215E+02  0.72461434406E+02  0.69999822981E+02 0.  0.
        -12    1    1    2    0    0  0.19459486221E+01 -0.56402941734E+01 -0.17750623215E+02  0.18726565594E+02  0.00000000000E+00 0.  1.
         11    1    3    3    0    0 -0.25135896028E+01 -0.11002583374E+01  0.64271334125E+01  0.69883292183E+01  0.51100000000E-03 0. -1.
        -11    1    3    3    0    0 -0.23222415729E+02  0.20371269890E+02  0.19898309660E+02  0.36745230395E+02  0.51100000000E-03 0.  1.
         12    1    3    3    0    0  0.23790056710E+02 -0.13630717379E+02 -0.85748198570E+01  0.28727874793E+02  0.00000000000E+00 0. -1.
</event>
<event>
 7    1  0.3758561E-013  0.7246157E+02  0.7816164E-02  0.1226708E+00
        -11   -1    0    0    0    0  0.00000000000E+00  0.00000000000E+00  0.45593999997E+02  0.45594000000E+02  0.51100000000E-03 0. -1.
         11   -1    0    0    0    0 -0.00000000000E+00 -0.00000000000E+00 -0.45593999997E+02  0.45594000000E+02  0.51100000000E-03 0.  1.
    9900012    2    1    2    0    0  0.41755074705E+01 -0.17776083054E+02 -0.41539310089E+01  0.72461571237E+02  0.70000001229E+02 0.  0.
        -12    1    1    2    0    0 -0.41755074705E+01  0.17776083054E+02  0.41539310089E+01  0.18726428763E+02  0.00000000000E+00 0.  1.
         11    1    3    3    0    0  0.15173115098E+02  0.63207161489E+01 -0.10928977598E+02  0.19738729088E+02  0.51100000000E-03 0. -1.
        -11    1    3    3    0    0  0.12660208678E+01  0.48196273887E+01 -0.14136397286E+02  0.14988974131E+02  0.51100000000E-03 0.  1.
         12    1    3    3    0    0 -0.12263628496E+02 -0.28916426591E+02  0.20911443875E+02  0.37733868018E+02  0.00000000000E+00 0. -1.
</event>
<event>
 7    1  0.3758561E-013  0.7246160E+02  0.7816164E-02  0.1226708E+00
        -11   -1    0    0    0    0  0.00000000000E+00  0.00000000000E+00  0.45593999997E+02  0.45594000000E+02  0.51100000000E-03 0.  1.
         11   -1    0    0    0    0 -0.00000000000E+00 -0.00000000000E+00 -0.45593999997E+02  0.45594000000E+02  0.51100000000E-03 0. -1.
    9900012    2    1    2    0    0  0.16021865697E+02  0.90216607611E+01 -0.35479116389E+01  0.72461595639E+02  0.70000033016E+02 0.  0.
        -12    1    1    2    0    0 -0.16021865697E+02 -0.90216607611E+01  0.35479116389E+01  0.18726404361E+02  0.00000000000E+00 0.  1.
         11    1    3    3    0    0  0.27158167623E+02  0.21081594451E+01 -0.15667843990E+02  0.31424381306E+02  0.51100000000E-03 0. -1.
        -11    1    3    3    0    0 -0.37830231525E+00 -0.98227147230E+01 -0.80502728091E+01  0.12705736096E+02  0.51100000000E-03 0.  1.
        -12    1    3    3    0    0 -0.10757999611E+02  0.16736216039E+02  0.20170205160E+02  0.28331478238E+02  0.00000000000E+00 0.  1.
</event>
<event>
 7    1  0.3758561E-013  0.7246160E+02  0.7816164E-02  0.1226708E+00
        -11   -1    0    0    0    0  0.00000000000E+00  0.00000000000E+00  0.45593999997E+02  0.45594000000E+02  0.51100000000E-03 0.  1.
         11   -1    0    0    0    0 -0.00000000000E+00 -0.00000000000E+00 -0.45593999997E+02  0.45594000000E+02  0.51100000000E-03 0. -1.
    9900012    2    1    2    0    0  0.29264014954E+01 -0.11327800954E+02 -0.14621735269E+02  0.72461600388E+02  0.70000039202E+02 0.  0.
        -12    1    1    2    0    0 -0.29264014954E+01  0.11327800954E+02  0.14621735269E+02  0.18726399612E+02  0.00000000000E+00 0.  1.
         11    1    3    3    0    0  0.12502955849E+02  0.36280536812E+01 -0.98340474641E+01  0.16315488600E+02  0.51100000000E-03 0. -1.
        -11    1    3    3    0    0 -0.21330875669E+01  0.16375380632E+02  0.11436056584E+02  0.20086974483E+02  0.51100000000E-03 0.  1.
        -12    1    3    3    0    0 -0.74434667865E+01 -0.31331235267E+02 -0.16223744389E+02  0.36059137305E+02  0.00000000000E+00 0.  1.
</event>
<event>
 7    1  0.3758561E-013  0.7246124E+02  0.7816164E-02  0.1226709E+00
        -11   -1    0    0    0    0  0.00000000000E+00  0.00000000000E+00  0.45593999997E+02  0.45594000000E+02  0.51100000000E-03 0. -1.
         11   -1    0    0    0    0 -0.00000000000E+00 -0.00000000000E+00 -0.45593999997E+02  0.45594000000E+02  0.51100000000E-03 0.  1.
    9900012    2    1    2    0    0 -0.14035939491E+01  0.16778413008E+02  0.81979483217E+01  0.72461239049E+02  0.69999568490E+02 0.  0.
        -12    1    1    2    0    0  0.14035939491E+01 -0.16778413008E+02 -0.81979483217E+01  0.18726760951E+02  0.00000000000E+00 0.  1.
         11    1    3    3    0    0 -0.56938374838E+01  0.12968795638E+02  0.25759711863E+02  0.29396805968E+02  0.51100000000E-03 0. -1.
        -11    1    3    3    0    0  0.18453925408E+02  0.10230084967E+02 -0.22146430109E+01  0.21215716941E+02  0.51100000000E-03 0.  1.
        -12    1    3    3    0    0 -0.14163681873E+02 -0.64204675970E+01 -0.15347120531E+02  0.21848716140E+02  0.00000000000E+00 0.  1.
</event>
<event>
 7    1  0.3758561E-013  0.7246170E+02  0.7816164E-02  0.1226708E+00
        -11   -1    0    0    0    0  0.00000000000E+00  0.00000000000E+00  0.45593999997E+02  0.45594000000E+02  0.51100000000E-03 0. -1.
         11   -1    0    0    0    0 -0.00000000000E+00 -0.00000000000E+00 -0.45593999997E+02  0.45594000000E+02  0.51100000000E-03 0.  1.
    9900012    2    1    2    0    0 -0.11185588989E+02 -0.45103778380E+01  0.14325265217E+02  0.72461704777E+02  0.70000175188E+02 0.  0.
        -12    1    1    2    0    0  0.11185588989E+02  0.45103778380E+01 -0.14325265217E+02  0.18726295223E+02  0.00000000000E+00 0.  1.
         11    1    3    3    0    0 -0.80204854424E+01  0.45023194476E+00  0.69237457296E+01  0.10605147369E+02  0.51100000000E-03 0. -1.
        -11    1    3    3    0    0 -0.18903918139E+02 -0.48248669492E+00 -0.21506982915E+02  0.28638107981E+02  0.51100000000E-03 0.  1.
         12    1    3    3    0    0  0.15738814592E+02 -0.44781230878E+01  0.28908502402E+02  0.33218449426E+02  0.00000000000E+00 0. -1.
</event>
<event>
 7    1  0.3758561E-013  0.7246162E+02  0.7816164E-02  0.1226708E+00
        -11   -1    0    0    0    0  0.00000000000E+00  0.00000000000E+00  0.45593999997E+02  0.45594000000E+02  0.51100000000E-03 0. -1.
         11   -1    0    0    0    0 -0.00000000000E+00 -0.00000000000E+00 -0.45593999997E+02  0.45594000000E+02  0.51100000000E-03 0.  1.
    9900012    2    1    2    0    0 -0.15724039198E+02 -0.74951733134E+01  0.68741685673E+01  0.72461622209E+02  0.70000067628E+02 0.  0.
        -12    1    1    2    0    0  0.15724039198E+02  0.74951733134E+01 -0.68741685673E+01  0.18726377791E+02  0.00000000000E+00 0.  1.
         11    1    3    3    0    0  0.15556840660E+02  0.11361118455E+01 -0.88554564194E+01  0.17936698417E+02  0.51100000000E-03 0. -1.
        -11    1    3    3    0    0 -0.24468679175E+02 -0.76755975881E+01 -0.10274745062E+02  0.27626100797E+02  0.51100000000E-03 0.  1.
         12    1    3    3    0    0 -0.68122006831E+01 -0.95568757089E+00  0.26004370049E+02  0.26898822995E+02  0.00000000000E+00 0. -1.
</event>
<event>
 7    1  0.3758561E-013  0.7246159E+02  0.7816164E-02  0.1226708E+00
        -11   -1    0    0    0    0  0.00000000000E+00  0.00000000000E+00  0.45593999997E+02  0.45594000000E+02  0.51100000000E-03 0.  1.
         11   -1    0    0    0    0 -0.00000000000E+00 -0.00000000000E+00 -0.45593999997E+02  0.45594000000E+02  0.51100000000E-03 0. -1.
    9900012    2    1    2    0    0  0.57872130056E+01 -0.17809369227E+02  0.11461060498E+00  0.72461585441E+02  0.70000019732E+02 0.  0.
        -12    1    1    2    0    0 -0.57872130056E+01  0.17809369227E+02 -0.11461060498E+00  0.18726414559E+02  0.00000000000E+00 0.  1.
         11    1    3    3    0    0 -0.12209454212E+02 -0.14729264405E+02  0.81594220433E+01  0.20798994456E+02  0.51100000000E-03 0. -1.
        -11    1    3    3    0    0 -0.12571408291E+02 -0.13246456772E+02 -0.65919663690E+01  0.19415533583E+02  0.51100000000E-03 0.  1.
        -12    1    3    3    0    0  0.30568075509E+02  0.10166351950E+02 -0.14528450694E+01  0.32247057402E+02  0.00000000000E+00 0.  1.
</event>
<event>
 7    1  0.3758561E-013  0.7246154E+02  0.7816164E-02  0.1226708E+00
        -11   -1    0    0    0    0  0.00000000000E+00  0.00000000000E+00  0.45593999997E+02  0.45594000000E+02  0.51100000000E-03 0.  1.
         11   -1    0    0    0    0 -0.00000000000E+00 -0.00000000000E+00 -0.45593999997E+02  0.45594000000E+02  0.51100000000E-03 0. -1.
    9900012    2    1    2    0    0 -0.42896566083E+01  0.17941421436E+02  0.32224927200E+01  0.72461542345E+02  0.69999963591E+02 0.  0.
        -12    1    1    2    0    0  0.42896566083E+01 -0.17941421436E+02 -0.32224927200E+01  0.18726457655E+02  0.00000000000E+00 0.  1.
         11    1    3    3    0    0  0.19600190504E+02 -0.52714745371E+01 -0.71187253284E+01  0.21508885656E+02  0.51100000000E-03 0. -1.
        -11    1    3    3    0    0  0.86412579384E+01  0.10291992699E+02 -0.24984304865E+01  0.13668891968E+02  0.51100000000E-03 0.  1.
        -12    1    3    3    0    0 -0.32531105051E+02  0.12920903274E+02  0.12839648535E+02  0.37283764721E+02  0.00000000000E+00 0.  1.
</event>
<event>
 7    1  0.3758561E-013  0.7246195E+02  0.7816164E-02  0.1226707E+00
        -11   -1    0    0    0    0  0.00000000000E+00  0.00000000000E+00  0.45593999997E+02  0.45594000000E+02  0.51100000000E-03 0.  1.
         11   -1    0    0    0    0 -0.00000000000E+00 -0.00000000000E+00 -0.45593999997E+02  0.45594000000E+02  0.51100000000E-03 0. -1.
    9900012    2    1    2    0    0  0.12384832124E+02 -0.13823660887E+02  0.24874565283E+01  0.72461945770E+02  0.70000489125E+02 0.  0.
        -12    1    1    2    0    0 -0.12384832124E+02  0.13823660887E+02 -0.24874565283E+01  0.18726054230E+02  0.00000000000E+00 0.  1.
         11    1    3    3    0    0 -0.72815816579E+01 -0.11976026881E+02 -0.22864446786E+02  0.26818455928E+02  0.51100000000E-03 0. -1.
        -11    1    3    3    0    0 -0.61560640286E+01 -0.75641292589E+01  0.11977532225E+01  0.98258734377E+01  0.51100000000E-03 0.  1.
        -12    1    3    3    0    0  0.25822477810E+02  0.57164952537E+01  0.24154150091E+02  0.35817616404E+02  0.00000000000E+00 0.  1.
</event>
<event>
 7    1  0.3758561E-013  0.7246152E+02  0.7816164E-02  0.1226708E+00
        -11   -1    0    0    0    0  0.00000000000E+00  0.00000000000E+00  0.45593999997E+02  0.45594000000E+02  0.51100000000E-03 0. -1.
         11   -1    0    0    0    0 -0.00000000000E+00 -0.00000000000E+00 -0.45593999997E+02  0.45594000000E+02  0.51100000000E-03 0.  1.
    9900012    2    1    2    0    0  0.13597104805E+02  0.22741154630E+01  0.12673920852E+02  0.72461517950E+02  0.69999931812E+02 0.  0.
        -12    1    1    2    0    0 -0.13597104805E+02 -0.22741154630E+01 -0.12673920852E+02  0.18726482050E+02  0.00000000000E+00 0.  1.
         11    1    3    3    0    0 -0.45289367256E+01  0.26423457142E+01 -0.69915230321E+01  0.87392593111E+01  0.51100000000E-03 0. -1.
        -11    1    3    3    0    0  0.71301700376E+01  0.26617978227E+02 -0.16688947512E+01  0.27606906738E+02  0.51100000000E-03 0.  1.
         12    1    3    3    0    0  0.10995871493E+02 -0.26986208479E+02  0.21334338635E+02  0.36115351901E+02  0.00000000000E+00 0. -1.
</event>
<event>
 7    1  0.3758561E-013  0.7246174E+02  0.7816164E-02  0.1226708E+00
        -11   -1    0    0    0    0  0.00000000000E+00  0.00000000000E+00  0.45593999997E+02  0.45594000000E+02  0.51100000000E-03 0.  1.
         11   -1    0    0    0    0 -0.00000000000E+00 -0.00000000000E+00 -0.45593999997E+02  0.45594000000E+02  0.51100000000E-03 0. -1.
    9900012    2    1    2    0    0 -0.12259971053E+02  0.14046439117E+02 -0.17502976622E+01  0.72461738120E+02  0.70000218624E+02 0.  0.
        -12    1    1    2    0    0  0.12259971053E+02 -0.14046439117E+02  0.17502976622E+01  0.18726261880E+02  0.00000000000E+00 0.  1.
         11    1    3    3    0    0  0.80498058823E+01  0.29854467344E+02 -0.13409826132E+01  0.30949746845E+02  0.51100000000E-03 0. -1.
        -11    1    3    3    0    0  0.77635050361E+01  0.22590395842E+01  0.64152695869E+00  0.81109079262E+01  0.51100000000E-03 0.  1.
        -12    1    3    3    0    0 -0.28073281971E+02 -0.18067067811E+02 -0.10508420077E+01  0.33401083348E+02  0.00000000000E+00 0.  1.
</event>
<event>
 7    1  0.3758561E-013  0.7246160E+02  0.7816164E-02  0.1226708E+00
        -11   -1    0    0    0    0  0.00000000000E+00  0.00000000000E+00  0.45593999997E+02  0.45594000000E+02  0.51100000000E-03 0. -1.
         11   -1    0    0    0    0 -0.00000000000E+00 -0.00000000000E+00 -0.45593999997E+02  0.45594000000E+02  0.51100000000E-03 0.  1.
    9900012    2    1    2    0    0  0.53413791987E+00  0.18556525911E+02 -0.24592681214E+01  0.72461602672E+02  0.70000042178E+02 0.  0.
        -12    1    1    2    0    0 -0.53413791987E+00 -0.18556525911E+02  0.24592681214E+01  0.18726397328E+02  0.00000000000E+00 0.  1.
         11    1    3    3    0    0  0.15923134737E+02 -0.52882065854E+01 -0.34663220624E+01  0.17132622031E+02  0.51100000000E-03 0. -1.
        -11    1    3    3    0    0  0.16241854649E+02  0.10669157061E+02  0.67787111975E+01  0.20581051494E+02  0.51100000000E-03 0.  1.
         12    1    3    3    0    0 -0.31630851466E+02  0.13175575436E+02 -0.57716572566E+01  0.34747929147E+02  0.00000000000E+00 0. -1.
</event>
<event>
 7    1  0.3758561E-013  0.7246155E+02  0.7816164E-02  0.1226708E+00
        -11   -1    0    0    0    0  0.00000000000E+00  0.00000000000E+00  0.45593999997E+02  0.45594000000E+02  0.51100000000E-03 0.  1.
         11   -1    0    0    0    0 -0.00000000000E+00 -0.00000000000E+00 -0.45593999997E+02  0.45594000000E+02  0.51100000000E-03 0. -1.
    9900012    2    1    2    0    0  0.49646649300E+01 -0.35174353977E+01 -0.17710438315E+02  0.72461551459E+02  0.69999975464E+02 0.  0.
        -12    1    1    2    0    0 -0.49646649300E+01  0.35174353977E+01  0.17710438315E+02  0.18726448541E+02  0.00000000000E+00 0.  1.
         11    1    3    3    0    0 -0.10221111795E+02 -0.74291197959E+01  0.78049174156E+01  0.14851925242E+02  0.51100000000E-03 0. -1.
        -11    1    3    3    0    0 -0.67085665589E+01 -0.13912518738E+02 -0.24983354631E+02  0.29372283735E+02  0.51100000000E-03 0.  1.
        -12    1    3    3    0    0  0.21894343284E+02  0.17824203137E+02 -0.53200109936E+00  0.28237342482E+02  0.00000000000E+00 0.  1.
</event>
<event>
 7    1  0.3758561E-013  0.7246156E+02  0.7816164E-02  0.1226708E+00
        -11   -1    0    0    0    0  0.00000000000E+00  0.00000000000E+00  0.45593999997E+02  0.45594000000E+02  0.51100000000E-03 0.  1.
         11   -1    0    0    0    0 -0.00000000000E+00 -0.00000000000E+00 -0.45593999997E+02  0.45594000000E+02  0.51100000000E-03 0. -1.
    9900012    2    1    2    0    0 -0.92084134453E+01  0.43697959131E+01 -0.15709532458E+02  0.72461564019E+02  0.69999991825E+02 0.  0.
        -12    1    1    2    0    0  0.92084134453E+01 -0.43697959131E+01  0.15709532458E+02  0.18726435981E+02  0.00000000000E+00 0.  1.
         11    1    3    3    0    0 -0.27963651641E+01  0.16846431490E+01  0.67134655474E+00  0.33329247109E+01  0.51100000000E-03 0. -1.
        -11    1    3    3    0    0 -0.24168426813E+02 -0.24515130382E+02 -0.54395335646E+01  0.34852446083E+02  0.51100000000E-03 0.  1.
         12    1    3    3    0    0  0.17756378532E+02  0.27200283146E+02 -0.10941345448E+02  0.34276193225E+02  0.00000000000E+00 0. -1.
</event>
<event>
 7    1  0.3758561E-013  0.7246154E+02  0.7816164E-02  0.1226708E+00
        -11   -1    0    0    0    0  0.00000000000E+00  0.00000000000E+00  0.45593999997E+02  0.45594000000E+02  0.51100000000E-03 0.  1.
         11   -1    0    0    0    0 -0.00000000000E+00 -0.00000000000E+00 -0.45593999997E+02  0.45594000000E+02  0.51100000000E-03 0. -1.
    9900012    2    1    2    0    0  0.10982695478E+02 -0.13047348296E+02  0.77348211719E+01  0.72461538614E+02  0.69999958730E+02 0.  0.
        -12    1    1    2    0    0 -0.10982695478E+02  0.13047348296E+02 -0.77348211719E+01  0.18726461386E+02  0.00000000000E+00 0.  1.
         11    1    3    3    0    0 -0.95153991288E+01  0.12283676649E+02  0.18240813410E+02  0.23961611104E+02  0.51100000000E-03 0. -1.
        -11    1    3    3    0    0 -0.79961167654E+01 -0.36429362784E+01  0.42609770545E+01  0.97654899403E+01  0.51100000000E-03 0.  1.
        -12    1    3    3    0    0  0.28494211372E+02 -0.21688088666E+02 -0.14766969293E+02  0.38734437569E+02  0.00000000000E+00 0.  1.
</event>
<event>
 7    1  0.3758561E-013  0.7246157E+02  0.7816164E-02  0.1226708E+00
        -11   -1    0    0    0    0  0.00000000000E+00  0.00000000000E+00  0.45593999997E+02  0.45594000000E+02  0.51100000000E-03 0. -1.
         11   -1    0    0    0    0 -0.00000000000E+00 -0.00000000000E+00 -0.45593999997E+02  0.45594000000E+02  0.51100000000E-03 0.  1.
    9900012    2    1    2    0    0  0.14407650926E+02 -0.10127446500E+02 -0.63666071592E+01  0.72461567757E+02  0.69999996695E+02 0.  0.
        -12    1    1    2    0    0 -0.14407650926E+02  0.10127446500E+02  0.63666071592E+01  0.18726432243E+02  0.00000000000E+00 0.  1.
         11    1    3    3    0    0  0.55952004725E+01 -0.15809895340E+02  0.23731360209E+02  0.29059189883E+02  0.51100000000E-03 0. -1.
        -11    1    3    3    0    0  0.16646000797E+02 -0.36430120914E+00 -0.66085385466E+01  0.17913537894E+02  0.51100000000E-03 0.  1.
        -12    1    3    3    0    0 -0.78335503436E+01  0.60467500489E+01 -0.23489428822E+02  0.25488839980E+02  0.00000000000E+00 0.  1.
</event>
<event>
 7    1  0.3758561E-013  0.7246159E+02  0.7816164E-02  0.1226708E+00
        -11   -1    0    0    0    0  0.00000000000E+00  0.00000000000E+00  0.45593999997E+02  0.45594000000E+02  0.51100000000E-03 0.  1.
         11   -1    0    0    0    0 -0.00000000000E+00 -0.00000000000E+00 -0.45593999997E+02  0.45594000000E+02  0.51100000000E-03 0. -1.
    9900012    2    1    2    0    0  0.16437570735E+02 -0.87339890231E+01  0.20499105392E+01  0.72461590062E+02  0.70000025751E+02 0.  0.
        -12    1    1    2    0    0 -0.16437570735E+02  0.87339890231E+01 -0.20499105392E+01  0.18726409938E+02  0.00000000000E+00 0.  1.
         11    1    3    3    0    0  0.87209065745E+01 -0.82388169706E+01 -0.12366164811E+02  0.17229461656E+02  0.51100000000E-03 0. -1.
        -11    1    3    3    0    0  0.62909448881E+01  0.57210207763E-01 -0.19905752543E+02  0.20876260325E+02  0.51100000000E-03 0.  1.
        -12    1    3    3    0    0  0.14257192729E+01 -0.55238226028E+00  0.34321827894E+02  0.34355868081E+02  0.00000000000E+00 0.  1.
</event>
<event>
 7    1  0.3758561E-013  0.7246158E+02  0.7816164E-02  0.1226708E+00
        -11   -1    0    0    0    0  0.00000000000E+00  0.00000000000E+00  0.45593999997E+02  0.45594000000E+02  0.51100000000E-03 0. -1.
         11   -1    0    0    0    0 -0.00000000000E+00 -0.00000000000E+00 -0.45593999997E+02  0.45594000000E+02  0.51100000000E-03 0.  1.
    9900012    2    1    2    0    0 -0.88445975462E+01 -0.53681881266E+01  0.15608795535E+02  0.72461578890E+02  0.70000011198E+02 0.  0.
        -12    1    1    2    0    0  0.88445975462E+01  0.53681881266E+01 -0.15608795535E+02  0.18726421110E+02  0.00000000000E+00 0.  1.
         11    1    3    3    0    0  0.35081171437E+01 -0.15241647994E+02  0.85787229461E+01  0.17838419412E+02  0.51100000000E-03 0. -1.
        -11    1    3    3    0    0 -0.27299601927E+02  0.34992406290E+01 -0.11630396137E+02  0.29879408711E+02  0.51100000000E-03 0.  1.
         12    1    3    3    0    0  0.14946887237E+02  0.63742192386E+01  0.18660468726E+02  0.24743750768E+02  0.00000000000E+00 0. -1.
</event>
<event>
 7    1  0.3758561E-013  0.7246157E+02  0.7816164E-02  0.1226708E+00
        -11   -1    0    0    0    0  0.00000000000E+00  0.00000000000E+00  0.45593999997E+02  0.45594000000E+02  0.51100000000E-03 0.  1.
         11   -1    0    0    0    0 -0.00000000000E+00 -0.00000000000E+00 -0.45593999997E+02  0.45594000000E+02  0.51100000000E-03 0. -1.
    9900012    2    1    2    0    0  0.11284377324E+02  0.29626864044E+01 -0.14648020014E+02  0.72461570211E+02  0.69999999891E+02 0.  0.
        -12    1    1    2    0    0 -0.11284377324E+02 -0.29626864044E+01  0.14648020014E+02  0.18726429789E+02  0.00000000000E+00 0.  1.
         11    1    3    3    0    0 -0.17271806755E+01 -0.23647226146E+02 -0.18409054765E+02  0.30017790643E+02  0.51100000000E-03 0. -1.
        -11    1    3    3    0    0 -0.91438474821E+01  0.25656440087E+01 -0.27012189869E+00  0.95008127051E+01  0.51100000000E-03 0.  1.
        -12    1    3    3    0    0  0.22155405482E+02  0.24044268542E+02  0.40311566500E+01  0.32942966863E+02  0.00000000000E+00 0.  1.
</event>
<event>
 7    1  0.3758561E-013  0.7246158E+02  0.7816164E-02  0.1226708E+00
        -11   -1    0    0    0    0  0.00000000000E+00  0.00000000000E+00  0.45593999997E+02  0.45594000000E+02  0.51100000000E-03 0.  1.
         11   -1    0    0    0    0 -0.00000000000E+00 -0.00000000000E+00 -0.45593999997E+02  0.45594000000E+02  0.51100000000E-03 0. -1.
    9900012    2    1    2    0    0  0.15387422126E+02  0.17860425920E+01  0.10522175903E+02  0.72461577663E+02  0.70000009599E+02 0.  0.
        -12    1    1    2    0    0 -0.15387422126E+02 -0.17860425920E+01 -0.10522175903E+02  0.18726422337E+02  0.00000000000E+00 0.  1.
         11    1    3    3    0    0  0.11156940148E+02 -0.19550641582E+02  0.35529213996E+01  0.22788772465E+02  0.51100000000E-03 0. -1.
        -11    1    3    3    0    0 -0.86698258790E+01  0.32859530410E+01  0.21320497343E+02  0.23249236017E+02  0.51100000000E-03 0.  1.
         12    1    3    3    0    0  0.12900307857E+02  0.18050731133E+02 -0.14351242839E+02  0.26423569181E+02  0.00000000000E+00 0. -1.
</event>
<event>
 7    1  0.3758561E-013  0.7246156E+02  0.7816164E-02  0.1226708E+00
        -11   -1    0    0    0    0  0.00000000000E+00  0.00000000000E+00  0.45593999997E+02  0.45594000000E+02  0.51100000000E-03 0. -1.
         11   -1    0    0    0    0 -0.00000000000E+00 -0.00000000000E+00 -0.45593999997E+02  0.45594000000E+02  0.51100000000E-03 0.  1.
    9900012    2    1    2    0    0  0.12383354579E+02 -0.67093544360E+01  0.12341658192E+02  0.72461563219E+02  0.69999990783E+02 0.  0.
        -12    1    1    2    0    0 -0.12383354579E+02  0.67093544360E+01 -0.12341658192E+02  0.18726436781E+02  0.00000000000E+00 0.  1.
         11    1    3    3    0    0  0.10597894195E+02 -0.11798508342E+02  0.34344746097E+01  0.16227007628E+02  0.51100000000E-03 0. -1.
        -11    1    3    3    0    0  0.49579822246E+01 -0.64842420131E+01 -0.21793443579E+02  0.23271896475E+02  0.51100000000E-03 0.  1.
         12    1    3    3    0    0 -0.31725218398E+01  0.11573395919E+02  0.30700627161E+02  0.32962659116E+02  0.00000000000E+00 0. -1.
</event>
<event>
 7    1  0.3758561E-013  0.7246160E+02  0.7816164E-02  0.1226708E+00
        -11   -1    0    0    0    0  0.00000000000E+00  0.00000000000E+00  0.45593999997E+02  0.45594000000E+02  0.51100000000E-03 0. -1.
         11   -1    0    0    0    0 -0.00000000000E+00 -0.00000000000E+00 -0.45593999997E+02  0.45594000000E+02  0.51100000000E-03 0.  1.
    9900012    2    1    2    0    0 -0.69549066117E+01 -0.26641606467E+01  0.17181659364E+02  0.72461604286E+02  0.70000044280E+02 0.  0.
        -12    1    1    2    0    0  0.69549066117E+01  0.26641606467E+01 -0.17181659364E+02  0.18726395714E+02  0.00000000000E+00 0.  1.
         11    1    3    3    0    0  0.60688165704E+01  0.61001877830E+00 -0.59180868883E+01  0.84986122487E+01  0.51100000000E-03 0. -1.
        -11    1    3    3    0    0 -0.32686372307E+02  0.11915738957E+02  0.14023115635E+02  0.37510419111E+02  0.51100000000E-03 0.  1.
         12    1    3    3    0    0  0.19662649125E+02 -0.15189918382E+02  0.90766306177E+01  0.26452572926E+02  0.00000000000E+00 0. -1.
</event>
<event>
 7    1  0.3758561E-013  0.7246158E+02  0.7816164E-02  0.1226708E+00
        -11   -1    0    0    0    0  0.00000000000E+00  0.00000000000E+00  0.45593999997E+02  0.45594000000E+02  0.51100000000E-03 0.  1.
         11   -1    0    0    0    0 -0.00000000000E+00 -0.00000000000E+00 -0.45593999997E+02  0.45594000000E+02  0.51100000000E-03 0. -1.
    9900012    2    1    2    0    0 -0.10745607280E+02  0.94399408714E+00 -0.15307501693E+02  0.72461579927E+02  0.70000012549E+02 0.  0.
        -12    1    1    2    0    0  0.10745607280E+02 -0.94399408714E+00  0.15307501693E+02  0.18726420073E+02  0.00000000000E+00 0.  1.
         11    1    3    3    0    0  0.21087864408E+02  0.53248512329E+01 -0.16850007250E+02  0.27513175217E+02  0.51100000000E-03 0. -1.
        -11    1    3    3    0    0 -0.43380691917E+01  0.86410062666E+01  0.94442228513E+01  0.13515886177E+02  0.51100000000E-03 0.  1.
        -12    1    3    3    0    0 -0.27495402496E+02 -0.13021863412E+02 -0.79017172945E+01  0.31432518533E+02  0.00000000000E+00 0.  1.
</event>
<event>
 7    1  0.3758561E-013  0.7246159E+02  0.7816164E-02  0.1226708E+00
        -11   -1    0    0    0    0  0.00000000000E+00  0.00000000000E+00  0.45593999997E+02  0.45594000000E+02  0.51100000000E-03 0. -1.
         11   -1    0    0    0    0 -0.00000000000E+00 -0.00000000000E+00 -0.45593999997E+02  0.45594000000E+02  0.51100000000E-03 0.  1.
    9900012    2    1    2    0    0 -0.12215615548E+01  0.18533622281E+02 -0.23856321896E+01  0.72461585275E+02  0.70000019516E+02 0.  0.
        -12    1    1    2    0    0  0.12215615548E+01 -0.18533622281E+02  0.23856321896E+01  0.18726414725E+02  0.00000000000E+00 0.  1.
         11    1    3    3    0    0  0.83839024771E+01 -0.17174626876E+02 -0.74816546722E+01  0.20523956392E+02  0.51100000000E-03 0. -1.
        -11    1    3    3    0    0 -0.28231884057E+01 -0.57169174137E+01  0.75586897733E+01  0.98887475870E+01  0.51100000000E-03 0.  1.
         12    1    3    3    0    0 -0.67822756262E+01  0.41425166571E+02 -0.24626672908E+01  0.42048881297E+02  0.00000000000E+00 0. -1.
</event>
<event>
 7    1  0.3758561E-013  0.7246155E+02  0.7816164E-02  0.1226708E+00
        -11   -1    0    0    0    0  0.00000000000E+00  0.00000000000E+00  0.45593999997E+02  0.45594000000E+02  0.51100000000E-03 0. -1.
         11   -1    0    0    0    0 -0.00000000000E+00 -0.00000000000E+00 -0.45593999997E+02  0.45594000000E+02  0.51100000000E-03 0.  1.
    9900012    2    1    2    0    0 -0.23874184289E+01 -0.67013029233E+01  0.17322605197E+02  0.72461551366E+02  0.69999975342E+02 0.  0.
        -12    1    1    2    0    0  0.23874184289E+01  0.67013029233E+01 -0.17322605197E+02  0.18726448634E+02  0.00000000000E+00 0.  1.
         11    1    3    3    0    0 -0.31677428032E+01 -0.27579733425E+01  0.88664247304E+01  0.98109377323E+01  0.51100000000E-03 0. -1.
        -11    1    3    3    0    0  0.19027222402E+02  0.22800181380E+02  0.44590416007E+01  0.30029427493E+02  0.51100000000E-03 0.  1.
         12    1    3    3    0    0 -0.18246898028E+02 -0.26743510960E+02  0.39971388660E+01  0.32621186141E+02  0.00000000000E+00 0. -1.
</event>
<event>
 7    1  0.3758561E-013  0.7246152E+02  0.7816164E-02  0.1226708E+00
        -11   -1    0    0    0    0  0.00000000000E+00  0.00000000000E+00  0.45593999997E+02  0.45594000000E+02  0.51100000000E-03 0. -1.
         11   -1    0    0    0    0 -0.00000000000E+00 -0.00000000000E+00 -0.45593999997E+02  0.45594000000E+02  0.51100000000E-03 0.  1.
    9900012    2    1    2    0    0  0.10225996152E+02  0.15515849396E+02  0.23169883583E+01  0.72461521024E+02  0.69999935816E+02 0.  0.
        -12    1    1    2    0    0 -0.10225996152E+02 -0.15515849396E+02 -0.23169883583E+01  0.18726478976E+02  0.00000000000E+00 0.  1.
         11    1    3    3    0    0  0.16826808732E+01  0.65486059711E+01 -0.17520756973E+02  0.18780111295E+02  0.51100000000E-03 0.  1.
        -11    1    3    3    0    0 -0.11083350336E+02 -0.51559627920E+01  0.25998579444E+02  0.28728918190E+02  0.51100000000E-03 0. -1.
         12    1    3    3    0    0  0.19626665616E+02  0.14123206217E+02 -0.61608341128E+01  0.24952491539E+02  0.00000000000E+00 0. -1.
</event>
<event>
 7    1  0.3758854E-013  0.7246157E+02  0.7816164E-02  0.1226708E+00
        -11   -1    0    0    0    0  0.00000000000E+00  0.00000000000E+00  0.45593999997E+02  0.45594000000E+02  0.51100000000E-03 0. -1.
         11   -1    0    0    0    0 -0.00000000000E+00 -0.00000000000E+00 -0.45593999997E+02  0.45594000000E+02  0.51100000000E-03 0.  1.
    9900012    2    1    2    0    0  0.15208067676E+02  0.40236767424E+01  0.10158928038E+02  0.72461571727E+02  0.70000001867E+02 0.  0.
        -12    1    1    2    0    0 -0.15208067676E+02 -0.40236767424E+01 -0.10158928038E+02  0.18726428273E+02  0.00000000000E+00 0.  1.
         11    1    3    3    0    0 -0.82186880363E+01 -0.40517862627E+01  0.10472315311E+02  0.13915214450E+02  0.51100000000E-03 0. -1.
        -11    1    3    3    0    0 -0.65096235644E+01  0.10589680712E+02 -0.19337096631E+02  0.22987819447E+02  0.51100000000E-03 0.  1.
         12    1    3    3    0    0  0.29936379277E+02 -0.25142177066E+01  0.19023709358E+02  0.35558537830E+02  0.00000000000E+00 0. -1.
</event>
<event>
 7    1  0.3758561E-013  0.7246162E+02  0.7816164E-02  0.1226708E+00
        -11   -1    0    0    0    0  0.00000000000E+00  0.00000000000E+00  0.45593999997E+02  0.45594000000E+02  0.51100000000E-03 0. -1.
         11   -1    0    0    0    0 -0.00000000000E+00 -0.00000000000E+00 -0.45593999997E+02  0.45594000000E+02  0.51100000000E-03 0.  1.
    9900012    2    1    2    0    0 -0.11498904054E+02 -0.10311592719E+02  0.10588842391E+02  0.72461619623E+02  0.70000064259E+02 0.  0.
        -12    1    1    2    0    0  0.11498904054E+02  0.10311592719E+02 -0.10588842391E+02  0.18726380377E+02  0.00000000000E+00 0.  1.
         11    1    3    3    0    0 -0.13443597535E+01 -0.78825571303E+01  0.86448755532E+01  0.11776072505E+02  0.51100000000E-03 0. -1.
        -11    1    3    3    0    0  0.14635896757E+02 -0.23682901132E+02 -0.12993866779E+01  0.27870731708E+02  0.51100000000E-03 0.  1.
        -12    1    3    3    0    0 -0.24790441057E+02  0.21253865543E+02  0.32433535162E+01  0.32814815410E+02  0.00000000000E+00 0.  1.
</event>
<event>
 7    1  0.3758561E-013  0.7246160E+02  0.7816164E-02  0.1226708E+00
        -11   -1    0    0    0    0  0.00000000000E+00  0.00000000000E+00  0.45593999997E+02  0.45594000000E+02  0.51100000000E-03 0.  1.
         11   -1    0    0    0    0 -0.00000000000E+00 -0.00000000000E+00 -0.45593999997E+02  0.45594000000E+02  0.51100000000E-03 0. -1.
    9900012    2    1    2    0    0 -0.93888943903E+01 -0.79769465376E+00 -0.16183022827E+02  0.72461604660E+02  0.70000044767E+02 0.  0.
        -12    1    1    2    0    0  0.93888943903E+01  0.79769465376E+00  0.16183022827E+02  0.18726395340E+02  0.00000000000E+00 0.  1.
         11    1    3    3    0    0  0.41546980719E+00 -0.37988650166E+01 -0.93921679531E+00  0.39352406565E+01  0.51100000000E-03 0. -1.
        -11    1    3    3    0    0  0.10502696969E+02 -0.26150558367E+02  0.34324229852E+01  0.28389080195E+02  0.51100000000E-03 0.  1.
         12    1    3    3    0    0 -0.20307061166E+02  0.29151728730E+02 -0.18676229017E+02  0.40137283808E+02  0.00000000000E+00 0. -1.
</event>
<event>
 7    1  0.3758561E-013  0.7246161E+02  0.7816164E-02  0.1226708E+00
        -11   -1    0    0    0    0  0.00000000000E+00  0.00000000000E+00  0.45593999997E+02  0.45594000000E+02  0.51100000000E-03 0.  1.
         11   -1    0    0    0    0 -0.00000000000E+00 -0.00000000000E+00 -0.45593999997E+02  0.45594000000E+02  0.51100000000E-03 0. -1.
    9900012    2    1    2    0    0  0.89371495213E+01  0.16439202773E+02  0.74677214610E+00  0.72461609584E+02  0.70000051182E+02 0.  0.
        -12    1    1    2    0    0 -0.89371495213E+01 -0.16439202773E+02 -0.74677214610E+00  0.18726390416E+02  0.00000000000E+00 0.  1.
         11    1    3    3    0    0 -0.20148210250E+01  0.20778275162E+02  0.34417568671E+01  0.21157549789E+02  0.51100000000E-03 0. -1.
        -11    1    3    3    0    0  0.25346961561E+02  0.80838600297E+01  0.10021077412E+02  0.28429548820E+02  0.51100000000E-03 0.  1.
         12    1    3    3    0    0 -0.14394991014E+02 -0.12422932418E+02 -0.12716062133E+02  0.22874510975E+02  0.00000000000E+00 0. -1.
</event>
<event>
 7    1  0.3758561E-013  0.7246169E+02  0.7816164E-02  0.1226708E+00
        -11   -1    0    0    0    0  0.00000000000E+00  0.00000000000E+00  0.45593999997E+02  0.45594000000E+02  0.51100000000E-03 0.  1.
         11   -1    0    0    0    0 -0.00000000000E+00 -0.00000000000E+00 -0.45593999997E+02  0.45594000000E+02  0.51100000000E-03 0. -1.
    9900012    2    1    2    0    0  0.14142502614E+02 -0.93196101616E+01 -0.79880731236E+01  0.72461686268E+02  0.70000151077E+02 0.  0.
        -12    1    1    2    0    0 -0.14142502614E+02  0.93196101616E+01  0.79880731236E+01  0.18726313732E+02  0.00000000000E+00 0.  1.
         11    1    3    3    0    0  0.25636567397E+01  0.15416722540E+01  0.11323905022E+02  0.11712382953E+02  0.51100000000E-03 0. -1.
        -11    1    3    3    0    0 -0.12578257847E+01 -0.21374838488E+02  0.12555065529E+02  0.24821271458E+02  0.51100000000E-03 0.  1.
         12    1    3    3    0    0  0.12836671659E+02  0.10513556072E+02 -0.31867043675E+02  0.35928031857E+02  0.00000000000E+00 0. -1.
</event>
<event>
 7    1  0.3758561E-013  0.7246158E+02  0.7816164E-02  0.1226708E+00
        -11   -1    0    0    0    0  0.00000000000E+00  0.00000000000E+00  0.45593999997E+02  0.45594000000E+02  0.51100000000E-03 0.  1.
         11   -1    0    0    0    0 -0.00000000000E+00 -0.00000000000E+00 -0.45593999997E+02  0.45594000000E+02  0.51100000000E-03 0. -1.
    9900012    2    1    2    0    0 -0.91403638503E+01 -0.24860017941E+01 -0.16154019754E+02  0.72461579882E+02  0.70000012489E+02 0.  0.
        -12    1    1    2    0    0  0.91403638503E+01  0.24860017941E+01  0.16154019754E+02  0.18726420118E+02  0.00000000000E+00 0.  1.
         11    1    3    3    0    0 -0.19052338554E+02 -0.10172054627E+02 -0.11767898502E+02  0.24595644637E+02  0.51100000000E-03 0. -1.
        -11    1    3    3    0    0 -0.94804285996E+01 -0.26151234933E-01  0.16060158372E+02  0.18649608509E+02  0.51100000000E-03 0.  1.
         12    1    3    3    0    0  0.19392403304E+02  0.77122040674E+01 -0.20446279625E+02  0.29216326736E+02  0.00000000000E+00 0. -1.
</event>
<event>
 7    1  0.3758561E-013  0.7246161E+02  0.7816164E-02  0.1226708E+00
        -11   -1    0    0    0    0  0.00000000000E+00  0.00000000000E+00  0.45593999997E+02  0.45594000000E+02  0.51100000000E-03 0.  1.
         11   -1    0    0    0    0 -0.00000000000E+00 -0.00000000000E+00 -0.45593999997E+02  0.45594000000E+02  0.51100000000E-03 0. -1.
    9900012    2    1    2    0    0 -0.35003480023E+01  0.14488592491E+02  0.11336053637E+02  0.72461605244E+02  0.70000045528E+02 0.  0.
        -12    1    1    2    0    0  0.35003480023E+01 -0.14488592491E+02 -0.11336053637E+02  0.18726394756E+02  0.00000000000E+00 0.  1.
         11    1    3    3    0    0 -0.90257327557E+01 -0.25227331333E+01  0.45659951552E+01  0.10424794783E+02  0.51100000000E-03 0. -1.
        -11    1    3    3    0    0  0.18526908481E+01 -0.15019736822E+02  0.21741014612E+02  0.26489557833E+02  0.51100000000E-03 0.  1.
        -12    1    3    3    0    0  0.36726939053E+01  0.32031062446E+02 -0.14970956130E+02  0.35547252628E+02  0.00000000000E+00 0.  1.
</event>
<event>
 7    1  0.3758561E-013  0.7246157E+02  0.7816164E-02  0.1226708E+00
        -11   -1    0    0    0    0  0.00000000000E+00  0.00000000000E+00  0.45593999997E+02  0.45594000000E+02  0.51100000000E-03 0.  1.
         11   -1    0    0    0    0 -0.00000000000E+00 -0.00000000000E+00 -0.45593999997E+02  0.45594000000E+02  0.51100000000E-03 0. -1.
    9900012    2    1    2    0    0  0.69941446296E+01 -0.11439684224E+02 -0.13072677369E+02  0.72461566067E+02  0.69999994493E+02 0.  0.
        -12    1    1    2    0    0 -0.69941446296E+01  0.11439684224E+02  0.13072677369E+02  0.18726433933E+02  0.00000000000E+00 0.  1.
         11    1    3    3    0    0 -0.58968020188E+01 -0.30869296748E+02 -0.84355966030E+01  0.32539899294E+02  0.51100000000E-03 0.  1.
        -11    1    3    3    0    0 -0.88200343159E+01 -0.14131124609E+01 -0.40800917573E+01  0.98202363092E+01  0.51100000000E-03 0. -1.
        -12    1    3    3    0    0  0.21710980964E+02  0.20842724985E+02 -0.55698900829E+00  0.30101430464E+02  0.00000000000E+00 0.  1.
</event>
<event>
 7    1  0.3758561E-013  0.7246148E+02  0.7816164E-02  0.1226708E+00
        -11   -1    0    0    0    0  0.00000000000E+00  0.00000000000E+00  0.45593999997E+02  0.45594000000E+02  0.51100000000E-03 0.  1.
         11   -1    0    0    0    0 -0.00000000000E+00 -0.00000000000E+00 -0.45593999997E+02  0.45594000000E+02  0.51100000000E-03 0. -1.
    9900012    2    1    2    0    0 -0.55651755886E+01  0.17741897280E+02  0.22217931699E+01  0.72461482349E+02  0.69999885435E+02 0.  0.
        -12    1    1    2    0    0  0.55651755886E+01 -0.17741897280E+02 -0.22217931699E+01  0.18726517651E+02  0.00000000000E+00 0.  1.
         11    1    3    3    0    0  0.63609426956E+01 -0.12962158269E+02 -0.14766234150E+02  0.20652380255E+02  0.51100000000E-03 0. -1.
        -11    1    3    3    0    0  0.25541364354E+01 -0.17181284354E+01  0.15992793709E+02  0.16286344867E+02  0.51100000000E-03 0.  1.
        -12    1    3    3    0    0 -0.14480254720E+02  0.32422183985E+02  0.99523361167E+00  0.35522757227E+02  0.00000000000E+00 0.  1.
</event>
<event>
 7    1  0.3758561E-013  0.7246163E+02  0.7816164E-02  0.1226708E+00
        -11   -1    0    0    0    0  0.00000000000E+00  0.00000000000E+00  0.45593999997E+02  0.45594000000E+02  0.51100000000E-03 0.  1.
         11   -1    0    0    0    0 -0.00000000000E+00 -0.00000000000E+00 -0.45593999997E+02  0.45594000000E+02  0.51100000000E-03 0. -1.
    9900012    2    1    2    0    0 -0.17853273086E+02 -0.19349264497E+01  0.53097710937E+01  0.72461629040E+02  0.70000076528E+02 0.  0.
        -12    1    1    2    0    0  0.17853273086E+02  0.19349264497E+01 -0.53097710937E+01  0.18726370960E+02  0.00000000000E+00 0.  1.
         11    1    3    3    0    0  0.72526698998E-02 -0.33057568342E+01  0.49822540907E+01  0.59792087213E+01  0.51100000000E-03 0. -1.
        -11    1    3    3    0    0 -0.18063651129E+02 -0.28097907094E+02  0.10957014917E+02  0.35154573690E+02  0.51100000000E-03 0.  1.
         12    1    3    3    0    0  0.20312537288E+00  0.29468737479E+02 -0.10629497914E+02  0.31327846629E+02  0.00000000000E+00 0. -1.
</event>
<event>
 7    1  0.3758561E-013  0.7246155E+02  0.7816164E-02  0.1226708E+00
        -11   -1    0    0    0    0  0.00000000000E+00  0.00000000000E+00  0.45593999997E+02  0.45594000000E+02  0.51100000000E-03 0. -1.
         11   -1    0    0    0    0 -0.00000000000E+00 -0.00000000000E+00 -0.45593999997E+02  0.45594000000E+02  0.51100000000E-03 0.  1.
    9900012    2    1    2    0    0  0.81604912890E+00 -0.18537829824E+02 -0.25224423192E+01  0.72461553834E+02  0.69999978557E+02 0.  0.
        -12    1    1    2    0    0 -0.81604912890E+00  0.18537829824E+02  0.25224423192E+01  0.18726446166E+02  0.00000000000E+00 0.  1.
         11    1    3    3    0    0  0.89900628863E+01 -0.10072764226E+02  0.23178110063E+01  0.13698688185E+02  0.51100000000E-03 0. -1.
        -11    1    3    3    0    0  0.23358768739E+02 -0.12590487698E+02  0.36387104141E+00  0.26538365810E+02  0.51100000000E-03 0.  1.
         12    1    3    3    0    0 -0.31532782496E+02  0.41254221007E+01 -0.52041243670E+01  0.32224499839E+02  0.00000000000E+00 0. -1.
</event>
<event>
 7    1  0.3758561E-013  0.7246161E+02  0.7816164E-02  0.1226708E+00
        -11   -1    0    0    0    0  0.00000000000E+00  0.00000000000E+00  0.45593999997E+02  0.45594000000E+02  0.51100000000E-03 0. -1.
         11   -1    0    0    0    0 -0.00000000000E+00 -0.00000000000E+00 -0.45593999997E+02  0.45594000000E+02  0.51100000000E-03 0.  1.
    9900012    2    1    2    0    0  0.84656117552E+01 -0.16507060712E+02  0.25550041714E+01  0.72461610010E+02  0.70000051737E+02 0.  0.
        -12    1    1    2    0    0 -0.84656117552E+01  0.16507060712E+02 -0.25550041714E+01  0.18726389990E+02  0.00000000000E+00 0.  1.
         11    1    3    3    0    0 -0.81396623366E+01  0.34532108013E+01 -0.54946175949E+01  0.10410071593E+02  0.51100000000E-03 0. -1.
        -11    1    3    3    0    0 -0.14810117876E+02 -0.10702115724E+02  0.20090569075E+02  0.27157058723E+02  0.51100000000E-03 0.  1.
         12    1    3    3    0    0  0.31415391967E+02 -0.92581557891E+01 -0.12040947308E+02  0.34894479695E+02  0.00000000000E+00 0. -1.
</event>
<event>
 7    1  0.3758561E-013  0.7246147E+02  0.7816164E-02  0.1226708E+00
        -11   -1    0    0    0    0  0.00000000000E+00  0.00000000000E+00  0.45593999997E+02  0.45594000000E+02  0.51100000000E-03 0. -1.
         11   -1    0    0    0    0 -0.00000000000E+00 -0.00000000000E+00 -0.45593999997E+02  0.45594000000E+02  0.51100000000E-03 0.  1.
    9900012    2    1    2    0    0 -0.17904338798E+02  0.14505658267E+00  0.54860250733E+01  0.72461471750E+02  0.69999871628E+02 0.  0.
        -12    1    1    2    0    0  0.17904338798E+02 -0.14505658267E+00 -0.54860250733E+01  0.18726528250E+02  0.00000000000E+00 0.  1.
         11    1    3    3    0    0  0.18206424004E+01 -0.92649939263E+01  0.29756276414E+01  0.98999601679E+01  0.51100000000E-03 0. -1.
        -11    1    3    3    0    0 -0.33391273443E+02 -0.12183771276E+02 -0.50734458311E+01  0.35904892111E+02  0.51100000000E-03 0.  1.
        -12    1    3    3    0    0  0.13666292245E+02  0.21593821785E+02  0.75838432630E+01  0.26656619471E+02  0.00000000000E+00 0.  1.
</event>
<event>
 7    1  0.3758561E-013  0.7246155E+02  0.7816164E-02  0.1226708E+00
        -11   -1    0    0    0    0  0.00000000000E+00  0.00000000000E+00  0.45593999997E+02  0.45594000000E+02  0.51100000000E-03 0.  1.
         11   -1    0    0    0    0 -0.00000000000E+00 -0.00000000000E+00 -0.45593999997E+02  0.45594000000E+02  0.51100000000E-03 0. -1.
    9900012    2    1    2    0    0 -0.11154790800E+02 -0.24952865313E+01 -0.14833214080E+02  0.72461546716E+02  0.69999969285E+02 0.  0.
        -12    1    1    2    0    0  0.11154790800E+02  0.24952865313E+01  0.14833214080E+02  0.18726453284E+02  0.00000000000E+00 0.  1.
         11    1    3    3    0    0  0.14747471102E+02  0.16403126703E+01 -0.26308465401E+02  0.30204534123E+02  0.51100000000E-03 0. -1.
        -11    1    3    3    0    0  0.30495054317E+01 -0.51917113983E+01 -0.59371483668E+01  0.84559494802E+01  0.51100000000E-03 0.  1.
        -12    1    3    3    0    0 -0.28951767333E+02  0.10561121967E+01  0.17412399688E+02  0.33801063113E+02  0.00000000000E+00 0.  1.
</event>
<event>
 7    1  0.3758561E-013  0.7246151E+02  0.7816164E-02  0.1226708E+00
        -11   -1    0    0    0    0  0.00000000000E+00  0.00000000000E+00  0.45593999997E+02  0.45594000000E+02  0.51100000000E-03 0.  1.
         11   -1    0    0    0    0 -0.00000000000E+00 -0.00000000000E+00 -0.45593999997E+02  0.45594000000E+02  0.51100000000E-03 0. -1.
    9900012    2    1    2    0    0  0.14640898812E+02  0.11011134837E+02 -0.38833509736E+01  0.72461510121E+02  0.69999921612E+02 0.  0.
        -12    1    1    2    0    0 -0.14640898812E+02 -0.11011134837E+02  0.38833509736E+01  0.18726489879E+02  0.00000000000E+00 0.  1.
         11    1    3    3    0    0  0.60656932841E+00 -0.63200921432E+01 -0.12297521231E+02  0.13839816463E+02  0.51100000000E-03 0. -1.
        -11    1    3    3    0    0 -0.55112133208E-01 -0.11578971367E+02  0.21084771299E+02  0.24055003560E+02  0.51100000000E-03 0.  1.
         12    1    3    3    0    0  0.14089441617E+02  0.28910198347E+02 -0.12670601042E+02  0.34566690097E+02  0.00000000000E+00 0. -1.
</event>
<event>
 7    1  0.3758561E-013  0.7246158E+02  0.7816164E-02  0.1226708E+00
        -11   -1    0    0    0    0  0.00000000000E+00  0.00000000000E+00  0.45593999997E+02  0.45594000000E+02  0.51100000000E-03 0.  1.
         11   -1    0    0    0    0 -0.00000000000E+00 -0.00000000000E+00 -0.45593999997E+02  0.45594000000E+02  0.51100000000E-03 0. -1.
    9900012    2    1    2    0    0 -0.11968169262E+02 -0.14325081685E+02 -0.14945575996E+01  0.72461581678E+02  0.70000014829E+02 0.  0.
        -12    1    1    2    0    0  0.11968169262E+02  0.14325081685E+02  0.14945575996E+01  0.18726418322E+02  0.00000000000E+00 0.  1.
         11    1    3    3    0    0 -0.26874509903E+02 -0.24565230198E+02 -0.20841310310E+02  0.41952950229E+02  0.51100000000E-03 0. -1.
        -11    1    3    3    0    0  0.81872117725E+01 -0.54731074687E-01  0.75791588481E+00  0.82224004310E+01  0.51100000000E-03 0.  1.
        -12    1    3    3    0    0  0.67191288680E+01  0.10294879588E+02  0.18588836825E+02  0.22286231018E+02  0.00000000000E+00 0.  1.
</event>
<event>
 7    1  0.3758561E-013  0.7246158E+02  0.7816164E-02  0.1226708E+00
        -11   -1    0    0    0    0  0.00000000000E+00  0.00000000000E+00  0.45593999997E+02  0.45594000000E+02  0.51100000000E-03 0. -1.
         11   -1    0    0    0    0 -0.00000000000E+00 -0.00000000000E+00 -0.45593999997E+02  0.45594000000E+02  0.51100000000E-03 0.  1.
    9900012    2    1    2    0    0  0.35798969803E+01  0.61771928365E+01  0.17311999194E+02  0.72461583102E+02  0.70000016685E+02 0.  0.
        -12    1    1    2    0    0 -0.35798969803E+01 -0.61771928365E+01 -0.17311999194E+02  0.18726416898E+02  0.00000000000E+00 0.  1.
         11    1    3    3    0    0 -0.28485677935E+01  0.73013121693E+01 -0.50520289861E+01  0.93245104431E+01  0.51100000000E-03 0. -1.
        -11    1    3    3    0    0 -0.15682249278E+02  0.17758473519E+02 -0.38331448927E+01  0.23999777586E+02  0.51100000000E-03 0.  1.
         12    1    3    3    0    0  0.22110714051E+02 -0.18882592852E+02  0.26197173073E+02  0.39137295074E+02  0.00000000000E+00 0. -1.
</event>
<event>
 7    1  0.3758561E-013  0.7246167E+02  0.7816164E-02  0.1226708E+00
        -11   -1    0    0    0    0  0.00000000000E+00  0.00000000000E+00  0.45593999997E+02  0.45594000000E+02  0.51100000000E-03 0.  1.
         11   -1    0    0    0    0 -0.00000000000E+00 -0.00000000000E+00 -0.45593999997E+02  0.45594000000E+02  0.51100000000E-03 0. -1.
    9900012    2    1    2    0    0 -0.81860037273E+01 -0.12611765377E+02 -0.11162800370E+02  0.72461671074E+02  0.70000131284E+02 0.  0.
        -12    1    1    2    0    0  0.81860037273E+01  0.12611765377E+02  0.11162800370E+02  0.18726328926E+02  0.00000000000E+00 0.  1.
         11    1    3    3    0    0 -0.15309151504E+02 -0.17580467393E+01 -0.26115519583E+02  0.30322948595E+02  0.51100000000E-03 0. -1.
        -11    1    3    3    0    0  0.38871689046E+01  0.86792566298E+01 -0.75668554440E+01  0.12153060492E+02  0.51100000000E-03 0.  1.
        -12    1    3    3    0    0  0.32359788718E+01 -0.19532975268E+02  0.22519574658E+02  0.29985661988E+02  0.00000000000E+00 0.  1.
</event>
<event>
 7    1  0.3758561E-013  0.7246160E+02  0.7816164E-02  0.1226708E+00
        -11   -1    0    0    0    0  0.00000000000E+00  0.00000000000E+00  0.45593999997E+02  0.45594000000E+02  0.51100000000E-03 0.  1.
         11   -1    0    0    0    0 -0.00000000000E+00 -0.00000000000E+00 -0.45593999997E+02  0.45594000000E+02  0.51100000000E-03 0. -1.
    9900012    2    1    2    0    0  0.53389556327E+00  0.15964600803E+02 -0.97736703489E+01  0.72461597373E+02  0.70000035275E+02 0.  0.
        -12    1    1    2    0    0 -0.53389556327E+00 -0.15964600803E+02  0.97736703489E+01  0.18726402627E+02  0.00000000000E+00 0.  1.
         11    1    3    3    0    0 -0.55158104369E+01 -0.68626308520E+01  0.13711241219E+02  0.16294723165E+02  0.51100000000E-03 0. -1.
        -11    1    3    3    0    0  0.18727405934E+02  0.22161723421E+02  0.51142717370E+00  0.29019291446E+02  0.51100000000E-03 0.  1.
         12    1    3    3    0    0 -0.12677699934E+02  0.66550823406E+00 -0.23996338742E+02  0.27147582762E+02  0.00000000000E+00 0. -1.
</event>
<event>
 7    1  0.3758561E-013  0.7246156E+02  0.7816164E-02  0.1226708E+00
        -11   -1    0    0    0    0  0.00000000000E+00  0.00000000000E+00  0.45593999997E+02  0.45594000000E+02  0.51100000000E-03 0. -1.
         11   -1    0    0    0    0 -0.00000000000E+00 -0.00000000000E+00 -0.45593999997E+02  0.45594000000E+02  0.51100000000E-03 0.  1.
    9900012    2    1    2    0    0  0.16599584487E+02  0.74992997739E+01  0.43467261528E+01  0.72461555317E+02  0.69999980489E+02 0.  0.
        -12    1    1    2    0    0 -0.16599584487E+02 -0.74992997739E+01 -0.43467261528E+01  0.18726444683E+02  0.00000000000E+00 0.  1.
         11    1    3    3    0    0 -0.44106641113E+01 -0.16834483792E+01 -0.17252048948E+02  0.17886339746E+02  0.51100000000E-03 0.  1.
        -11    1    3    3    0    0  0.33687922188E+02  0.98581403099E+01  0.22748419571E+02  0.41827617969E+02  0.51100000000E-03 0. -1.
         12    1    3    3    0    0 -0.12677673590E+02 -0.67539215677E+00 -0.11496444701E+01  0.12747597602E+02  0.00000000000E+00 0. -1.
</event>
<event>
 7    1  0.3758561E-013  0.7246158E+02  0.7816164E-02  0.1226708E+00
        -11   -1    0    0    0    0  0.00000000000E+00  0.00000000000E+00  0.45593999997E+02  0.45594000000E+02  0.51100000000E-03 0.  1.
         11   -1    0    0    0    0 -0.00000000000E+00 -0.00000000000E+00 -0.45593999997E+02  0.45594000000E+02  0.51100000000E-03 0. -1.
    9900012    2    1    2    0    0  0.18265034143E+02  0.10796891218E+01 -0.39876827188E+01  0.72461579778E+02  0.70000012355E+02 0.  0.
        -12    1    1    2    0    0 -0.18265034143E+02 -0.10796891218E+01  0.39876827188E+01  0.18726420222E+02  0.00000000000E+00 0.  1.
         11    1    3    3    0    0  0.10997714888E+02 -0.14399141805E+02 -0.15454663201E+02  0.23814525660E+02  0.51100000000E-03 0. -1.
        -11    1    3    3    0    0  0.86486352218E+01 -0.67477855428E+01 -0.12025357034E+02  0.16276999508E+02  0.51100000000E-03 0.  1.
        -12    1    3    3    0    0 -0.13813159670E+01  0.22226616469E+02  0.23492337517E+02  0.32370054610E+02  0.00000000000E+00 0.  1.
</event>
<event>
 7    1  0.3758561E-013  0.7246210E+02  0.7816164E-02  0.1226707E+00
        -11   -1    0    0    0    0  0.00000000000E+00  0.00000000000E+00  0.45593999997E+02  0.45594000000E+02  0.51100000000E-03 0.  1.
         11   -1    0    0    0    0 -0.00000000000E+00 -0.00000000000E+00 -0.45593999997E+02  0.45594000000E+02  0.51100000000E-03 0. -1.
    9900012    2    1    2    0    0  0.46751899222E+01  0.32388218084E+01 -0.17841294411E+02  0.72462104727E+02  0.70000696194E+02 0.  0.
        -12    1    1    2    0    0 -0.46751899222E+01 -0.32388218084E+01  0.17841294411E+02  0.18725895273E+02  0.00000000000E+00 0.  1.
         11    1    3    3    0    0 -0.26420811856E+00 -0.17969024619E+02 -0.28734530338E+02  0.33891427908E+02  0.51100000000E-03 0. -1.
        -11    1    3    3    0    0 -0.11831016561E+02  0.68868475277E+01 -0.59953408541E+00  0.13702593299E+02  0.51100000000E-03 0.  1.
        -12    1    3    3    0    0  0.16770414602E+02  0.14320998900E+02  0.11492770012E+02  0.24868083520E+02  0.00000000000E+00 0.  1.
</event>
<event>
 7    1  0.3758561E-013  0.7246157E+02  0.7816164E-02  0.1226708E+00
        -11   -1    0    0    0    0  0.00000000000E+00  0.00000000000E+00  0.45593999997E+02  0.45594000000E+02  0.51100000000E-03 0.  1.
         11   -1    0    0    0    0 -0.00000000000E+00 -0.00000000000E+00 -0.45593999997E+02  0.45594000000E+02  0.51100000000E-03 0. -1.
    9900012    2    1    2    0    0  0.75342184609E+01 -0.15967932267E+02 -0.62401754384E+01  0.72461572198E+02  0.70000002480E+02 0.  0.
        -12    1    1    2    0    0 -0.75342184609E+01  0.15967932267E+02  0.62401754384E+01  0.18726427802E+02  0.00000000000E+00 0.  1.
         11    1    3    3    0    0 -0.22540965852E+02 -0.23361571584E+01 -0.21232508828E+02  0.31054342744E+02  0.51100000000E-03 0. -1.
        -11    1    3    3    0    0  0.62475792222E+00  0.37000190053E+01 -0.67881443796E+00  0.38132994117E+01  0.51100000000E-03 0.  1.
        -12    1    3    3    0    0  0.29450426391E+02 -0.17331794114E+02  0.15671147828E+02  0.37593930043E+02  0.00000000000E+00 0.  1.
</event>
<event>
 7    1  0.3758561E-013  0.7246141E+02  0.7816164E-02  0.1226708E+00
        -11   -1    0    0    0    0  0.00000000000E+00  0.00000000000E+00  0.45593999997E+02  0.45594000000E+02  0.51100000000E-03 0.  1.
         11   -1    0    0    0    0 -0.00000000000E+00 -0.00000000000E+00 -0.45593999997E+02  0.45594000000E+02  0.51100000000E-03 0. -1.
    9900012    2    1    2    0    0  0.42321645061E+01  0.71379311030E+01 -0.16787615631E+02  0.72461406199E+02  0.69999786234E+02 0.  0.
        -12    1    1    2    0    0 -0.42321645061E+01 -0.71379311030E+01  0.16787615631E+02  0.18726593801E+02  0.00000000000E+00 0.  1.
         11    1    3    3    0    0 -0.21160871291E+02  0.28078147602E+01 -0.99879444599E+01  0.23567463426E+02  0.51100000000E-03 0. -1.
        -11    1    3    3    0    0 -0.42588739744E+01  0.15725597783E+02  0.50013774341E+00  0.16299772120E+02  0.51100000000E-03 0.  1.
         12    1    3    3    0    0  0.29651909771E+02 -0.11395481440E+02 -0.72998089143E+01  0.32594170653E+02  0.00000000000E+00 0. -1.
</event>
<event>
 7    1  0.3758561E-013  0.7246155E+02  0.7816164E-02  0.1226708E+00
        -11   -1    0    0    0    0  0.00000000000E+00  0.00000000000E+00  0.45593999997E+02  0.45594000000E+02  0.51100000000E-03 0. -1.
         11   -1    0    0    0    0 -0.00000000000E+00 -0.00000000000E+00 -0.45593999997E+02  0.45594000000E+02  0.51100000000E-03 0.  1.
    9900012    2    1    2    0    0  0.11717622107E+02  0.97836471356E+01  0.10847008993E+02  0.72461547501E+02  0.69999970307E+02 0.  0.
        -12    1    1    2    0    0 -0.11717622107E+02 -0.97836471356E+01 -0.10847008993E+02  0.18726452499E+02  0.00000000000E+00 0.  1.
         11    1    3    3    0    0  0.14732702683E+02  0.13238880936E+01 -0.67074860785E+01  0.16241784932E+02  0.51100000000E-03 0. -1.
        -11    1    3    3    0    0  0.14261481063E+02 -0.13501542283E+02  0.20174504047E+02  0.28154788224E+02  0.51100000000E-03 0.  1.
         12    1    3    3    0    0 -0.17276561638E+02  0.21961301325E+02 -0.26200089751E+01  0.28064974345E+02  0.00000000000E+00 0. -1.
</event>
<event>
 7    1  0.3758561E-013  0.7246160E+02  0.7816164E-02  0.1226708E+00
        -11   -1    0    0    0    0  0.00000000000E+00  0.00000000000E+00  0.45593999997E+02  0.45594000000E+02  0.51100000000E-03 0.  1.
         11   -1    0    0    0    0 -0.00000000000E+00 -0.00000000000E+00 -0.45593999997E+02  0.45594000000E+02  0.51100000000E-03 0. -1.
    9900012    2    1    2    0    0  0.58205698745E+01 -0.11952990198E+02 -0.13188069828E+02  0.72461596338E+02  0.70000033926E+02 0.  0.
        -12    1    1    2    0    0 -0.58205698745E+01  0.11952990198E+02  0.13188069828E+02  0.18726403662E+02  0.00000000000E+00 0.  1.
         11    1    3    3    0    0  0.67104883548E+01 -0.10735636124E+02  0.13541479490E+02  0.18537966554E+02  0.51100000000E-03 0. -1.
        -11    1    3    3    0    0  0.70874531191E+01  0.14925856162E+01  0.12148180654E+02  0.14143482492E+02  0.51100000000E-03 0.  1.
         12    1    3    3    0    0 -0.79773715993E+01 -0.27099396907E+01 -0.38877729972E+02  0.39780147291E+02  0.00000000000E+00 0. -1.
</event>
<event>
 7    1  0.3758561E-013  0.7246152E+02  0.7816164E-02  0.1226708E+00
        -11   -1    0    0    0    0  0.00000000000E+00  0.00000000000E+00  0.45593999997E+02  0.45594000000E+02  0.51100000000E-03 0. -1.
         11   -1    0    0    0    0 -0.00000000000E+00 -0.00000000000E+00 -0.45593999997E+02  0.45594000000E+02  0.51100000000E-03 0.  1.
    9900012    2    1    2    0    0 -0.12669172119E+02 -0.61126790678E+01  0.12361559829E+02  0.72461523317E+02  0.69999938803E+02 0.  0.
        -12    1    1    2    0    0  0.12669172119E+02  0.61126790678E+01 -0.12361559829E+02  0.18726476683E+02  0.00000000000E+00 0.  1.
         11    1    3    3    0    0  0.24272529322E+02 -0.60760212849E+01  0.15995308446E+02  0.29697198637E+02  0.51100000000E-03 0. -1.
        -11    1    3    3    0    0  0.23959362204E+00 -0.45863764022E+01 -0.26297565064E+01  0.52922465126E+01  0.51100000000E-03 0.  1.
         12    1    3    3    0    0 -0.37181295062E+02  0.45497186193E+01 -0.10039921101E+01  0.37472078168E+02  0.00000000000E+00 0. -1.
</event>
<event>
 7    1  0.3758561E-013  0.7246148E+02  0.7816164E-02  0.1226708E+00
        -11   -1    0    0    0    0  0.00000000000E+00  0.00000000000E+00  0.45593999997E+02  0.45594000000E+02  0.51100000000E-03 0. -1.
         11   -1    0    0    0    0 -0.00000000000E+00 -0.00000000000E+00 -0.45593999997E+02  0.45594000000E+02  0.51100000000E-03 0.  1.
    9900012    2    1    2    0    0  0.13960284712E+02 -0.89404777027E+01 -0.87098233952E+01  0.72461475646E+02  0.69999876703E+02 0.  0.
        -12    1    1    2    0    0 -0.13960284712E+02  0.89404777027E+01  0.87098233952E+01  0.18726524354E+02  0.00000000000E+00 0.  1.
         11    1    3    3    0    0  0.32182301788E+02 -0.10186292546E+02 -0.11015913774E+02  0.35507907017E+02  0.51100000000E-03 0. -1.
        -11    1    3    3    0    0  0.20922684205E+00  0.13698719379E+02  0.49195072295E+01  0.14556793607E+02  0.51100000000E-03 0.  1.
        -12    1    3    3    0    0 -0.18431243918E+02 -0.12452904536E+02 -0.26134168507E+01  0.22396775022E+02  0.00000000000E+00 0.  1.
</event>
<event>
 7    1  0.3758561E-013  0.7246157E+02  0.7816164E-02  0.1226708E+00
        -11   -1    0    0    0    0  0.00000000000E+00  0.00000000000E+00  0.45593999997E+02  0.45594000000E+02  0.51100000000E-03 0. -1.
         11   -1    0    0    0    0 -0.00000000000E+00 -0.00000000000E+00 -0.45593999997E+02  0.45594000000E+02  0.51100000000E-03 0.  1.
    9900012    2    1    2    0    0 -0.20512062527E+01  0.16551402395E+02  0.85160419531E+01  0.72461565773E+02  0.69999994110E+02 0.  0.
        -12    1    1    2    0    0  0.20512062527E+01 -0.16551402395E+02 -0.85160419531E+01  0.18726434227E+02  0.00000000000E+00 0.  1.
         11    1    3    3    0    0 -0.87679198956E+01 -0.11088909303E+02 -0.29332445420E+01  0.14437598575E+02  0.51100000000E-03 0. -1.
        -11    1    3    3    0    0  0.52269534428E+00 -0.10766306663E+02  0.15533761359E+02  0.18907255533E+02  0.51100000000E-03 0.  1.
         12    1    3    3    0    0  0.61940182985E+01  0.38406618360E+02 -0.40844748636E+01  0.39116711664E+02  0.00000000000E+00 0. -1.
</event>
<event>
 7    1  0.3758561E-013  0.7246155E+02  0.7816164E-02  0.1226708E+00
        -11   -1    0    0    0    0  0.00000000000E+00  0.00000000000E+00  0.45593999997E+02  0.45594000000E+02  0.51100000000E-03 0.  1.
         11   -1    0    0    0    0 -0.00000000000E+00 -0.00000000000E+00 -0.45593999997E+02  0.45594000000E+02  0.51100000000E-03 0. -1.
    9900012    2    1    2    0    0  0.19505611048E+01 -0.13728148056E+02 -0.12586232101E+02  0.72461548756E+02  0.69999971943E+02 0.  0.
        -12    1    1    2    0    0 -0.19505611048E+01  0.13728148056E+02  0.12586232101E+02  0.18726451244E+02  0.00000000000E+00 0.  1.
         11    1    3    3    0    0 -0.13237494878E+02 -0.32773919144E+01  0.49018687601E+00  0.13645982992E+02  0.51100000000E-03 0. -1.
        -11    1    3    3    0    0 -0.14649712319E+02  0.51323692302E+01  0.95784212289E+01  0.18240105220E+02  0.51100000000E-03 0.  1.
         12    1    3    3    0    0  0.29837768301E+02 -0.15583125372E+02 -0.22654840206E+02  0.40575460544E+02  0.00000000000E+00 0. -1.
</event>
<event>
 7    1  0.3758561E-013  0.7246158E+02  0.7816164E-02  0.1226708E+00
        -11   -1    0    0    0    0  0.00000000000E+00  0.00000000000E+00  0.45593999997E+02  0.45594000000E+02  0.51100000000E-03 0. -1.
         11   -1    0    0    0    0 -0.00000000000E+00 -0.00000000000E+00 -0.45593999997E+02  0.45594000000E+02  0.51100000000E-03 0.  1.
    9900012    2    1    2    0    0 -0.17122208577E+02 -0.42996414336E+01  0.62467480255E+01  0.72461580056E+02  0.70000012717E+02 0.  0.
        -12    1    1    2    0    0  0.17122208577E+02  0.42996414336E+01 -0.62467480255E+01  0.18726419944E+02  0.00000000000E+00 0.  1.
         11    1    3    3    0    0 -0.13006600516E+02 -0.29994123320E+02 -0.67230203826E+01  0.33376909594E+02  0.51100000000E-03 0. -1.
        -11    1    3    3    0    0 -0.62239194442E+01 -0.20476953978E+01 -0.27759647095E+01  0.71159124516E+01  0.51100000000E-03 0.  1.
        -12    1    3    3    0    0  0.21083113827E+01  0.27742177284E+02  0.15745733118E+02  0.31968758011E+02  0.00000000000E+00 0.  1.
</event>
<event>
 7    1  0.3758561E-013  0.7246168E+02  0.7816164E-02  0.1226708E+00
        -11   -1    0    0    0    0  0.00000000000E+00  0.00000000000E+00  0.45593999997E+02  0.45594000000E+02  0.51100000000E-03 0. -1.
         11   -1    0    0    0    0 -0.00000000000E+00 -0.00000000000E+00 -0.45593999997E+02  0.45594000000E+02  0.51100000000E-03 0.  1.
    9900012    2    1    2    0    0  0.13562201847E+02 -0.86844123178E+01  0.95562837974E+01  0.72461684392E+02  0.70000148633E+02 0.  0.
        -12    1    1    2    0    0 -0.13562201847E+02  0.86844123178E+01 -0.95562837974E+01  0.18726315608E+02  0.00000000000E+00 0.  1.
         11    1    3    3    0    0 -0.12120849058E+02  0.45301699930E+01 -0.86076283574E+00  0.12968358993E+02  0.51100000000E-03 0. -1.
        -11    1    3    3    0    0  0.28665425202E+02  0.12591167228E+02 -0.50555970782E+00  0.31312931594E+02  0.51100000000E-03 0.  1.
         12    1    3    3    0    0 -0.29823742968E+01 -0.25805749539E+02  0.10922606341E+02  0.28180393804E+02  0.00000000000E+00 0. -1.
</event>
<event>
 7    1  0.3758561E-013  0.7246189E+02  0.7816164E-02  0.1226707E+00
        -11   -1    0    0    0    0  0.00000000000E+00  0.00000000000E+00  0.45593999997E+02  0.45594000000E+02  0.51100000000E-03 0.  1.
         11   -1    0    0    0    0 -0.00000000000E+00 -0.00000000000E+00 -0.45593999997E+02  0.45594000000E+02  0.51100000000E-03 0. -1.
    9900012    2    1    2    0    0  0.11544893104E+02  0.75171298314E+01 -0.12683661329E+02  0.72461893561E+02  0.70000421113E+02 0.  0.
        -12    1    1    2    0    0 -0.11544893104E+02 -0.75171298314E+01  0.12683661329E+02  0.18726106439E+02  0.00000000000E+00 0.  1.
         11    1    3    3    0    0 -0.36902464200E+01 -0.48487754477E+01  0.25948856729E+01  0.66228372997E+01  0.51100000000E-03 0. -1.
        -11    1    3    3    0    0  0.80388931671E+00 -0.22179659909E+02 -0.17604056992E+02  0.28328190456E+02  0.51100000000E-03 0.  1.
         12    1    3    3    0    0  0.14431250207E+02  0.34545565188E+02  0.23255099901E+01  0.37510865804E+02  0.00000000000E+00 0. -1.
</event>
<event>
 7    1  0.3758561E-013  0.7246156E+02  0.7816164E-02  0.1226708E+00
        -11   -1    0    0    0    0  0.00000000000E+00  0.00000000000E+00  0.45593999997E+02  0.45594000000E+02  0.51100000000E-03 0. -1.
         11   -1    0    0    0    0 -0.00000000000E+00 -0.00000000000E+00 -0.45593999997E+02  0.45594000000E+02  0.51100000000E-03 0.  1.
    9900012    2    1    2    0    0  0.89989182817E+01 -0.14502895046E+02  0.77048726183E+01  0.72461559948E+02  0.69999986522E+02 0.  0.
        -12    1    1    2    0    0 -0.89989182817E+01  0.14502895046E+02 -0.77048726183E+01  0.18726440052E+02  0.00000000000E+00 0.  1.
         11    1    3    3    0    0 -0.19277081733E+02  0.53030703746E+01  0.25270961035E+01  0.20152286483E+02  0.51100000000E-03 0. -1.
        -11    1    3    3    0    0 -0.88700175485E+01 -0.71347487393E+01 -0.38862014251E+01  0.12028483390E+02  0.51100000000E-03 0.  1.
         12    1    3    3    0    0  0.37146017563E+02 -0.12671216681E+02  0.90639779400E+01  0.40280790075E+02  0.00000000000E+00 0. -1.
</event>
<event>
 7    1  0.3758561E-013  0.7246159E+02  0.7816164E-02  0.1226708E+00
        -11   -1    0    0    0    0  0.00000000000E+00  0.00000000000E+00  0.45593999997E+02  0.45594000000E+02  0.51100000000E-03 0.  1.
         11   -1    0    0    0    0 -0.00000000000E+00 -0.00000000000E+00 -0.45593999997E+02  0.45594000000E+02  0.51100000000E-03 0. -1.
    9900012    2    1    2    0    0  0.42098419277E+01  0.17896588644E+02 -0.35591614272E+01  0.72461593933E+02  0.70000030793E+02 0.  0.
        -12    1    1    2    0    0 -0.42098419277E+01 -0.17896588644E+02  0.35591614272E+01  0.18726406067E+02  0.00000000000E+00 0.  1.
         11    1    3    3    0    0  0.15343527572E+02  0.12581754078E+02 -0.53506919499E+01  0.20551259783E+02  0.51100000000E-03 0. -1.
        -11    1    3    3    0    0  0.14183292623E+02 -0.14016432677E+02 -0.75774123622E+00  0.19954957947E+02  0.51100000000E-03 0.  1.
        -12    1    3    3    0    0 -0.25316978268E+02  0.19331267242E+02  0.25492717589E+01  0.31955376203E+02  0.00000000000E+00 0.  1.
</event>
<event>
 7    1  0.3758561E-013  0.7246156E+02  0.7816164E-02  0.1226708E+00
        -11   -1    0    0    0    0  0.00000000000E+00  0.00000000000E+00  0.45593999997E+02  0.45594000000E+02  0.51100000000E-03 0.  1.
         11   -1    0    0    0    0 -0.00000000000E+00 -0.00000000000E+00 -0.45593999997E+02  0.45594000000E+02  0.51100000000E-03 0. -1.
    9900012    2    1    2    0    0 -0.18120265570E+02 -0.52955048732E+00 -0.46962809455E+01  0.72461561396E+02  0.69999988409E+02 0.  0.
        -12    1    1    2    0    0  0.18120265570E+02  0.52955048732E+00  0.46962809455E+01  0.18726438604E+02  0.00000000000E+00 0.  1.
         11    1    3    3    0    0  0.52622190805E+01 -0.10688337149E+02 -0.25250598696E+02  0.27919961236E+02  0.51100000000E-03 0. -1.
        -11    1    3    3    0    0 -0.27210785709E+01 -0.15785435933E+01 -0.72877892345E+01  0.79377541315E+01  0.51100000000E-03 0.  1.
        -12    1    3    3    0    0 -0.20661406080E+02  0.11737330255E+02  0.27842106985E+02  0.36603846029E+02  0.00000000000E+00 0.  1.
</event>
<event>
 7    1  0.3758561E-013  0.7246156E+02  0.7816164E-02  0.1226708E+00
        -11   -1    0    0    0    0  0.00000000000E+00  0.00000000000E+00  0.45593999997E+02  0.45594000000E+02  0.51100000000E-03 0.  1.
         11   -1    0    0    0    0 -0.00000000000E+00 -0.00000000000E+00 -0.45593999997E+02  0.45594000000E+02  0.51100000000E-03 0. -1.
    9900012    2    1    2    0    0 -0.13643723900E+01 -0.97659198963E+01 -0.15919946366E+02  0.72461564254E+02  0.69999992131E+02 0.  0.
        -12    1    1    2    0    0  0.13643723900E+01  0.97659198963E+01  0.15919946366E+02  0.18726435746E+02  0.00000000000E+00 0.  1.
         11    1    3    3    0    0  0.11295103380E+02 -0.23721264225E+02 -0.12193673157E+02  0.28964864960E+02  0.51100000000E-03 0. -1.
        -11    1    3    3    0    0 -0.16241147651E+00 -0.92255803423E+01 -0.12679447929E+02  0.15681393757E+02  0.51100000000E-03 0.  1.
        -12    1    3    3    0    0 -0.12497064294E+02  0.23180924671E+02  0.89531747194E+01  0.27815305537E+02  0.00000000000E+00 0.  1.
</event>
<event>
 7    1  0.3758561E-013  0.7246154E+02  0.7816164E-02  0.1226708E+00
        -11   -1    0    0    0    0  0.00000000000E+00  0.00000000000E+00  0.45593999997E+02  0.45594000000E+02  0.51100000000E-03 0.  1.
         11   -1    0    0    0    0 -0.00000000000E+00 -0.00000000000E+00 -0.45593999997E+02  0.45594000000E+02  0.51100000000E-03 0. -1.
    9900012    2    1    2    0    0  0.25344830621E+00 -0.16203165504E+02  0.93847395749E+01  0.72461544241E+02  0.69999966061E+02 0.  0.
        -12    1    1    2    0    0 -0.25344830621E+00  0.16203165504E+02 -0.93847395749E+01  0.18726455759E+02  0.00000000000E+00 0.  1.
         11    1    3    3    0    0  0.17510392439E+02 -0.20744054330E+02  0.19492960013E+02  0.33420130517E+02  0.51100000000E-03 0. -1.
        -11    1    3    3    0    0 -0.15322297126E+02 -0.86824001528E-01  0.10013216231E+02  0.18304229762E+02  0.51100000000E-03 0.  1.
        -12    1    3    3    0    0 -0.19346470072E+01  0.46277128276E+01 -0.20121436669E+02  0.20737183962E+02  0.00000000000E+00 0.  1.
</event>
<event>
 7    1  0.3758561E-013  0.7246159E+02  0.7816164E-02  0.1226708E+00
        -11   -1    0    0    0    0  0.00000000000E+00  0.00000000000E+00  0.45593999997E+02  0.45594000000E+02  0.51100000000E-03 0.  1.
         11   -1    0    0    0    0 -0.00000000000E+00 -0.00000000000E+00 -0.45593999997E+02  0.45594000000E+02  0.51100000000E-03 0. -1.
    9900012    2    1    2    0    0 -0.35600934287E+00  0.28224881907E+01 -0.18509061805E+02  0.72461586806E+02  0.70000021509E+02 0.  0.
        -12    1    1    2    0    0  0.35600934287E+00 -0.28224881907E+01  0.18509061805E+02  0.18726413194E+02  0.00000000000E+00 0.  1.
         11    1    3    3    0    0  0.17685355395E+02  0.79470058174E+01  0.43780556761E+01  0.19876973328E+02  0.51100000000E-03 0. -1.
        -11    1    3    3    0    0 -0.10521007157E+02  0.19082013559E+02 -0.81529104437E+01  0.23265527762E+02  0.51100000000E-03 0.  1.
         12    1    3    3    0    0 -0.75203575814E+01 -0.24206531186E+02 -0.14734207037E+02  0.29319085716E+02  0.00000000000E+00 0. -1.
</event>
<event>
 7    1  0.3758561E-013  0.7246163E+02  0.7816164E-02  0.1226708E+00
        -11   -1    0    0    0    0  0.00000000000E+00  0.00000000000E+00  0.45593999997E+02  0.45594000000E+02  0.51100000000E-03 0.  1.
         11   -1    0    0    0    0 -0.00000000000E+00 -0.00000000000E+00 -0.45593999997E+02  0.45594000000E+02  0.51100000000E-03 0. -1.
    9900012    2    1    2    0    0  0.10573100025E+02 -0.70135610406E+01 -0.13773032232E+02  0.72461630905E+02  0.70000078956E+02 0.  0.
        -12    1    1    2    0    0 -0.10573100025E+02  0.70135610406E+01  0.13773032232E+02  0.18726369095E+02  0.00000000000E+00 0.  1.
         11    1    3    3    0    0  0.26473137504E+02  0.92788040407E+01 -0.17171546159E+02  0.32890503363E+02  0.51100000000E-03 0. -1.
        -11    1    3    3    0    0 -0.75068956798E+01 -0.35598723800E+00 -0.13127724715E+02  0.15126710353E+02  0.51100000000E-03 0.  1.
         12    1    3    3    0    0 -0.83931417985E+01 -0.15936377843E+02  0.16526238642E+02  0.24444417188E+02  0.00000000000E+00 0. -1.
</event>
<event>
 7    1  0.3758561E-013  0.7246160E+02  0.7816164E-02  0.1226708E+00
        -11   -1    0    0    0    0  0.00000000000E+00  0.00000000000E+00  0.45593999997E+02  0.45594000000E+02  0.51100000000E-03 0.  1.
         11   -1    0    0    0    0 -0.00000000000E+00 -0.00000000000E+00 -0.45593999997E+02  0.45594000000E+02  0.51100000000E-03 0. -1.
    9900012    2    1    2    0    0 -0.13202413323E+02  0.91455790249E+01 -0.96297830181E+01  0.72461600073E+02  0.70000038793E+02 0.  0.
        -12    1    1    2    0    0  0.13202413323E+02 -0.91455790249E+01  0.96297830181E+01  0.18726399927E+02  0.00000000000E+00 0.  1.
         11    1    3    3    0    0 -0.14021955714E+01 -0.62019475584E+01  0.21636470691E+00  0.63621631451E+01  0.51100000000E-03 0. -1.
        -11    1    3    3    0    0 -0.18592995122E+02  0.39842204543E+01  0.23495257916E+02  0.30225827119E+02  0.51100000000E-03 0.  1.
         12    1    3    3    0    0  0.67927773707E+01  0.11363306129E+02 -0.33341405641E+02  0.35873609809E+02  0.00000000000E+00 0. -1.
</event>
<event>
 7    1  0.3758561E-013  0.7246149E+02  0.7816164E-02  0.1226708E+00
        -11   -1    0    0    0    0  0.00000000000E+00  0.00000000000E+00  0.45593999997E+02  0.45594000000E+02  0.51100000000E-03 0. -1.
         11   -1    0    0    0    0 -0.00000000000E+00 -0.00000000000E+00 -0.45593999997E+02  0.45594000000E+02  0.51100000000E-03 0.  1.
    9900012    2    1    2    0    0  0.14032515321E+01 -0.12266804421E+02  0.14079719151E+02  0.72461492131E+02  0.69999898178E+02 0.  0.
        -12    1    1    2    0    0 -0.14032515321E+01  0.12266804421E+02 -0.14079719151E+02  0.18726507869E+02  0.00000000000E+00 0.  1.
         11    1    3    3    0    0 -0.15374258153E+01 -0.23518076267E+01  0.15759206547E+02  0.16007725276E+02  0.51100000000E-03 0. -1.
        -11    1    3    3    0    0 -0.23745180159E+02 -0.88009963300E+01 -0.11740061220E+02  0.27912723889E+02  0.51100000000E-03 0.  1.
         12    1    3    3    0    0  0.26685857507E+02 -0.11140004646E+01  0.10060573824E+02  0.28541042966E+02  0.00000000000E+00 0. -1.
</event>
<event>
 7    1  0.3758561E-013  0.7246152E+02  0.7816164E-02  0.1226708E+00
        -11   -1    0    0    0    0  0.00000000000E+00  0.00000000000E+00  0.45593999997E+02  0.45594000000E+02  0.51100000000E-03 0.  1.
         11   -1    0    0    0    0 -0.00000000000E+00 -0.00000000000E+00 -0.45593999997E+02  0.45594000000E+02  0.51100000000E-03 0. -1.
    9900012    2    1    2    0    0  0.10231659990E+02 -0.56527287966E+01 -0.14630131325E+02  0.72461522713E+02  0.69999938016E+02 0.  0.
        -12    1    1    2    0    0 -0.10231659990E+02  0.56527287966E+01  0.14630131325E+02  0.18726477287E+02  0.00000000000E+00 0.  1.
         11    1    3    3    0    0  0.19647442238E+02 -0.10608391589E+02 -0.17756035289E+02  0.28527824103E+02  0.51100000000E-03 0. -1.
        -11    1    3    3    0    0  0.91759426081E+01 -0.13064809432E+02 -0.51107661978E+01  0.16763266377E+02  0.51100000000E-03 0.  1.
        -12    1    3    3    0    0 -0.18591724857E+02  0.18020472225E+02  0.82366701619E+01  0.27170432233E+02  0.00000000000E+00 0.  1.
</event>
<event>
 7    1  0.3758561E-013  0.7246180E+02  0.7816164E-02  0.1226707E+00
        -11   -1    0    0    0    0  0.00000000000E+00  0.00000000000E+00  0.45593999997E+02  0.45594000000E+02  0.51100000000E-03 0. -1.
         11   -1    0    0    0    0 -0.00000000000E+00 -0.00000000000E+00 -0.45593999997E+02  0.45594000000E+02  0.51100000000E-03 0.  1.
    9900012    2    1    2    0    0  0.94969964038E+01 -0.79979264374E+01  0.14018225204E+02  0.72461804287E+02  0.70000304819E+02 0.  0.
        -12    1    1    2    0    0 -0.94969964038E+01  0.79979264374E+01 -0.14018225204E+02  0.18726195713E+02  0.00000000000E+00 0.  1.
         11    1    3    3    0    0  0.13595957840E+02 -0.21814590106E+01 -0.27473734280E+01  0.14041256853E+02  0.51100000000E-03 0. -1.
        -11    1    3    3    0    0  0.19503388683E+02  0.10291395409E+02 -0.48642902576E+01  0.22582212237E+02  0.51100000000E-03 0.  1.
         12    1    3    3    0    0 -0.23602350119E+02 -0.16107862835E+02  0.21629888890E+02  0.35838335197E+02  0.00000000000E+00 0. -1.
</event>
<event>
 7    1  0.3758561E-013  0.7246180E+02  0.7816164E-02  0.1226707E+00
        -11   -1    0    0    0    0  0.00000000000E+00  0.00000000000E+00  0.45593999997E+02  0.45594000000E+02  0.51100000000E-03 0.  1.
         11   -1    0    0    0    0 -0.00000000000E+00 -0.00000000000E+00 -0.45593999997E+02  0.45594000000E+02  0.51100000000E-03 0. -1.
    9900012    2    1    2    0    0 -0.11130259918E+02 -0.26094237428E+01 -0.14831677321E+02  0.72461803636E+02  0.70000303971E+02 0.  0.
        -12    1    1    2    0    0  0.11130259918E+02  0.26094237428E+01  0.14831677321E+02  0.18726196364E+02  0.00000000000E+00 0.  1.
         11    1    3    3    0    0 -0.24005999861E+02 -0.11160748141E+02 -0.16628553198E+02  0.31262743164E+02  0.51100000000E-03 0. -1.
        -11    1    3    3    0    0  0.12190472103E+02 -0.42136609134E+01 -0.15197799180E+02  0.19933279925E+02  0.51100000000E-03 0.  1.
        -12    1    3    3    0    0  0.68526784082E+00  0.12764985312E+02  0.16994675057E+02  0.21265780548E+02  0.00000000000E+00 0.  1.
</event>
<event>
 7    1  0.3758561E-013  0.7246156E+02  0.7816164E-02  0.1226708E+00
        -11   -1    0    0    0    0  0.00000000000E+00  0.00000000000E+00  0.45593999997E+02  0.45594000000E+02  0.51100000000E-03 0.  1.
         11   -1    0    0    0    0 -0.00000000000E+00 -0.00000000000E+00 -0.45593999997E+02  0.45594000000E+02  0.51100000000E-03 0. -1.
    9900012    2    1    2    0    0  0.66710876990E+01  0.17415429294E+02  0.16967642129E+01  0.72461558870E+02  0.69999985118E+02 0.  0.
        -12    1    1    2    0    0 -0.66710876990E+01 -0.17415429294E+02 -0.16967642129E+01  0.18726441130E+02  0.00000000000E+00 0.  1.
         11    1    3    3    0    0 -0.11655999536E+02  0.14334595066E+02 -0.11686037055E+02  0.21861070495E+02  0.51100000000E-03 0. -1.
        -11    1    3    3    0    0 -0.93345209848E+01  0.15473479640E+02  0.18328801691E+01  0.18163735964E+02  0.51100000000E-03 0.  1.
        -12    1    3    3    0    0  0.27661608220E+02 -0.12392645412E+02  0.11549921099E+02  0.32436752411E+02  0.00000000000E+00 0.  1.
</event>
<event>
 7    1  0.3758561E-013  0.7246156E+02  0.7816164E-02  0.1226708E+00
        -11   -1    0    0    0    0  0.00000000000E+00  0.00000000000E+00  0.45593999997E+02  0.45594000000E+02  0.51100000000E-03 0. -1.
         11   -1    0    0    0    0 -0.00000000000E+00 -0.00000000000E+00 -0.45593999997E+02  0.45594000000E+02  0.51100000000E-03 0.  1.
    9900012    2    1    2    0    0 -0.17624083666E+02 -0.16475317146E+01  0.61120122957E+01  0.72461564672E+02  0.69999992675E+02 0.  0.
        -12    1    1    2    0    0  0.17624083666E+02  0.16475317146E+01 -0.61120122957E+01  0.18726435328E+02  0.00000000000E+00 0.  1.
         11    1    3    3    0    0 -0.16229765819E+02 -0.53063380302E+01  0.88572660409E+01  0.19235739752E+02  0.51100000000E-03 0. -1.
        -11    1    3    3    0    0 -0.46084836866E+01 -0.92012129567E+01  0.22483508331E+02  0.24726677676E+02  0.51100000000E-03 0.  1.
        -12    1    3    3    0    0  0.32141658401E+01  0.12860019272E+02 -0.25228762076E+02  0.28499147244E+02  0.00000000000E+00 0.  1.
</event>
<event>
 7    1  0.3758561E-013  0.7246111E+02  0.7816164E-02  0.1226709E+00
        -11   -1    0    0    0    0  0.00000000000E+00  0.00000000000E+00  0.45593999997E+02  0.45594000000E+02  0.51100000000E-03 0.  1.
         11   -1    0    0    0    0 -0.00000000000E+00 -0.00000000000E+00 -0.45593999997E+02  0.45594000000E+02  0.51100000000E-03 0. -1.
    9900012    2    1    2    0    0  0.12136527643E+01  0.37385143950E+01 -0.18309749721E+02  0.72461110836E+02  0.69999401468E+02 0.  0.
        -12    1    1    2    0    0 -0.12136527643E+01 -0.37385143950E+01  0.18309749721E+02  0.18726889164E+02  0.00000000000E+00 0.  1.
         11    1    3    3    0    0  0.42742495294E+01 -0.13585123494E+00 -0.14186048362E+02  0.14816599913E+02  0.51100000000E-03 0. -1.
        -11    1    3    3    0    0  0.19827297098E+02  0.20804790580E+02 -0.49531224927E+01  0.29163237885E+02  0.51100000000E-03 0.  1.
        -12    1    3    3    0    0 -0.22887893863E+02 -0.16930424950E+02  0.82942113385E+00  0.28481273038E+02  0.00000000000E+00 0.  1.
</event>
<event>
 7    1  0.3758561E-013  0.7246155E+02  0.7816164E-02  0.1226708E+00
        -11   -1    0    0    0    0  0.00000000000E+00  0.00000000000E+00  0.45593999997E+02  0.45594000000E+02  0.51100000000E-03 0. -1.
         11   -1    0    0    0    0 -0.00000000000E+00 -0.00000000000E+00 -0.45593999997E+02  0.45594000000E+02  0.51100000000E-03 0.  1.
    9900012    2    1    2    0    0 -0.23360088613E+01 -0.14740602934E+02  0.11310957935E+02  0.72461545940E+02  0.69999968274E+02 0.  0.
        -12    1    1    2    0    0  0.23360088613E+01  0.14740602934E+02 -0.11310957935E+02  0.18726454060E+02  0.00000000000E+00 0.  1.
         11    1    3    3    0    0  0.87798425887E+01 -0.23135092472E+02  0.82445049569E+01  0.26082369559E+02  0.51100000000E-03 0. -1.
        -11    1    3    3    0    0  0.84081912323E+01 -0.10792822735E+02 -0.90913417398E+01  0.16426661172E+02  0.51100000000E-03 0.  1.
        -12    1    3    3    0    0 -0.19524042682E+02  0.19187312273E+02  0.12157794718E+02  0.29952515209E+02  0.00000000000E+00 0.  1.
</event>
<event>
 7    1  0.3758561E-013  0.7246156E+02  0.7816164E-02  0.1226708E+00
        -11   -1    0    0    0    0  0.00000000000E+00  0.00000000000E+00  0.45593999997E+02  0.45594000000E+02  0.51100000000E-03 0.  1.
         11   -1    0    0    0    0 -0.00000000000E+00 -0.00000000000E+00 -0.45593999997E+02  0.45594000000E+02  0.51100000000E-03 0. -1.
    9900012    2    1    2    0    0 -0.16430341923E+02 -0.37004209045E+01  0.81872110734E+01  0.72461556778E+02  0.69999982393E+02 0.  0.
        -12    1    1    2    0    0  0.16430341923E+02  0.37004209045E+01 -0.81872110734E+01  0.18726443222E+02  0.00000000000E+00 0.  1.
         11    1    3    3    0    0 -0.66273233655E+01  0.13364127518E+02 -0.98439667470E+01  0.17872464880E+02  0.51100000000E-03 0. -1.
        -11    1    3    3    0    0  0.19043217731E+01 -0.12228686281E+01 -0.15519258201E+02  0.15683406022E+02  0.51100000000E-03 0.  1.
        -12    1    3    3    0    0 -0.11707340331E+02 -0.15841679794E+02  0.33550436021E+02  0.38905685876E+02  0.00000000000E+00 0.  1.
</event>
<event>
 7    1  0.3758561E-013  0.7246162E+02  0.7816164E-02  0.1226708E+00
        -11   -1    0    0    0    0  0.00000000000E+00  0.00000000000E+00  0.45593999997E+02  0.45594000000E+02  0.51100000000E-03 0.  1.
         11   -1    0    0    0    0 -0.00000000000E+00 -0.00000000000E+00 -0.45593999997E+02  0.45594000000E+02  0.51100000000E-03 0. -1.
    9900012    2    1    2    0    0 -0.63030054474E+01 -0.17285025004E+02 -0.34896255782E+01  0.72461616106E+02  0.70000059678E+02 0.  0.
        -12    1    1    2    0    0  0.63030054474E+01  0.17285025004E+02  0.34896255782E+01  0.18726383894E+02  0.00000000000E+00 0.  1.
         11    1    3    3    0    0 -0.49300538470E+00  0.10637437206E+02 -0.18067524312E+01  0.10801040655E+02  0.51100000000E-03 0. -1.
        -11    1    3    3    0    0  0.24486440342E+02 -0.14820514270E+02 -0.12529762549E+01  0.28649665855E+02  0.51100000000E-03 0.  1.
         12    1    3    3    0    0 -0.30296440404E+02 -0.13101947941E+02 -0.42989689218E+00  0.33010909596E+02  0.00000000000E+00 0. -1.
</event>
<event>
 7    1  0.3758561E-013  0.7246158E+02  0.7816164E-02  0.1226708E+00
        -11   -1    0    0    0    0  0.00000000000E+00  0.00000000000E+00  0.45593999997E+02  0.45594000000E+02  0.51100000000E-03 0.  1.
         11   -1    0    0    0    0 -0.00000000000E+00 -0.00000000000E+00 -0.45593999997E+02  0.45594000000E+02  0.51100000000E-03 0. -1.
    9900012    2    1    2    0    0 -0.37466202925E+01 -0.29757133921E+01 -0.18104885901E+02  0.72461576762E+02  0.70000008425E+02 0.  0.
        -12    1    1    2    0    0  0.37466202925E+01  0.29757133921E+01  0.18104885901E+02  0.18726423238E+02  0.00000000000E+00 0.  1.
         11    1    3    3    0    0 -0.10670671753E+02  0.30921047158E+01 -0.19275836285E+01  0.11275634179E+02  0.51100000000E-03 0. -1.
        -11    1    3    3    0    0 -0.11207611764E+02  0.21962180296E+02 -0.14519465964E+01  0.24699313229E+02  0.51100000000E-03 0.  1.
         12    1    3    3    0    0  0.18131663225E+02 -0.28029998404E+02 -0.14725355676E+02  0.36486629354E+02  0.00000000000E+00 0. -1.
</event>
<event>
 7    1  0.3758561E-013  0.7246152E+02  0.7816164E-02  0.1226708E+00
        -11   -1    0    0    0    0  0.00000000000E+00  0.00000000000E+00  0.45593999997E+02  0.45594000000E+02  0.51100000000E-03 0. -1.
         11   -1    0    0    0    0 -0.00000000000E+00 -0.00000000000E+00 -0.45593999997E+02  0.45594000000E+02  0.51100000000E-03 0.  1.
    9900012    2    1    2    0    0 -0.36191692991E+01  0.14782369001E+02  0.10911652828E+02  0.72461521764E+02  0.69999936780E+02 0.  0.
        -12    1    1    2    0    0  0.36191692991E+01 -0.14782369001E+02 -0.10911652828E+02  0.18726478236E+02  0.00000000000E+00 0.  1.
         11    1    3    3    0    0 -0.76688104025E+01 -0.13204232022E+02 -0.88172987462E+01  0.17632559477E+02  0.51100000000E-03 0.  1.
        -11    1    3    3    0    0 -0.17192665548E+02  0.71277283440E+01 -0.86056149685E+00  0.18631500915E+02  0.51100000000E-03 0. -1.
         12    1    3    3    0    0  0.21242306652E+02  0.20858872678E+02  0.20589513071E+02  0.36197461372E+02  0.00000000000E+00 0. -1.
</event>
<event>
 7    1  0.3758561E-013  0.7246167E+02  0.7816164E-02  0.1226708E+00
        -11   -1    0    0    0    0  0.00000000000E+00  0.00000000000E+00  0.45593999997E+02  0.45594000000E+02  0.51100000000E-03 0.  1.
         11   -1    0    0    0    0 -0.00000000000E+00 -0.00000000000E+00 -0.45593999997E+02  0.45594000000E+02  0.51100000000E-03 0. -1.
    9900012    2    1    2    0    0  0.93874553788E+01  0.54758423009E+01 -0.15250118651E+02  0.72461673979E+02  0.70000135068E+02 0.  0.
        -12    1    1    2    0    0 -0.93874553788E+01 -0.54758423009E+01  0.15250118651E+02  0.18726326021E+02  0.00000000000E+00 0.  1.
         11    1    3    3    0    0 -0.40083225215E+00 -0.95367252912E+00  0.19069615459E+01  0.21694838985E+01  0.51100000000E-03 0. -1.
        -11    1    3    3    0    0  0.30157548019E+02 -0.53607687570E+01  0.11933827382E+02  0.32872964279E+02  0.51100000000E-03 0.  1.
         12    1    3    3    0    0 -0.20369260389E+02  0.11790283587E+02 -0.29090907579E+02  0.37419225802E+02  0.00000000000E+00 0. -1.
</event>
<event>
 7    1  0.3758561E-013  0.7246157E+02  0.7816164E-02  0.1226708E+00
        -11   -1    0    0    0    0  0.00000000000E+00  0.00000000000E+00  0.45593999997E+02  0.45594000000E+02  0.51100000000E-03 0. -1.
         11   -1    0    0    0    0 -0.00000000000E+00 -0.00000000000E+00 -0.45593999997E+02  0.45594000000E+02  0.51100000000E-03 0.  1.
    9900012    2    1    2    0    0 -0.25166003808E+00  0.50504776780E+01  0.18030762752E+02  0.72461573140E+02  0.70000003706E+02 0.  0.
        -12    1    1    2    0    0  0.25166003808E+00 -0.50504776780E+01 -0.18030762752E+02  0.18726426860E+02  0.00000000000E+00 0.  1.
         11    1    3    3    0    0 -0.85186369239E+01 -0.18773729680E+02  0.67491988720E+01  0.21692666660E+02  0.51100000000E-03 0. -1.
        -11    1    3    3    0    0 -0.92447574207E+01  0.23149901460E+01  0.19615026532E+02  0.21807658867E+02  0.51100000000E-03 0.  1.
        -12    1    3    3    0    0  0.17511734307E+02  0.21509217212E+02 -0.83334626523E+01  0.28961247613E+02  0.00000000000E+00 0.  1.
</event>
<event>
 7    1  0.3758561E-013  0.7246154E+02  0.7816164E-02  0.1226708E+00
        -11   -1    0    0    0    0  0.00000000000E+00  0.00000000000E+00  0.45593999997E+02  0.45594000000E+02  0.51100000000E-03 0. -1.
         11   -1    0    0    0    0 -0.00000000000E+00 -0.00000000000E+00 -0.45593999997E+02  0.45594000000E+02  0.51100000000E-03 0.  1.
    9900012    2    1    2    0    0 -0.31453596669E+01  0.18460354531E+02 -0.48567780238E-01  0.72461539158E+02  0.69999959439E+02 0.  0.
        -12    1    1    2    0    0  0.31453596669E+01 -0.18460354531E+02  0.48567780238E-01  0.18726460842E+02  0.00000000000E+00 0.  1.
         11    1    3    3    0    0 -0.73306992590E+01  0.10074535188E+02  0.21544119755E+02  0.24887436734E+02  0.51100000000E-03 0. -1.
        -11    1    3    3    0    0 -0.10687441547E+02 -0.72478398336E+01  0.45364221459E+01  0.13686917667E+02  0.51100000000E-03 0.  1.
        -12    1    3    3    0    0  0.14872781139E+02  0.15633659176E+02 -0.26129109681E+02  0.33887184757E+02  0.00000000000E+00 0.  1.
</event>
<event>
 7    1  0.3758561E-013  0.7246164E+02  0.7816164E-02  0.1226708E+00
        -11   -1    0    0    0    0  0.00000000000E+00  0.00000000000E+00  0.45593999997E+02  0.45594000000E+02  0.51100000000E-03 0. -1.
         11   -1    0    0    0    0 -0.00000000000E+00 -0.00000000000E+00 -0.45593999997E+02  0.45594000000E+02  0.51100000000E-03 0.  1.
    9900012    2    1    2    0    0  0.94299617015E+01 -0.13173451529E+02 -0.93921585883E+01  0.72461637678E+02  0.70000087779E+02 0.  0.
        -12    1    1    2    0    0 -0.94299617015E+01  0.13173451529E+02  0.93921585883E+01  0.18726362322E+02  0.00000000000E+00 0.  1.
         11    1    3    3    0    0 -0.21269672929E+02  0.44388029402E+01 -0.17320572357E+00  0.21728597712E+02  0.51100000000E-03 0. -1.
        -11    1    3    3    0    0 -0.21683924644E+01 -0.19741017194E+01 -0.13744802722E+02  0.14054131265E+02  0.51100000000E-03 0.  1.
        -12    1    3    3    0    0  0.32868027095E+02 -0.15638152750E+02  0.45258498573E+01  0.36678908701E+02  0.00000000000E+00 0.  1.
</event>
<event>
 7    1  0.3758561E-013  0.7246154E+02  0.7816164E-02  0.1226708E+00
        -11   -1    0    0    0    0  0.00000000000E+00  0.00000000000E+00  0.45593999997E+02  0.45594000000E+02  0.51100000000E-03 0. -1.
         11   -1    0    0    0    0 -0.00000000000E+00 -0.00000000000E+00 -0.45593999997E+02  0.45594000000E+02  0.51100000000E-03 0.  1.
    9900012    2    1    2    0    0 -0.16468782137E+02  0.87168974649E+01 -0.18641472926E+01  0.72461544606E+02  0.69999966536E+02 0.  0.
        -12    1    1    2    0    0  0.16468782137E+02 -0.87168974649E+01  0.18641472926E+01  0.18726455394E+02  0.00000000000E+00 0.  1.
         11    1    3    3    0    0 -0.16426355873E+02  0.88502401577E+01 -0.10089811620E+02  0.21212171433E+02  0.51100000000E-03 0. -1.
        -11    1    3    3    0    0 -0.21037053504E+02 -0.81573633785E+01 -0.75464539659E+01  0.23791787766E+02  0.51100000000E-03 0.  1.
        -12    1    3    3    0    0  0.20994627240E+02  0.80240206857E+01  0.15772118293E+02  0.27457585407E+02  0.00000000000E+00 0.  1.
</event>
<event>
 7    1  0.3758561E-013  0.7246163E+02  0.7816164E-02  0.1226708E+00
        -11   -1    0    0    0    0  0.00000000000E+00  0.00000000000E+00  0.45593999997E+02  0.45594000000E+02  0.51100000000E-03 0.  1.
         11   -1    0    0    0    0 -0.00000000000E+00 -0.00000000000E+00 -0.45593999997E+02  0.45594000000E+02  0.51100000000E-03 0. -1.
    9900012    2    1    2    0    0 -0.21693051722E+01  0.16400880028E+02 -0.87739533534E+01  0.72461628006E+02  0.70000075180E+02 0.  0.
        -12    1    1    2    0    0  0.21693051722E+01 -0.16400880028E+02  0.87739533534E+01  0.18726371994E+02  0.00000000000E+00 0.  1.
         11    1    3    3    0    0  0.11350567828E+02 -0.14616671676E+00 -0.79860050820E+00  0.11379565798E+02  0.51100000000E-03 0. -1.
        -11    1    3    3    0    0  0.14788545985E+02  0.22028951873E+02  0.85149328246E+01  0.27865388823E+02  0.51100000000E-03 0.  1.
         12    1    3    3    0    0 -0.28308418985E+02 -0.54819051289E+01 -0.16490285670E+02  0.33216673385E+02  0.00000000000E+00 0. -1.
</event>
<event>
 7    1  0.3758561E-013  0.7246156E+02  0.7816164E-02  0.1226708E+00
        -11   -1    0    0    0    0  0.00000000000E+00  0.00000000000E+00  0.45593999997E+02  0.45594000000E+02  0.51100000000E-03 0.  1.
         11   -1    0    0    0    0 -0.00000000000E+00 -0.00000000000E+00 -0.45593999997E+02  0.45594000000E+02  0.51100000000E-03 0. -1.
    9900012    2    1    2    0    0 -0.12170688846E+02  0.23467919837E+00 -0.14230204959E+02  0.72461562152E+02  0.69999989392E+02 0.  0.
        -12    1    1    2    0    0  0.12170688846E+02 -0.23467919837E+00  0.14230204959E+02  0.18726437848E+02  0.00000000000E+00 0.  1.
         11    1    3    3    0    0  0.13986719618E+02 -0.70753320635E+01  0.14254726964E+01  0.15739142993E+02  0.51100000000E-03 0. -1.
        -11    1    3    3    0    0  0.49322556208E+01  0.16273430966E+02  0.57228011634E+01  0.17941631875E+02  0.51100000000E-03 0.  1.
        -12    1    3    3    0    0 -0.31089664085E+02 -0.89634197041E+01 -0.21378478819E+02  0.38780787284E+02  0.00000000000E+00 0.  1.
</event>
<event>
 7    1  0.3758561E-013  0.7246156E+02  0.7816164E-02  0.1226708E+00
        -11   -1    0    0    0    0  0.00000000000E+00  0.00000000000E+00  0.45593999997E+02  0.45594000000E+02  0.51100000000E-03 0.  1.
         11   -1    0    0    0    0 -0.00000000000E+00 -0.00000000000E+00 -0.45593999997E+02  0.45594000000E+02  0.51100000000E-03 0. -1.
    9900012    2    1    2    0    0  0.83614349826E+01 -0.14159804622E+02 -0.89591163673E+01  0.72461563394E+02  0.69999991011E+02 0.  0.
        -12    1    1    2    0    0 -0.83614349826E+01  0.14159804622E+02  0.89591163673E+01  0.18726436606E+02  0.00000000000E+00 0.  1.
         11    1    3    3    0    0 -0.21097281161E+02 -0.18200586195E+02 -0.17746003292E+02  0.33034485668E+02  0.51100000000E-03 0. -1.
        -11    1    3    3    0    0  0.63772849508E+01  0.10372563031E+02 -0.32980650603E+01  0.12614953848E+02  0.51100000000E-03 0.  1.
        -12    1    3    3    0    0  0.23081431193E+02 -0.63317814575E+01  0.12084951985E+02  0.26812123878E+02  0.00000000000E+00 0.  1.
</event>
<event>
 7    1  0.3758561E-013  0.7246154E+02  0.7816164E-02  0.1226708E+00
        -11   -1    0    0    0    0  0.00000000000E+00  0.00000000000E+00  0.45593999997E+02  0.45594000000E+02  0.51100000000E-03 0. -1.
         11   -1    0    0    0    0 -0.00000000000E+00 -0.00000000000E+00 -0.45593999997E+02  0.45594000000E+02  0.51100000000E-03 0.  1.
    9900012    2    1    2    0    0  0.43050216769E+01  0.18043360883E+02 -0.25659492167E+01  0.72461543342E+02  0.69999964889E+02 0.  0.
        -12    1    1    2    0    0 -0.43050216769E+01 -0.18043360883E+02  0.25659492167E+01  0.18726456658E+02  0.00000000000E+00 0.  1.
         11    1    3    3    0    0  0.17181286684E+01  0.12362159806E+02  0.35717826623E+01  0.12982010355E+02  0.51100000000E-03 0. -1.
        -11    1    3    3    0    0  0.30189723687E+02  0.79240449405E+01 -0.49254379032E+00  0.31216221811E+02  0.51100000000E-03 0.  1.
        -12    1    3    3    0    0 -0.27602830679E+02 -0.22428438642E+01 -0.56451880887E+01  0.28263311176E+02  0.00000000000E+00 0.  1.
</event>
<event>
 7    1  0.3758561E-013  0.7246153E+02  0.7816164E-02  0.1226708E+00
        -11   -1    0    0    0    0  0.00000000000E+00  0.00000000000E+00  0.45593999997E+02  0.45594000000E+02  0.51100000000E-03 0. -1.
         11   -1    0    0    0    0 -0.00000000000E+00 -0.00000000000E+00 -0.45593999997E+02  0.45594000000E+02  0.51100000000E-03 0.  1.
    9900012    2    1    2    0    0  0.13129857967E+02 -0.51854132777E+01  0.12304426528E+02  0.72461532279E+02  0.69999950478E+02 0.  0.
        -12    1    1    2    0    0 -0.13129857967E+02  0.51854132777E+01 -0.12304426528E+02  0.18726467721E+02  0.00000000000E+00 0.  1.
         11    1    3    3    0    0  0.63795392934E+00  0.43270449211E-02 -0.12927604000E+01  0.14416080092E+01  0.51100000000E-03 0. -1.
        -11    1    3    3    0    0 -0.13161219720E+02 -0.23384390085E+02  0.25857107526E+02  0.37264425583E+02  0.51100000000E-03 0.  1.
         12    1    3    3    0    0  0.25653123758E+02  0.18194649762E+02 -0.12259920598E+02  0.33755498687E+02  0.00000000000E+00 0. -1.
</event>
<event>
 7    1  0.3758561E-013  0.7246155E+02  0.7816164E-02  0.1226708E+00
        -11   -1    0    0    0    0  0.00000000000E+00  0.00000000000E+00  0.45593999997E+02  0.45594000000E+02  0.51100000000E-03 0. -1.
         11   -1    0    0    0    0 -0.00000000000E+00 -0.00000000000E+00 -0.45593999997E+02  0.45594000000E+02  0.51100000000E-03 0.  1.
    9900012    2    1    2    0    0 -0.85442578489E+01 -0.74206855185E+01  0.14920087890E+02  0.72461549765E+02  0.69999973257E+02 0.  0.
        -12    1    1    2    0    0  0.85442578489E+01  0.74206855185E+01 -0.14920087890E+02  0.18726450235E+02  0.00000000000E+00 0.  1.
         11    1    3    3    0    0 -0.29052279774E+02 -0.26167237774E+01  0.19313282882E+02  0.34984069222E+02  0.51100000000E-03 0. -1.
        -11    1    3    3    0    0  0.17571190774E+01 -0.46266697836E+01 -0.15095840929E+02  0.15886407849E+02  0.51100000000E-03 0.  1.
        -12    1    3    3    0    0  0.18750902847E+02 -0.17729195751E+00  0.10702645937E+02  0.21591072694E+02  0.00000000000E+00 0.  1.
</event>
<event>
 7    1  0.3758561E-013  0.7246157E+02  0.7816164E-02  0.1226708E+00
        -11   -1    0    0    0    0  0.00000000000E+00  0.00000000000E+00  0.45593999997E+02  0.45594000000E+02  0.51100000000E-03 0. -1.
         11   -1    0    0    0    0 -0.00000000000E+00 -0.00000000000E+00 -0.45593999997E+02  0.45594000000E+02  0.51100000000E-03 0.  1.
    9900012    2    1    2    0    0  0.23359933877E+01  0.25964425779E+01  0.18397846903E+02  0.72461570820E+02  0.70000000685E+02 0.  0.
        -12    1    1    2    0    0 -0.23359933877E+01 -0.25964425779E+01 -0.18397846903E+02  0.18726429180E+02  0.00000000000E+00 0.  1.
         11    1    3    3    0    0 -0.53500370940E+01  0.41552366289E+01  0.49707489602E+01  0.84022160075E+01  0.51100000000E-03 0. -1.
        -11    1    3    3    0    0 -0.16393199556E+02 -0.15270191164E+02 -0.12887598312E+02  0.25845810500E+02  0.51100000000E-03 0.  1.
         12    1    3    3    0    0  0.24079230038E+02  0.13711397113E+02  0.26314696255E+02  0.38213544313E+02  0.00000000000E+00 0. -1.
</event>
<event>
 7    1  0.3758561E-013  0.7246159E+02  0.7816164E-02  0.1226708E+00
        -11   -1    0    0    0    0  0.00000000000E+00  0.00000000000E+00  0.45593999997E+02  0.45594000000E+02  0.51100000000E-03 0. -1.
         11   -1    0    0    0    0 -0.00000000000E+00 -0.00000000000E+00 -0.45593999997E+02  0.45594000000E+02  0.51100000000E-03 0.  1.
    9900012    2    1    2    0    0  0.18690367488E+02 -0.65709675147E+00 -0.95745149695E+00  0.72461592808E+02  0.70000029328E+02 0.  0.
        -12    1    1    2    0    0 -0.18690367488E+02  0.65709675147E+00  0.95745149695E+00  0.18726407192E+02  0.00000000000E+00 0.  1.
         11    1    3    3    0    0  0.31276607592E+02 -0.20289301211E-02  0.11848988912E+02  0.33445847650E+02  0.51100000000E-03 0. -1.
        -11    1    3    3    0    0 -0.15672740617E+02 -0.63951537187E+01  0.68849194706E+01  0.18273885901E+02  0.51100000000E-03 0.  1.
        -12    1    3    3    0    0  0.30865005128E+01  0.57400858974E+01 -0.19691359879E+02  0.20741859257E+02  0.00000000000E+00 0.  1.
</event>
<event>
 7    1  0.3758561E-013  0.7246160E+02  0.7816164E-02  0.1226708E+00
        -11   -1    0    0    0    0  0.00000000000E+00  0.00000000000E+00  0.45593999997E+02  0.45594000000E+02  0.51100000000E-03 0.  1.
         11   -1    0    0    0    0 -0.00000000000E+00 -0.00000000000E+00 -0.45593999997E+02  0.45594000000E+02  0.51100000000E-03 0. -1.
    9900012    2    1    2    0    0  0.14120836110E+02 -0.91371283365E+01 -0.82336505095E+01  0.72461598119E+02  0.70000036247E+02 0.  0.
        -12    1    1    2    0    0 -0.14120836110E+02  0.91371283365E+01  0.82336505095E+01  0.18726401881E+02  0.00000000000E+00 0.  1.
         11    1    3    3    0    0 -0.21292569065E+02  0.13654940965E+01 -0.55932863814E+01  0.22057264661E+02  0.51100000000E-03 0. -1.
        -11    1    3    3    0    0 -0.42257643893E+01  0.49812216286E+01 -0.42923847846E+01  0.78162792292E+01  0.51100000000E-03 0.  1.
        -12    1    3    3    0    0  0.39639169565E+02 -0.15483844062E+02  0.16520206565E+01  0.42588054229E+02  0.00000000000E+00 0.  1.
</event>
<event>
 7    1  0.3758561E-013  0.7246145E+02  0.7816164E-02  0.1226708E+00
        -11   -1    0    0    0    0  0.00000000000E+00  0.00000000000E+00  0.45593999997E+02  0.45594000000E+02  0.51100000000E-03 0.  1.
         11   -1    0    0    0    0 -0.00000000000E+00 -0.00000000000E+00 -0.45593999997E+02  0.45594000000E+02  0.51100000000E-03 0. -1.
    9900012    2    1    2    0    0 -0.10072182431E+01  0.17222021968E+02 -0.72850007990E+01  0.72461447570E+02  0.69999840129E+02 0.  0.
        -12    1    1    2    0    0  0.10072182431E+01 -0.17222021968E+02  0.72850007990E+01  0.18726552430E+02  0.00000000000E+00 0.  1.
         11    1    3    3    0    0 -0.43242167111E+01  0.90043977116E+01 -0.11642684495E+02  0.15340473618E+02  0.51100000000E-03 0. -1.
        -11    1    3    3    0    0  0.80632048095E+01 -0.20617110411E+02 -0.10313344988E+02  0.24422235741E+02  0.51100000000E-03 0.  1.
         12    1    3    3    0    0 -0.47462063415E+01  0.28834734667E+02  0.14671028684E+02  0.32698738211E+02  0.00000000000E+00 0. -1.
</event>
<event>
 7    1  0.3758561E-013  0.7246154E+02  0.7816164E-02  0.1226708E+00
        -11   -1    0    0    0    0  0.00000000000E+00  0.00000000000E+00  0.45593999997E+02  0.45594000000E+02  0.51100000000E-03 0. -1.
         11   -1    0    0    0    0 -0.00000000000E+00 -0.00000000000E+00 -0.45593999997E+02  0.45594000000E+02  0.51100000000E-03 0.  1.
    9900012    2    1    2    0    0 -0.12379613440E+02 -0.20464961531E+01  0.13900985391E+02  0.72461538234E+02  0.69999958235E+02 0.  0.
        -12    1    1    2    0    0  0.12379613440E+02  0.20464961531E+01 -0.13900985391E+02  0.18726461766E+02  0.00000000000E+00 0.  1.
         11    1    3    3    0    0  0.12875997243E+01  0.15510872206E+02  0.23404350456E+02  0.28107093236E+02  0.51100000000E-03 0. -1.
        -11    1    3    3    0    0 -0.26223732020E+02 -0.94504569081E+01 -0.29352571099E+01  0.28028752940E+02  0.51100000000E-03 0.  1.
        -12    1    3    3    0    0  0.12556518856E+02 -0.81069114511E+01 -0.65681079552E+01  0.16325692058E+02  0.00000000000E+00 0.  1.
</event>
<event>
 7    1  0.3758561E-013  0.7246154E+02  0.7816164E-02  0.1226708E+00
        -11   -1    0    0    0    0  0.00000000000E+00  0.00000000000E+00  0.45593999997E+02  0.45594000000E+02  0.51100000000E-03 0.  1.
         11   -1    0    0    0    0 -0.00000000000E+00 -0.00000000000E+00 -0.45593999997E+02  0.45594000000E+02  0.51100000000E-03 0. -1.
    9900012    2    1    2    0    0 -0.13291237236E+02 -0.82023606034E+01  0.10331718718E+02  0.72461544959E+02  0.69999966997E+02 0.  0.
        -12    1    1    2    0    0  0.13291237236E+02  0.82023606034E+01 -0.10331718718E+02  0.18726455041E+02  0.00000000000E+00 0.  1.
         11    1    3    3    0    0  0.31060798066E+01 -0.51980579859E+01 -0.36627855156E+01  0.70769722752E+01  0.51100000000E-03 0. -1.
        -11    1    3    3    0    0 -0.18747531226E+02  0.13449569033E+01 -0.22066453374E+02  0.28986327827E+02  0.51100000000E-03 0.  1.
        -12    1    3    3    0    0  0.23502141835E+01 -0.43492595208E+01  0.36060957608E+02  0.36398244857E+02  0.00000000000E+00 0.  1.
</event>
<event>
 7    1  0.3758561E-013  0.7246159E+02  0.7816164E-02  0.1226708E+00
        -11   -1    0    0    0    0  0.00000000000E+00  0.00000000000E+00  0.45593999997E+02  0.45594000000E+02  0.51100000000E-03 0. -1.
         11   -1    0    0    0    0 -0.00000000000E+00 -0.00000000000E+00 -0.45593999997E+02  0.45594000000E+02  0.51100000000E-03 0.  1.
    9900012    2    1    2    0    0  0.18124181670E+01  0.16388475038E+02  0.88775748259E+01  0.72461593284E+02  0.70000029949E+02 0.  0.
        -12    1    1    2    0    0 -0.18124181670E+01 -0.16388475038E+02 -0.88775748259E+01  0.18726406716E+02  0.00000000000E+00 0.  1.
         11    1    3    3    0    0  0.64438960308E+01  0.74465710128E+01  0.11194119251E+01  0.99110190810E+01  0.51100000000E-03 0. -1.
        -11    1    3    3    0    0  0.12691190668E+02  0.15272100050E+02 -0.20670748217E+02  0.28663272539E+02  0.51100000000E-03 0.  1.
         12    1    3    3    0    0 -0.17322668531E+02 -0.63301960247E+01  0.28428911118E+02  0.33887301665E+02  0.00000000000E+00 0. -1.
</event>
<event>
 7    1  0.3758561E-013  0.7246133E+02  0.7816164E-02  0.1226709E+00
        -11   -1    0    0    0    0  0.00000000000E+00  0.00000000000E+00  0.45593999997E+02  0.45594000000E+02  0.51100000000E-03 0.  1.
         11   -1    0    0    0    0 -0.00000000000E+00 -0.00000000000E+00 -0.45593999997E+02  0.45594000000E+02  0.51100000000E-03 0. -1.
    9900012    2    1    2    0    0 -0.14003757117E+02  0.12002984511E+02  0.32421330394E+01  0.72461327119E+02  0.69999683218E+02 0.  0.
        -12    1    1    2    0    0  0.14003757117E+02 -0.12002984511E+02 -0.32421330394E+01  0.18726672881E+02  0.00000000000E+00 0.  1.
         11    1    3    3    0    0  0.10933804052E+02  0.13059749453E+02 -0.77479858506E+01  0.18711932338E+02  0.51100000000E-03 0. -1.
        -11    1    3    3    0    0  0.37182638132E+01 -0.10143444569E+02 -0.11819837730E+02  0.16013229460E+02  0.51100000000E-03 0.  1.
         12    1    3    3    0    0 -0.28655824982E+02  0.90866796271E+01  0.22809956620E+02  0.37736165320E+02  0.00000000000E+00 0. -1.
</event>
<event>
 7    1  0.3758561E-013  0.7246137E+02  0.7816164E-02  0.1226709E+00
        -11   -1    0    0    0    0  0.00000000000E+00  0.00000000000E+00  0.45593999997E+02  0.45594000000E+02  0.51100000000E-03 0. -1.
         11   -1    0    0    0    0 -0.00000000000E+00 -0.00000000000E+00 -0.45593999997E+02  0.45594000000E+02  0.51100000000E-03 0.  1.
    9900012    2    1    2    0    0  0.68452020801E+01 -0.17414833367E+02  0.74384815581E+00  0.72461373961E+02  0.69999744239E+02 0.  0.
        -12    1    1    2    0    0 -0.68452020801E+01  0.17414833367E+02 -0.74384815581E+00  0.18726626039E+02  0.00000000000E+00 0.  1.
         11    1    3    3    0    0  0.39276891612E+01 -0.20701345134E+02  0.22572521527E+02  0.30878652187E+02  0.51100000000E-03 0. -1.
        -11    1    3    3    0    0  0.95350163406E+01 -0.11098464463E+02 -0.19792905426E-01  0.14631911771E+02  0.51100000000E-03 0.  1.
        -12    1    3    3    0    0 -0.66175034218E+01  0.14384976230E+02 -0.21808880466E+02  0.26950810004E+02  0.00000000000E+00 0.  1.
</event>
<event>
 7    1  0.3758561E-013  0.7246156E+02  0.7816164E-02  0.1226708E+00
        -11   -1    0    0    0    0  0.00000000000E+00  0.00000000000E+00  0.45593999997E+02  0.45594000000E+02  0.51100000000E-03 0. -1.
         11   -1    0    0    0    0 -0.00000000000E+00 -0.00000000000E+00 -0.45593999997E+02  0.45594000000E+02  0.51100000000E-03 0.  1.
    9900012    2    1    2    0    0  0.63483850787E+01  0.98007894965E+01  0.14639742359E+02  0.72461560824E+02  0.69999987663E+02 0.  0.
        -12    1    1    2    0    0 -0.63483850787E+01 -0.98007894965E+01 -0.14639742359E+02  0.18726439176E+02  0.00000000000E+00 0.  1.
         11    1    3    3    0    0 -0.13445048937E+01 -0.23243332054E+02  0.15514182570E+02  0.27977670372E+02  0.51100000000E-03 0. -1.
        -11    1    3    3    0    0  0.16393322245E+02  0.85751171895E+01 -0.39285072565E-01  0.18500680869E+02  0.51100000000E-03 0.  1.
        -12    1    3    3    0    0 -0.87004322722E+01  0.24469004361E+02 -0.83515513830E+00  0.25983209583E+02  0.00000000000E+00 0.  1.
</event>
<event>
 7    1  0.3758561E-013  0.7246162E+02  0.7816164E-02  0.1226708E+00
        -11   -1    0    0    0    0  0.00000000000E+00  0.00000000000E+00  0.45593999997E+02  0.45594000000E+02  0.51100000000E-03 0. -1.
         11   -1    0    0    0    0 -0.00000000000E+00 -0.00000000000E+00 -0.45593999997E+02  0.45594000000E+02  0.51100000000E-03 0.  1.
    9900012    2    1    2    0    0  0.26268747067E+01 -0.16913349423E+02  0.75970747864E+01  0.72461617415E+02  0.70000061383E+02 0.  0.
        -12    1    1    2    0    0 -0.26268747067E+01  0.16913349423E+02 -0.75970747864E+01  0.18726382585E+02  0.00000000000E+00 0.  1.
         11    1    3    3    0    0 -0.29574350271E+01  0.10300726842E+02 -0.87834853776E+01  0.13856442944E+02  0.51100000000E-03 0. -1.
        -11    1    3    3    0    0  0.10598749921E+02  0.21565300772E+01 -0.12897360530E+02  0.16832291311E+02  0.51100000000E-03 0.  1.
         12    1    3    3    0    0 -0.50144401872E+01 -0.29370606342E+02  0.29277920694E+02  0.41772883160E+02  0.00000000000E+00 0. -1.
</event>
<event>
 7    1  0.3758561E-013  0.7246158E+02  0.7816164E-02  0.1226708E+00
        -11   -1    0    0    0    0  0.00000000000E+00  0.00000000000E+00  0.45593999997E+02  0.45594000000E+02  0.51100000000E-03 0.  1.
         11   -1    0    0    0    0 -0.00000000000E+00 -0.00000000000E+00 -0.45593999997E+02  0.45594000000E+02  0.51100000000E-03 0. -1.
    9900012    2    1    2    0    0  0.50730994046E+01  0.56671429540E+01 -0.17112159142E+02  0.72461579164E+02  0.70000011554E+02 0.  0.
        -12    1    1    2    0    0 -0.50730994046E+01 -0.56671429540E+01  0.17112159142E+02  0.18726420836E+02  0.00000000000E+00 0.  1.
         11    1    3    3    0    0  0.86954962551E+00 -0.40860632953E+01 -0.26670727119E+02  0.26995920342E+02  0.51100000000E-03 0. -1.
        -11    1    3    3    0    0  0.23122268631E+02  0.39126988052E+01 -0.64976980653E-01  0.23451071209E+02  0.51100000000E-03 0.  1.
        -12    1    3    3    0    0 -0.18918718852E+02  0.58405074440E+01  0.96235449575E+01  0.22014587613E+02  0.00000000000E+00 0.  1.
</event>
<event>
 7    1  0.3758561E-013  0.7246162E+02  0.7816164E-02  0.1226708E+00
        -11   -1    0    0    0    0  0.00000000000E+00  0.00000000000E+00  0.45593999997E+02  0.45594000000E+02  0.51100000000E-03 0.  1.
         11   -1    0    0    0    0 -0.00000000000E+00 -0.00000000000E+00 -0.45593999997E+02  0.45594000000E+02  0.51100000000E-03 0. -1.
    9900012    2    1    2    0    0  0.18134154448E+02  0.38852570821E+01 -0.25950700019E+01  0.72461623724E+02  0.70000069601E+02 0.  0.
        -12    1    1    2    0    0 -0.18134154448E+02 -0.38852570821E+01  0.25950700019E+01  0.18726376276E+02  0.00000000000E+00 0.  1.
         11    1    3    3    0    0  0.11125255117E+01 -0.13794216067E+02 -0.42597621069E+01  0.14479768071E+02  0.51100000000E-03 0. -1.
        -11    1    3    3    0    0 -0.54725979285E+01 -0.11629511137E+02  0.14024580210E+02  0.19023241251E+02  0.51100000000E-03 0.  1.
         12    1    3    3    0    0  0.22494226865E+02  0.29308984286E+02 -0.12359888105E+02  0.38958614401E+02  0.00000000000E+00 0. -1.
</event>
<event>
 7    1  0.3758561E-013  0.7246157E+02  0.7816164E-02  0.1226708E+00
        -11   -1    0    0    0    0  0.00000000000E+00  0.00000000000E+00  0.45593999997E+02  0.45594000000E+02  0.51100000000E-03 0.  1.
         11   -1    0    0    0    0 -0.00000000000E+00 -0.00000000000E+00 -0.45593999997E+02  0.45594000000E+02  0.51100000000E-03 0. -1.
    9900012    2    1    2    0    0  0.92463547153E+01 -0.14083825058E+02 -0.81749594274E+01  0.72461570404E+02  0.70000000142E+02 0.  0.
        -12    1    1    2    0    0 -0.92463547153E+01  0.14083825058E+02  0.81749594274E+01  0.18726429596E+02  0.00000000000E+00 0.  1.
         11    1    3    3    0    0 -0.10384115972E+02 -0.28516529598E+02 -0.21896489652E+01  0.30427239239E+02  0.51100000000E-03 0. -1.
        -11    1    3    3    0    0 -0.93661560690E+01  0.68787582655E+01 -0.10769474689E+01  0.11670561722E+02  0.51100000000E-03 0.  1.
        -12    1    3    3    0    0  0.28996626756E+02  0.75539462744E+01 -0.49083629934E+01  0.30363769443E+02  0.00000000000E+00 0.  1.
</event>
<event>
 7    1  0.3758561E-013  0.7246160E+02  0.7816164E-02  0.1226708E+00
        -11   -1    0    0    0    0  0.00000000000E+00  0.00000000000E+00  0.45593999997E+02  0.45594000000E+02  0.51100000000E-03 0.  1.
         11   -1    0    0    0    0 -0.00000000000E+00 -0.00000000000E+00 -0.45593999997E+02  0.45594000000E+02  0.51100000000E-03 0. -1.
    9900012    2    1    2    0    0  0.17459413676E+02  0.57692388249E+01  0.35443830416E+01  0.72461604360E+02  0.70000044376E+02 0.  0.
        -12    1    1    2    0    0 -0.17459413676E+02 -0.57692388249E+01 -0.35443830416E+01  0.18726395640E+02  0.00000000000E+00 0.  1.
         11    1    3    3    0    0 -0.12048921789E+01  0.89989028286E+01 -0.38189388883E+01  0.98496858719E+01  0.51100000000E-03 0. -1.
        -11    1    3    3    0    0  0.40168848941E+02  0.11946590986E+01  0.37440179748E+01  0.40360640561E+02  0.51100000000E-03 0.  1.
         12    1    3    3    0    0 -0.21504543086E+02 -0.44243231023E+01  0.36193039551E+01  0.22251277927E+02  0.00000000000E+00 0. -1.
</event>
<event>
 7    1  0.3758561E-013  0.7246156E+02  0.7816164E-02  0.1226708E+00
        -11   -1    0    0    0    0  0.00000000000E+00  0.00000000000E+00  0.45593999997E+02  0.45594000000E+02  0.51100000000E-03 0.  1.
         11   -1    0    0    0    0 -0.00000000000E+00 -0.00000000000E+00 -0.45593999997E+02  0.45594000000E+02  0.51100000000E-03 0. -1.
    9900012    2    1    2    0    0 -0.28815547776E+01 -0.17230553097E+02 -0.67442062403E+01  0.72461557845E+02  0.69999983782E+02 0.  0.
        -12    1    1    2    0    0  0.28815547776E+01  0.17230553097E+02  0.67442062403E+01  0.18726442155E+02  0.00000000000E+00 0.  1.
         11    1    3    3    0    0 -0.88392509771E+01 -0.10458238843E+02 -0.59380086099E+01  0.14925383212E+02  0.51100000000E-03 0. -1.
        -11    1    3    3    0    0 -0.20178039863E+02 -0.16689284137E+02  0.93346604780E+01  0.27799665182E+02  0.51100000000E-03 0.  1.
         12    1    3    3    0    0  0.26135736062E+02  0.99169698826E+01 -0.10140858108E+02  0.29736509451E+02  0.00000000000E+00 0. -1.
</event>
<event>
 7    1  0.3758561E-013  0.7246156E+02  0.7816164E-02  0.1226708E+00
        -11   -1    0    0    0    0  0.00000000000E+00  0.00000000000E+00  0.45593999997E+02  0.45594000000E+02  0.51100000000E-03 0.  1.
         11   -1    0    0    0    0 -0.00000000000E+00 -0.00000000000E+00 -0.45593999997E+02  0.45594000000E+02  0.51100000000E-03 0. -1.
    9900012    2    1    2    0    0 -0.91548926878E+01 -0.12754268310E+02 -0.10207646595E+02  0.72461562291E+02  0.69999989575E+02 0.  0.
        -12    1    1    2    0    0  0.91548926878E+01  0.12754268310E+02  0.10207646595E+02  0.18726437709E+02  0.00000000000E+00 0.  1.
         11    1    3    3    0    0 -0.36225721057E+01 -0.22838041537E+02 -0.15454308481E+02  0.27812493969E+02  0.51100000000E-03 0. -1.
        -11    1    3    3    0    0  0.16056443305E+02 -0.62856211764E+01  0.17561085838E+01  0.17332118243E+02  0.51100000000E-03 0.  1.
         12    1    3    3    0    0 -0.21588763887E+02  0.16369394403E+02  0.34905533021E+01  0.27316950079E+02  0.00000000000E+00 0. -1.
</event>
<event>
 7    1  0.3758561E-013  0.7246164E+02  0.7816164E-02  0.1226708E+00
        -11   -1    0    0    0    0  0.00000000000E+00  0.00000000000E+00  0.45593999997E+02  0.45594000000E+02  0.51100000000E-03 0. -1.
         11   -1    0    0    0    0 -0.00000000000E+00 -0.00000000000E+00 -0.45593999997E+02  0.45594000000E+02  0.51100000000E-03 0.  1.
    9900012    2    1    2    0    0 -0.10976646894E+02  0.82280528226E+01  0.12747118639E+02  0.72461637195E+02  0.70000087151E+02 0.  0.
        -12    1    1    2    0    0  0.10976646894E+02 -0.82280528226E+01 -0.12747118639E+02  0.18726362805E+02  0.00000000000E+00 0.  1.
         11    1    3    3    0    0 -0.18716690055E+02  0.23542574884E+02  0.20422718905E+02  0.36354570091E+02  0.51100000000E-03 0. -1.
        -11    1    3    3    0    0  0.69579148936E+01  0.70965550733E+01  0.41325247607E+01  0.10763430435E+02  0.51100000000E-03 0.  1.
        -12    1    3    3    0    0  0.78212826671E+00 -0.22411077135E+02 -0.11808125027E+02  0.25343636669E+02  0.00000000000E+00 0.  1.
</event>
<event>
 7    1  0.3758561E-013  0.7246146E+02  0.7816164E-02  0.1226708E+00
        -11   -1    0    0    0    0  0.00000000000E+00  0.00000000000E+00  0.45593999997E+02  0.45594000000E+02  0.51100000000E-03 0. -1.
         11   -1    0    0    0    0 -0.00000000000E+00 -0.00000000000E+00 -0.45593999997E+02  0.45594000000E+02  0.51100000000E-03 0.  1.
    9900012    2    1    2    0    0 -0.95728791878E+01  0.97674553491E+01 -0.12792182328E+02  0.72461464585E+02  0.69999862293E+02 0.  0.
        -12    1    1    2    0    0  0.95728791878E+01 -0.97674553491E+01  0.12792182328E+02  0.18726535415E+02  0.00000000000E+00 0.  1.
         11    1    3    3    0    0  0.19009199977E+02 -0.42295856841E+01  0.16616680935E+02  0.25599866491E+02  0.51100000000E-03 0. -1.
        -11    1    3    3    0    0 -0.97126225120E+00 -0.31424685352E+01 -0.42516244786E+00  0.33165075341E+01  0.51100000000E-03 0.  1.
        -12    1    3    3    0    0 -0.27610816914E+02  0.17139509568E+02 -0.28983700815E+02  0.43545090559E+02  0.00000000000E+00 0.  1.
</event>
<event>
 7    1  0.3758561E-013  0.7246167E+02  0.7816164E-02  0.1226708E+00
        -11   -1    0    0    0    0  0.00000000000E+00  0.00000000000E+00  0.45593999997E+02  0.45594000000E+02  0.51100000000E-03 0. -1.
         11   -1    0    0    0    0 -0.00000000000E+00 -0.00000000000E+00 -0.45593999997E+02  0.45594000000E+02  0.51100000000E-03 0.  1.
    9900012    2    1    2    0    0  0.83140525484E+00  0.18488745107E+02  0.28548893383E+01  0.72461672985E+02  0.70000133774E+02 0.  0.
        -12    1    1    2    0    0 -0.83140525484E+00 -0.18488745107E+02 -0.28548893383E+01  0.18726327015E+02  0.00000000000E+00 0.  1.
         11    1    3    3    0    0  0.80376038107E+01  0.29014344093E+02 -0.12228380226E+02  0.32495669271E+02  0.51100000000E-03 0.  1.
        -11    1    3    3    0    0 -0.14542082770E+02  0.78145281809E+01  0.29098136990E+01  0.16763234712E+02  0.51100000000E-03 0. -1.
         12    1    3    3    0    0  0.73358842139E+01 -0.18340127167E+02  0.12173455865E+02  0.23202769003E+02  0.00000000000E+00 0. -1.
</event>
<event>
 7    1  0.3758561E-013  0.7246163E+02  0.7816164E-02  0.1226708E+00
        -11   -1    0    0    0    0  0.00000000000E+00  0.00000000000E+00  0.45593999997E+02  0.45594000000E+02  0.51100000000E-03 0. -1.
         11   -1    0    0    0    0 -0.00000000000E+00 -0.00000000000E+00 -0.45593999997E+02  0.45594000000E+02  0.51100000000E-03 0.  1.
    9900012    2    1    2    0    0 -0.16501181762E+01 -0.17906237535E+02  0.52269304771E+01  0.72461627290E+02  0.70000074248E+02 0.  0.
        -12    1    1    2    0    0  0.16501181762E+01  0.17906237535E+02 -0.52269304771E+01  0.18726372710E+02  0.00000000000E+00 0.  1.
         11    1    3    3    0    0 -0.11120207607E+02  0.16753319070E+01  0.30682999974E+02  0.32678926572E+02  0.51100000000E-03 0. -1.
        -11    1    3    3    0    0  0.93972421367E+01  0.14759725629E+01 -0.77131696176E+01  0.12246617516E+02  0.51100000000E-03 0.  1.
        -12    1    3    3    0    0  0.72847294192E-01 -0.21057542005E+02 -0.17742899879E+02  0.27536083202E+02  0.00000000000E+00 0.  1.
</event>
<event>
 7    1  0.3758561E-013  0.7246158E+02  0.7816164E-02  0.1226708E+00
        -11   -1    0    0    0    0  0.00000000000E+00  0.00000000000E+00  0.45593999997E+02  0.45594000000E+02  0.51100000000E-03 0.  1.
         11   -1    0    0    0    0 -0.00000000000E+00 -0.00000000000E+00 -0.45593999997E+02  0.45594000000E+02  0.51100000000E-03 0. -1.
    9900012    2    1    2    0    0  0.43448227567E+01  0.16576032285E+02  0.75522587635E+01  0.72461576329E+02  0.70000007861E+02 0.  0.
        -12    1    1    2    0    0 -0.43448227567E+01 -0.16576032285E+02 -0.75522587635E+01  0.18726423671E+02  0.00000000000E+00 0.  1.
         11    1    3    3    0    0  0.87327363604E+01  0.16223008544E+01  0.10254021142E+01  0.89411405402E+01  0.51100000000E-03 0. -1.
        -11    1    3    3    0    0 -0.12346599396E+02  0.35618807707E+02 -0.58539218080E+01  0.38149788727E+02  0.51100000000E-03 0.  1.
         12    1    3    3    0    0  0.79586857927E+01 -0.20665076277E+02  0.12380778457E+02  0.25370647061E+02  0.00000000000E+00 0. -1.
</event>
<event>
 7    1  0.3758561E-013  0.7246155E+02  0.7816164E-02  0.1226708E+00
        -11   -1    0    0    0    0  0.00000000000E+00  0.00000000000E+00  0.45593999997E+02  0.45594000000E+02  0.51100000000E-03 0.  1.
         11   -1    0    0    0    0 -0.00000000000E+00 -0.00000000000E+00 -0.45593999997E+02  0.45594000000E+02  0.51100000000E-03 0. -1.
    9900012    2    1    2    0    0 -0.46341579772E+01 -0.82951367310E+01 -0.16136763554E+02  0.72461552085E+02  0.69999976278E+02 0.  0.
        -12    1    1    2    0    0  0.46341579772E+01  0.82951367310E+01  0.16136763554E+02  0.18726447915E+02  0.00000000000E+00 0.  1.
         11    1    3    3    0    0 -0.14952107516E+02 -0.81063697966E+01  0.56368337749E+01  0.17917942005E+02  0.51100000000E-03 0. -1.
        -11    1    3    3    0    0 -0.11537463516E+02  0.10568254696E+02  0.67447920003E+01  0.17037995513E+02  0.51100000000E-03 0.  1.
         12    1    3    3    0    0  0.21855413055E+02 -0.10757021630E+02 -0.28518389329E+02  0.37505614567E+02  0.00000000000E+00 0. -1.
</event>
<event>
 7    1  0.3758561E-013  0.7246156E+02  0.7816164E-02  0.1226708E+00
        -11   -1    0    0    0    0  0.00000000000E+00  0.00000000000E+00  0.45593999997E+02  0.45594000000E+02  0.51100000000E-03 0. -1.
         11   -1    0    0    0    0 -0.00000000000E+00 -0.00000000000E+00 -0.45593999997E+02  0.45594000000E+02  0.51100000000E-03 0.  1.
    9900012    2    1    2    0    0 -0.14267288825E+02  0.51556949668E+01  0.10979199249E+02  0.72461560479E+02  0.69999987213E+02 0.  0.
        -12    1    1    2    0    0  0.14267288825E+02 -0.51556949668E+01 -0.10979199249E+02  0.18726439521E+02  0.00000000000E+00 0.  1.
         11    1    3    3    0    0 -0.27057037800E+02  0.46417837533E+01 -0.25809094078E+01  0.27573366580E+02  0.51100000000E-03 0. -1.
        -11    1    3    3    0    0 -0.31901302423E+00  0.12391924069E+02 -0.96471829695E+01  0.15707631615E+02  0.51100000000E-03 0.  1.
        -12    1    3    3    0    0  0.13108762000E+02 -0.11878012856E+02  0.23207291626E+02  0.29180562284E+02  0.00000000000E+00 0.  1.
</event>
<event>
 7    1  0.3758561E-013  0.7246157E+02  0.7816164E-02  0.1226708E+00
        -11   -1    0    0    0    0  0.00000000000E+00  0.00000000000E+00  0.45593999997E+02  0.45594000000E+02  0.51100000000E-03 0.  1.
         11   -1    0    0    0    0 -0.00000000000E+00 -0.00000000000E+00 -0.45593999997E+02  0.45594000000E+02  0.51100000000E-03 0. -1.
    9900012    2    1    2    0    0 -0.17215839669E+02 -0.71443510089E+01  0.18034034655E+01  0.72461570791E+02  0.70000000647E+02 0.  0.
        -12    1    1    2    0    0  0.17215839669E+02  0.71443510089E+01 -0.18034034655E+01  0.18726429209E+02  0.00000000000E+00 0.  1.
         11    1    3    3    0    0  0.50555388072E+01 -0.19822552740E+02 -0.75060282917E+00  0.20470844502E+02  0.51100000000E-03 0. -1.
        -11    1    3    3    0    0  0.63337597806E+01 -0.10568939497E+02 -0.66460620064E+01  0.13999611977E+02  0.51100000000E-03 0.  1.
         12    1    3    3    0    0 -0.28605138257E+02  0.23247141228E+02  0.92000683011E+01  0.37991114313E+02  0.00000000000E+00 0. -1.
</event>
<event>
 7    1  0.3758561E-013  0.7246137E+02  0.7816164E-02  0.1226709E+00
        -11   -1    0    0    0    0  0.00000000000E+00  0.00000000000E+00  0.45593999997E+02  0.45594000000E+02  0.51100000000E-03 0. -1.
         11   -1    0    0    0    0 -0.00000000000E+00 -0.00000000000E+00 -0.45593999997E+02  0.45594000000E+02  0.51100000000E-03 0.  1.
    9900012    2    1    2    0    0  0.17727535625E+02 -0.39773859415E+01  0.45388924705E+01  0.72461370214E+02  0.69999739358E+02 0.  0.
        -12    1    1    2    0    0 -0.17727535625E+02  0.39773859415E+01 -0.45388924705E+01  0.18726629786E+02  0.00000000000E+00 0.  1.
         11    1    3    3    0    0  0.70102025907E+01 -0.10708402179E+02  0.20061095228E+02  0.23796225743E+02  0.51100000000E-03 0. -1.
        -11    1    3    3    0    0  0.89589167881E+01 -0.13197672603E+02 -0.22409379117E+02  0.27506745079E+02  0.51100000000E-03 0.  1.
        -12    1    3    3    0    0  0.17584162464E+01  0.19928688841E+02  0.68871763599E+01  0.21158399392E+02  0.00000000000E+00 0.  1.
</event>
<event>
 7    1  0.3758561E-013  0.7246169E+02  0.7816164E-02  0.1226708E+00
        -11   -1    0    0    0    0  0.00000000000E+00  0.00000000000E+00  0.45593999997E+02  0.45594000000E+02  0.51100000000E-03 0. -1.
         11   -1    0    0    0    0 -0.00000000000E+00 -0.00000000000E+00 -0.45593999997E+02  0.45594000000E+02  0.51100000000E-03 0.  1.
    9900012    2    1    2    0    0 -0.12184751562E+02 -0.12126248959E+02  0.74270215698E+01  0.72461688729E+02  0.70000154283E+02 0.  0.
        -12    1    1    2    0    0  0.12184751562E+02  0.12126248959E+02 -0.74270215698E+01  0.18726311271E+02  0.00000000000E+00 0.  1.
         11    1    3    3    0    0  0.88439893332E+01  0.12332186778E+02 -0.28240204276E+01  0.15436128714E+02  0.51100000000E-03 0. -1.
        -11    1    3    3    0    0  0.96336769411E+01 -0.15305114525E+01 -0.97820767150E+01  0.13814456986E+02  0.51100000000E-03 0.  1.
        -12    1    3    3    0    0 -0.30662417836E+02 -0.22927924284E+02  0.20033118712E+02  0.43211103028E+02  0.00000000000E+00 0.  1.
</event>
<event>
 7    1  0.3758561E-013  0.7246154E+02  0.7816164E-02  0.1226708E+00
        -11   -1    0    0    0    0  0.00000000000E+00  0.00000000000E+00  0.45593999997E+02  0.45594000000E+02  0.51100000000E-03 0. -1.
         11   -1    0    0    0    0 -0.00000000000E+00 -0.00000000000E+00 -0.45593999997E+02  0.45594000000E+02  0.51100000000E-03 0.  1.
    9900012    2    1    2    0    0  0.81756101320E+01  0.12404422192E+02  0.11400444567E+02  0.72461536712E+02  0.69999956253E+02 0.  0.
        -12    1    1    2    0    0 -0.81756101320E+01 -0.12404422192E+02 -0.11400444567E+02  0.18726463288E+02  0.00000000000E+00 0.  1.
         11    1    3    3    0    0  0.96865224913E+01 -0.13482846252E+02  0.49918146099E+01  0.17335918620E+02  0.51100000000E-03 0. -1.
        -11    1    3    3    0    0 -0.39082931147E+01 -0.12533055614E+02  0.99430538544E+01  0.16468653810E+02  0.51100000000E-03 0.  1.
         12    1    3    3    0    0  0.23973807555E+01  0.38420324058E+02 -0.35344238970E+01  0.38656964282E+02  0.00000000000E+00 0. -1.
</event>
<event>
 7    1  0.3758561E-013  0.7246155E+02  0.7816164E-02  0.1226708E+00
        -11   -1    0    0    0    0  0.00000000000E+00  0.00000000000E+00  0.45593999997E+02  0.45594000000E+02  0.51100000000E-03 0.  1.
         11   -1    0    0    0    0 -0.00000000000E+00 -0.00000000000E+00 -0.45593999997E+02  0.45594000000E+02  0.51100000000E-03 0. -1.
    9900012    2    1    2    0    0  0.97866402371E+01 -0.15873609043E+02 -0.17118096578E+01  0.72461545891E+02  0.69999968210E+02 0.  0.
        -12    1    1    2    0    0 -0.97866402371E+01  0.15873609043E+02  0.17118096578E+01  0.18726454109E+02  0.00000000000E+00 0.  1.
         11    1    3    3    0    0 -0.20463410357E+02 -0.23624442538E+02  0.12460725748E+02  0.33647215859E+02  0.51100000000E-03 0. -1.
        -11    1    3    3    0    0  0.17820931130E+02  0.13235813138E+01  0.13439209552E+01  0.17920479281E+02  0.51100000000E-03 0.  1.
        -12    1    3    3    0    0  0.12429119464E+02  0.64272521807E+01 -0.15516456361E+02  0.20893850751E+02  0.00000000000E+00 0.  1.
</event>
<event>
 7    1  0.3758561E-013  0.7246159E+02  0.7816164E-02  0.1226708E+00
        -11   -1    0    0    0    0  0.00000000000E+00  0.00000000000E+00  0.45593999997E+02  0.45594000000E+02  0.51100000000E-03 0. -1.
         11   -1    0    0    0    0 -0.00000000000E+00 -0.00000000000E+00 -0.45593999997E+02  0.45594000000E+02  0.51100000000E-03 0.  1.
    9900012    2    1    2    0    0 -0.70083831433E+01 -0.13767948201E+02  0.10583221160E+02  0.72461590785E+02  0.70000026693E+02 0.  0.
        -12    1    1    2    0    0  0.70083831433E+01  0.13767948201E+02 -0.10583221160E+02  0.18726409215E+02  0.00000000000E+00 0.  1.
         11    1    3    3    0    0 -0.22623485034E+02 -0.97105688534E+01 -0.87888278632E+01  0.26141169025E+02  0.51100000000E-03 0. -1.
        -11    1    3    3    0    0 -0.73749930821E+01  0.96899858921E+01 -0.16246748661E+01  0.12285191013E+02  0.51100000000E-03 0.  1.
         12    1    3    3    0    0  0.22990094973E+02 -0.13747365240E+02  0.20996723890E+02  0.34035230747E+02  0.00000000000E+00 0. -1.
</event>
<event>
 7    1  0.3758561E-013  0.7246164E+02  0.7816164E-02  0.1226708E+00
        -11   -1    0    0    0    0  0.00000000000E+00  0.00000000000E+00  0.45593999997E+02  0.45594000000E+02  0.51100000000E-03 0.  1.
         11   -1    0    0    0    0 -0.00000000000E+00 -0.00000000000E+00 -0.45593999997E+02  0.45594000000E+02  0.51100000000E-03 0. -1.
    9900012    2    1    2    0    0  0.21554365395E+01 -0.79648166695E+01 -0.16810486333E+02  0.72461637245E+02  0.70000087216E+02 0.  0.
        -12    1    1    2    0    0 -0.21554365395E+01  0.79648166695E+01  0.16810486333E+02  0.18726362755E+02  0.00000000000E+00 0.  1.
         11    1    3    3    0    0 -0.14593211609E+02 -0.18708780676E+02 -0.13330950819E+02  0.27215704096E+02  0.51100000000E-03 0. -1.
        -11    1    3    3    0    0  0.11565896133E+02 -0.16113719404E+01  0.17089357528E+02  0.20698130686E+02  0.51100000000E-03 0.  1.
        -12    1    3    3    0    0  0.51827520150E+01  0.12355335947E+02 -0.20568893043E+02  0.24547802464E+02  0.00000000000E+00 0.  1.
</event>
<event>
 7    1  0.3758561E-013  0.7246157E+02  0.7816164E-02  0.1226708E+00
        -11   -1    0    0    0    0  0.00000000000E+00  0.00000000000E+00  0.45593999997E+02  0.45594000000E+02  0.51100000000E-03 0. -1.
         11   -1    0    0    0    0 -0.00000000000E+00 -0.00000000000E+00 -0.45593999997E+02  0.45594000000E+02  0.51100000000E-03 0.  1.
    9900012    2    1    2    0    0  0.12825569427E+02  0.53034271776E+01  0.12572097701E+02  0.72461569172E+02  0.69999998538E+02 0.  0.
        -12    1    1    2    0    0 -0.12825569427E+02 -0.53034271776E+01 -0.12572097701E+02  0.18726430828E+02  0.00000000000E+00 0.  1.
         11    1    3    3    0    0 -0.35166177243E+00 -0.10686613006E+02  0.32779035235E+02  0.34478870555E+02  0.51100000000E-03 0. -1.
        -11    1    3    3    0    0  0.97598867362E+01  0.21129581526E+02 -0.85552957701E+01  0.24797332327E+02  0.51100000000E-03 0.  1.
        -12    1    3    3    0    0  0.34173444633E+01 -0.51395413426E+01 -0.11651641765E+02  0.13185366290E+02  0.00000000000E+00 0.  1.
</event>
<event>
 7    1  0.3758561E-013  0.7246144E+02  0.7816164E-02  0.1226708E+00
        -11   -1    0    0    0    0  0.00000000000E+00  0.00000000000E+00  0.45593999997E+02  0.45594000000E+02  0.51100000000E-03 0. -1.
         11   -1    0    0    0    0 -0.00000000000E+00 -0.00000000000E+00 -0.45593999997E+02  0.45594000000E+02  0.51100000000E-03 0.  1.
    9900012    2    1    2    0    0 -0.80729416523E+01  0.10017810037E+02  0.13607177709E+02  0.72461436245E+02  0.69999825375E+02 0.  0.
        -12    1    1    2    0    0  0.80729416523E+01 -0.10017810037E+02 -0.13607177709E+02  0.18726563755E+02  0.00000000000E+00 0.  1.
         11    1    3    3    0    0 -0.49640042680E+00 -0.16246027023E+02  0.21780500024E+02  0.27176644182E+02  0.51100000000E-03 0. -1.
        -11    1    3    3    0    0 -0.13003917643E+02 -0.37498379290E+01  0.60169868714E+00  0.13547147306E+02  0.51100000000E-03 0.  1.
        -12    1    3    3    0    0  0.54273764175E+01  0.30013674989E+02 -0.87750210024E+01  0.31737644757E+02  0.00000000000E+00 0.  1.
</event>
<event>
 7    1  0.3758561E-013  0.7246167E+02  0.7816164E-02  0.1226708E+00
        -11   -1    0    0    0    0  0.00000000000E+00  0.00000000000E+00  0.45593999997E+02  0.45594000000E+02  0.51100000000E-03 0. -1.
         11   -1    0    0    0    0 -0.00000000000E+00 -0.00000000000E+00 -0.45593999997E+02  0.45594000000E+02  0.51100000000E-03 0.  1.
    9900012    2    1    2    0    0  0.53835646476E+01  0.16905012222E+02  0.59927613228E+01  0.72461671080E+02  0.70000131293E+02 0.  0.
        -12    1    1    2    0    0 -0.53835646476E+01 -0.16905012222E+02 -0.59927613228E+01  0.18726328920E+02  0.00000000000E+00 0.  1.
         11    1    3    3    0    0  0.19756570487E+01  0.10198639092E+02 -0.10627567617E+02  0.14861381289E+02  0.51100000000E-03 0. -1.
        -11    1    3    3    0    0 -0.89102221604E+01  0.60832751202E+01 -0.17923775872E+02  0.20920325927E+02  0.51100000000E-03 0.  1.
         12    1    3    3    0    0  0.12318129759E+02  0.62309800914E+00  0.34544104811E+02  0.36679963864E+02  0.00000000000E+00 0. -1.
</event>
<event>
 7    1  0.3758561E-013  0.7246157E+02  0.7816164E-02  0.1226708E+00
        -11   -1    0    0    0    0  0.00000000000E+00  0.00000000000E+00  0.45593999997E+02  0.45594000000E+02  0.51100000000E-03 0. -1.
         11   -1    0    0    0    0 -0.00000000000E+00 -0.00000000000E+00 -0.45593999997E+02  0.45594000000E+02  0.51100000000E-03 0.  1.
    9900012    2    1    2    0    0 -0.93839655057E+01  0.44000347770E+00  0.16199588287E+02  0.72461572889E+02  0.70000003381E+02 0.  0.
        -12    1    1    2    0    0  0.93839655057E+01 -0.44000347770E+00 -0.16199588287E+02  0.18726427111E+02  0.00000000000E+00 0.  1.
         11    1    3    3    0    0 -0.95536538125E+01 -0.16479257358E+02  0.13644947355E+02  0.23431235836E+02  0.51100000000E-03 0. -1.
        -11    1    3    3    0    0 -0.20046728542E+02 -0.29169423297E+01 -0.19504889737E+01  0.20351518010E+02  0.51100000000E-03 0.  1.
        -12    1    3    3    0    0  0.20216416849E+02  0.19836203166E+02  0.45051299055E+01  0.28678819043E+02  0.00000000000E+00 0.  1.
</event>
<event>
 7    1  0.3758561E-013  0.7246161E+02  0.7816164E-02  0.1226708E+00
        -11   -1    0    0    0    0  0.00000000000E+00  0.00000000000E+00  0.45593999997E+02  0.45594000000E+02  0.51100000000E-03 0.  1.
         11   -1    0    0    0    0 -0.00000000000E+00 -0.00000000000E+00 -0.45593999997E+02  0.45594000000E+02  0.51100000000E-03 0. -1.
    9900012    2    1    2    0    0  0.12329415347E+02 -0.18677319083E+01 -0.13970494723E+02  0.72461611451E+02  0.70000053615E+02 0.  0.
        -12    1    1    2    0    0 -0.12329415347E+02  0.18677319083E+01  0.13970494723E+02  0.18726388549E+02  0.00000000000E+00 0.  1.
         11    1    3    3    0    0  0.14946136898E+02  0.42005804648E+01 -0.27925288218E+02  0.31950799783E+02  0.51100000000E-03 0. -1.
        -11    1    3    3    0    0  0.14630591699E+02  0.58220966244E+01  0.78458824183E+00  0.15765995102E+02  0.51100000000E-03 0.  1.
        -12    1    3    3    0    0 -0.17247313250E+02 -0.11890408998E+02  0.13170205254E+02  0.24744816567E+02  0.00000000000E+00 0.  1.
</event>
<event>
 7    1  0.3758561E-013  0.7246157E+02  0.7816164E-02  0.1226708E+00
        -11   -1    0    0    0    0  0.00000000000E+00  0.00000000000E+00  0.45593999997E+02  0.45594000000E+02  0.51100000000E-03 0. -1.
         11   -1    0    0    0    0 -0.00000000000E+00 -0.00000000000E+00 -0.45593999997E+02  0.45594000000E+02  0.51100000000E-03 0.  1.
    9900012    2    1    2    0    0 -0.13141703796E+02  0.68832028551E+01  0.11427872162E+02  0.72461571553E+02  0.70000001640E+02 0.  0.
        -12    1    1    2    0    0  0.13141703796E+02 -0.68832028551E+01 -0.11427872162E+02  0.18726428447E+02  0.00000000000E+00 0.  1.
         11    1    3    3    0    0 -0.37212536543E+00  0.12482017059E+01  0.77754806349E+01  0.78838178665E+01  0.51100000000E-03 0. -1.
        -11    1    3    3    0    0 -0.28001366898E+02  0.42205820576E+01  0.25365529037E+02  0.38017100424E+02  0.51100000000E-03 0.  1.
         12    1    3    3    0    0  0.15231788467E+02  0.14144190916E+01 -0.21713137509E+02  0.26560653263E+02  0.00000000000E+00 0. -1.
</event>
<event>
 7    1  0.3758561E-013  0.7246150E+02  0.7816164E-02  0.1226708E+00
        -11   -1    0    0    0    0  0.00000000000E+00  0.00000000000E+00  0.45593999997E+02  0.45594000000E+02  0.51100000000E-03 0. -1.
         11   -1    0    0    0    0 -0.00000000000E+00 -0.00000000000E+00 -0.45593999997E+02  0.45594000000E+02  0.51100000000E-03 0.  1.
    9900012    2    1    2    0    0 -0.89355215402E+01 -0.61924381250E+01  0.15247692699E+02  0.72461495581E+02  0.69999902671E+02 0.  0.
        -12    1    1    2    0    0  0.89355215402E+01  0.61924381250E+01 -0.15247692699E+02  0.18726504419E+02  0.00000000000E+00 0.  1.
         11    1    3    3    0    0 -0.30611782497E+02  0.78144196148E+01  0.20099594250E+02  0.37445160846E+02  0.51100000000E-03 0. -1.
        -11    1    3    3    0    0  0.45509057003E+01 -0.16685649168E+02 -0.33614977929E+01  0.17618776873E+02  0.51100000000E-03 0.  1.
        -12    1    3    3    0    0  0.17125355256E+02  0.26787914278E+01 -0.14904037580E+01  0.17397557861E+02  0.00000000000E+00 0.  1.
</event>
<event>
 7    1  0.3758561E-013  0.7246157E+02  0.7816164E-02  0.1226708E+00
        -11   -1    0    0    0    0  0.00000000000E+00  0.00000000000E+00  0.45593999997E+02  0.45594000000E+02  0.51100000000E-03 0. -1.
         11   -1    0    0    0    0 -0.00000000000E+00 -0.00000000000E+00 -0.45593999997E+02  0.45594000000E+02  0.51100000000E-03 0.  1.
    9900012    2    1    2    0    0  0.14642018820E+02  0.95984698717E+01 -0.66452777927E+01  0.72461573327E+02  0.70000003950E+02 0.  0.
        -12    1    1    2    0    0 -0.14642018820E+02 -0.95984698717E+01  0.66452777927E+01  0.18726426673E+02  0.00000000000E+00 0.  1.
         11    1    3    3    0    0  0.10439914712E+02 -0.67431709228E+01  0.17990918874E+01  0.12557822469E+02  0.51100000000E-03 0. -1.
        -11    1    3    3    0    0 -0.37526607735E+01  0.12157389245E+01 -0.31198218505E+02  0.31446610663E+02  0.51100000000E-03 0.  1.
         12    1    3    3    0    0  0.79547648821E+01  0.15125901870E+02  0.22753848825E+02  0.28457140195E+02  0.00000000000E+00 0. -1.
</event>
<event>
 7    1  0.3758561E-013  0.7246177E+02  0.7816164E-02  0.1226707E+00
        -11   -1    0    0    0    0  0.00000000000E+00  0.00000000000E+00  0.45593999997E+02  0.45594000000E+02  0.51100000000E-03 0.  1.
         11   -1    0    0    0    0 -0.00000000000E+00 -0.00000000000E+00 -0.45593999997E+02  0.45594000000E+02  0.51100000000E-03 0. -1.
    9900012    2    1    2    0    0  0.52927478019E+01 -0.25014756737E+01 -0.17787663971E+02  0.72461773755E+02  0.70000265045E+02 0.  0.
        -12    1    1    2    0    0 -0.52927478019E+01  0.25014756737E+01  0.17787663971E+02  0.18726226245E+02  0.00000000000E+00 0.  1.
         11    1    3    3    0    0  0.13523929168E+02  0.93991230726E+01 -0.83338453172E+01  0.18457875087E+02  0.51100000000E-03 0. -1.
        -11    1    3    3    0    0  0.11551998336E+01  0.19507054861E+02  0.10846115220E+01  0.19571307019E+02  0.51100000000E-03 0.  1.
        -12    1    3    3    0    0 -0.93863812001E+01 -0.31407653607E+02 -0.10538430175E+02  0.34432591650E+02  0.00000000000E+00 0.  1.
</event>
<event>
 7    1  0.3758561E-013  0.7246167E+02  0.7816164E-02  0.1226708E+00
        -11   -1    0    0    0    0  0.00000000000E+00  0.00000000000E+00  0.45593999997E+02  0.45594000000E+02  0.51100000000E-03 0. -1.
         11   -1    0    0    0    0 -0.00000000000E+00 -0.00000000000E+00 -0.45593999997E+02  0.45594000000E+02  0.51100000000E-03 0.  1.
    9900012    2    1    2    0    0 -0.14457255066E+02 -0.98024914537E+01  0.67508682076E+01  0.72461674031E+02  0.70000135136E+02 0.  0.
        -12    1    1    2    0    0  0.14457255066E+02  0.98024914537E+01 -0.67508682076E+01  0.18726325969E+02  0.00000000000E+00 0.  1.
         11    1    3    3    0    0 -0.62178439046E+01  0.19794470135E+02  0.12428170889E+02  0.24185575508E+02  0.51100000000E-03 0. -1.
        -11    1    3    3    0    0 -0.40973557826E+01  0.28565531397E+01  0.10611823648E+02  0.11728555821E+02  0.51100000000E-03 0.  1.
        -12    1    3    3    0    0 -0.41420553786E+01 -0.32453514729E+02 -0.16289126329E+02  0.36547542702E+02  0.00000000000E+00 0.  1.
</event>
<event>
 7    1  0.3758561E-013  0.7246116E+02  0.7816164E-02  0.1226709E+00
        -11   -1    0    0    0    0  0.00000000000E+00  0.00000000000E+00  0.45593999997E+02  0.45594000000E+02  0.51100000000E-03 0. -1.
         11   -1    0    0    0    0 -0.00000000000E+00 -0.00000000000E+00 -0.45593999997E+02  0.45594000000E+02  0.51100000000E-03 0.  1.
    9900012    2    1    2    0    0 -0.17818843728E+02 -0.23595569938E+01  0.52550801990E+01  0.72461159132E+02  0.69999464383E+02 0.  0.
        -12    1    1    2    0    0  0.17818843728E+02  0.23595569938E+01 -0.52550801990E+01  0.18726840868E+02  0.00000000000E+00 0.  1.
         11    1    3    3    0    0 -0.48331466145E+01 -0.26766017935E+02  0.15493391666E+02  0.31302143822E+02  0.51100000000E-03 0. -1.
        -11    1    3    3    0    0 -0.17394767439E+02  0.48665284126E+01 -0.10936619059E+02  0.21115649878E+02  0.51100000000E-03 0.  1.
        -12    1    3    3    0    0  0.44090703260E+01  0.19539932528E+02  0.69830759196E+00  0.20043365432E+02  0.00000000000E+00 0.  1.
</event>
<event>
 7    1  0.3758561E-013  0.7246150E+02  0.7816164E-02  0.1226708E+00
        -11   -1    0    0    0    0  0.00000000000E+00  0.00000000000E+00  0.45593999997E+02  0.45594000000E+02  0.51100000000E-03 0. -1.
         11   -1    0    0    0    0 -0.00000000000E+00 -0.00000000000E+00 -0.45593999997E+02  0.45594000000E+02  0.51100000000E-03 0.  1.
    9900012    2    1    2    0    0  0.79892357986E+00  0.51296212208E+01  0.17992511887E+02  0.72461500680E+02  0.69999909315E+02 0.  0.
        -12    1    1    2    0    0 -0.79892357986E+00 -0.51296212208E+01 -0.17992511887E+02  0.18726499320E+02  0.00000000000E+00 0.  1.
         11    1    3    3    0    0  0.56177912010E+01  0.26078628684E+02  0.31832078932E+02  0.41532345244E+02  0.51100000000E-03 0. -1.
        -11    1    3    3    0    0 -0.39839132082E+01  0.10470241242E+01  0.11756874682E+01  0.42836976143E+01  0.51100000000E-03 0.  1.
        -12    1    3    3    0    0 -0.83495441293E+00 -0.21996031588E+02 -0.15015254513E+02  0.26645457822E+02  0.00000000000E+00 0.  1.
</event>
<event>
 7    1  0.3758561E-013  0.7246143E+02  0.7816164E-02  0.1226708E+00
        -11   -1    0    0    0    0  0.00000000000E+00  0.00000000000E+00  0.45593999997E+02  0.45594000000E+02  0.51100000000E-03 0.  1.
         11   -1    0    0    0    0 -0.00000000000E+00 -0.00000000000E+00 -0.45593999997E+02  0.45594000000E+02  0.51100000000E-03 0. -1.
    9900012    2    1    2    0    0 -0.10026333416E+02 -0.82338887302E+01 -0.13504081843E+02  0.72461427654E+02  0.69999814185E+02 0.  0.
        -12    1    1    2    0    0  0.10026333416E+02  0.82338887302E+01  0.13504081843E+02  0.18726572346E+02  0.00000000000E+00 0.  1.
         11    1    3    3    0    0 -0.95329185154E+01  0.22824592196E+02 -0.25291249696E+01  0.24864332239E+02  0.51100000000E-03 0. -1.
        -11    1    3    3    0    0  0.10205868997E+02 -0.17116424533E+01 -0.12616455848E+02  0.16317611353E+02  0.51100000000E-03 0.  1.
        -12    1    3    3    0    0 -0.10699283897E+02 -0.29346838473E+02  0.16414989742E+01  0.31279484062E+02  0.00000000000E+00 0.  1.
</event>
<event>
 7    1  0.3758561E-013  0.7246151E+02  0.7816164E-02  0.1226708E+00
        -11   -1    0    0    0    0  0.00000000000E+00  0.00000000000E+00  0.45593999997E+02  0.45594000000E+02  0.51100000000E-03 0.  1.
         11   -1    0    0    0    0 -0.00000000000E+00 -0.00000000000E+00 -0.45593999997E+02  0.45594000000E+02  0.51100000000E-03 0. -1.
    9900012    2    1    2    0    0 -0.36623169847E+00  0.15749212317E+02 -0.10124694408E+02  0.72461514715E+02  0.69999927597E+02 0.  0.
        -12    1    1    2    0    0  0.36623169847E+00 -0.15749212317E+02  0.10124694408E+02  0.18726485285E+02  0.00000000000E+00 0.  1.
         11    1    3    3    0    0 -0.10843831688E+02 -0.14205064419E+01 -0.18213968683E+02  0.21245121315E+02  0.51100000000E-03 0. -1.
        -11    1    3    3    0    0  0.17806016653E+01 -0.53434745920E+01 -0.16093598511E+02  0.17050723630E+02  0.51100000000E-03 0.  1.
        -12    1    3    3    0    0  0.86969983247E+01  0.22513193351E+02  0.24182872785E+02  0.34165669770E+02  0.00000000000E+00 0.  1.
</event>
<event>
 7    1  0.3758561E-013  0.7246161E+02  0.7816164E-02  0.1226708E+00
        -11   -1    0    0    0    0  0.00000000000E+00  0.00000000000E+00  0.45593999997E+02  0.45594000000E+02  0.51100000000E-03 0. -1.
         11   -1    0    0    0    0 -0.00000000000E+00 -0.00000000000E+00 -0.45593999997E+02  0.45594000000E+02  0.51100000000E-03 0.  1.
    9900012    2    1    2    0    0 -0.61561497497E+01 -0.16749067765E+02  0.56787600413E+01  0.72461607759E+02  0.70000048805E+02 0.  0.
        -12    1    1    2    0    0  0.61561497497E+01  0.16749067765E+02 -0.56787600413E+01  0.18726392241E+02  0.00000000000E+00 0.  1.
         11    1    3    3    0    0 -0.75749308440E+01 -0.24294478095E+02  0.26127740809E+02  0.36472730680E+02  0.51100000000E-03 0.  1.
        -11    1    3    3    0    0  0.74402334664E+01 -0.23349461753E+01  0.41288706267E+01  0.88236398719E+01  0.51100000000E-03 0. -1.
        -12    1    3    3    0    0 -0.60214523722E+01  0.98803565053E+01 -0.24577851395E+02  0.27165237207E+02  0.00000000000E+00 0.  1.
</event>
<event>
 7    1  0.3758561E-013  0.7246169E+02  0.7816164E-02  0.1226708E+00
        -11   -1    0    0    0    0  0.00000000000E+00  0.00000000000E+00  0.45593999997E+02  0.45594000000E+02  0.51100000000E-03 0.  1.
         11   -1    0    0    0    0 -0.00000000000E+00 -0.00000000000E+00 -0.45593999997E+02  0.45594000000E+02  0.51100000000E-03 0. -1.
    9900012    2    1    2    0    0 -0.17035583177E+02  0.20395888278E+01 -0.75035822018E+01  0.72461687960E+02  0.70000153281E+02 0.  0.
        -12    1    1    2    0    0  0.17035583177E+02 -0.20395888278E+01  0.75035822018E+01  0.18726312040E+02  0.00000000000E+00 0.  1.
         11    1    3    3    0    0 -0.10049041413E+02 -0.46933554289E+01  0.19152447488E+02  0.22132037040E+02  0.51100000000E-03 0. -1.
        -11    1    3    3    0    0 -0.16780509758E+02 -0.14420337756E+01  0.38383993087E+01  0.17274208481E+02  0.51100000000E-03 0.  1.
         12    1    3    3    0    0  0.97939679932E+01  0.81749780324E+01 -0.30494428998E+02  0.33055442439E+02  0.00000000000E+00 0. -1.
</event>
<event>
 7    1  0.3758561E-013  0.7246162E+02  0.7816164E-02  0.1226708E+00
        -11   -1    0    0    0    0  0.00000000000E+00  0.00000000000E+00  0.45593999997E+02  0.45594000000E+02  0.51100000000E-03 0.  1.
         11   -1    0    0    0    0 -0.00000000000E+00 -0.00000000000E+00 -0.45593999997E+02  0.45594000000E+02  0.51100000000E-03 0. -1.
    9900012    2    1    2    0    0  0.18375364808E+02 -0.36030359085E+01  0.20394793035E+00  0.72461615022E+02  0.70000058266E+02 0.  0.
        -12    1    1    2    0    0 -0.18375364808E+02  0.36030359085E+01 -0.20394793035E+00  0.18726384978E+02  0.00000000000E+00 0.  1.
         11    1    3    3    0    0  0.10954063718E+02 -0.14824904119E+00 -0.83800334898E+00  0.10987071475E+02  0.51100000000E-03 0.  1.
        -11    1    3    3    0    0  0.72870979543E+01 -0.24375604641E+02 -0.19575877111E+02  0.32101197223E+02  0.51100000000E-03 0. -1.
        -12    1    3    3    0    0  0.13420313544E+00  0.20920817774E+02  0.20617828390E+02  0.29373346325E+02  0.00000000000E+00 0.  1.
</event>
<event>
 7    1  0.3758561E-013  0.7246158E+02  0.7816164E-02  0.1226708E+00
        -11   -1    0    0    0    0  0.00000000000E+00  0.00000000000E+00  0.45593999997E+02  0.45594000000E+02  0.51100000000E-03 0.  1.
         11   -1    0    0    0    0 -0.00000000000E+00 -0.00000000000E+00 -0.45593999997E+02  0.45594000000E+02  0.51100000000E-03 0. -1.
    9900012    2    1    2    0    0 -0.15756470133E+02 -0.87696704170E+00 -0.10081834092E+02  0.72461580136E+02  0.70000012821E+02 0.  0.
        -12    1    1    2    0    0  0.15756470133E+02  0.87696704170E+00  0.10081834092E+02  0.18726419864E+02  0.00000000000E+00 0.  1.
         11    1    3    3    0    0  0.33315899817E+01 -0.13582493651E+02 -0.71079993704E+01  0.15687806758E+02  0.51100000000E-03 0. -1.
        -11    1    3    3    0    0 -0.10668959702E+02 -0.19193423128E+02  0.56488330469E+01  0.22674291776E+02  0.51100000000E-03 0.  1.
         12    1    3    3    0    0 -0.84191004126E+01  0.31898949737E+02 -0.86226677689E+01  0.34099481602E+02  0.00000000000E+00 0. -1.
</event>
<event>
 7    1  0.3758561E-013  0.7246160E+02  0.7816164E-02  0.1226708E+00
        -11   -1    0    0    0    0  0.00000000000E+00  0.00000000000E+00  0.45593999997E+02  0.45594000000E+02  0.51100000000E-03 0.  1.
         11   -1    0    0    0    0 -0.00000000000E+00 -0.00000000000E+00 -0.45593999997E+02  0.45594000000E+02  0.51100000000E-03 0. -1.
    9900012    2    1    2    0    0 -0.49006712051E+01  0.64724034404E+01 -0.16875112104E+02  0.72461601705E+02  0.70000040919E+02 0.  0.
        -12    1    1    2    0    0  0.49006712051E+01 -0.64724034404E+01  0.16875112104E+02  0.18726398295E+02  0.00000000000E+00 0.  1.
         11    1    3    3    0    0  0.24794258978E+01  0.42360304054E+01  0.29237461312E+01  0.57131250712E+01  0.51100000000E-03 0. -1.
        -11    1    3    3    0    0 -0.13408461077E+02  0.31242863210E+02 -0.12616203031E+02  0.36263920212E+02  0.51100000000E-03 0.  1.
        -12    1    3    3    0    0  0.60283639738E+01 -0.29006490175E+02 -0.71826552044E+01  0.30484556422E+02  0.00000000000E+00 0.  1.
</event>
<event>
 7    1  0.3758561E-013  0.7246156E+02  0.7816164E-02  0.1226708E+00
        -11   -1    0    0    0    0  0.00000000000E+00  0.00000000000E+00  0.45593999997E+02  0.45594000000E+02  0.51100000000E-03 0.  1.
         11   -1    0    0    0    0 -0.00000000000E+00 -0.00000000000E+00 -0.45593999997E+02  0.45594000000E+02  0.51100000000E-03 0. -1.
    9900012    2    1    2    0    0  0.56893656196E+01  0.17613262211E+02 -0.28431734943E+01  0.72461560873E+02  0.69999987727E+02 0.  0.
        -12    1    1    2    0    0 -0.56893656196E+01 -0.17613262211E+02  0.28431734943E+01  0.18726439127E+02  0.00000000000E+00 0.  1.
         11    1    3    3    0    0 -0.23947108690E+01  0.19668829518E+02  0.36935085058E+01  0.20155383898E+02  0.51100000000E-03 0. -1.
        -11    1    3    3    0    0  0.23231037556E+02 -0.69247121210E+01  0.12680531532E+02  0.27357423564E+02  0.51100000000E-03 0.  1.
         12    1    3    3    0    0 -0.15146961067E+02  0.48691448141E+01 -0.19217213532E+02  0.24948753410E+02  0.00000000000E+00 0. -1.
</event>
<event>
 7    1  0.3758561E-013  0.7246158E+02  0.7816164E-02  0.1226708E+00
        -11   -1    0    0    0    0  0.00000000000E+00  0.00000000000E+00  0.45593999997E+02  0.45594000000E+02  0.51100000000E-03 0. -1.
         11   -1    0    0    0    0 -0.00000000000E+00 -0.00000000000E+00 -0.45593999997E+02  0.45594000000E+02  0.51100000000E-03 0.  1.
    9900012    2    1    2    0    0  0.18692712132E+02  0.28990410113E+00 -0.10849399535E+01  0.72461584808E+02  0.70000018907E+02 0.  0.
        -12    1    1    2    0    0 -0.18692712132E+02 -0.28990410113E+00  0.10849399535E+01  0.18726415192E+02  0.00000000000E+00 0.  1.
         11    1    3    3    0    0 -0.97081323169E+01  0.19907558889E+02  0.12049474807E+02  0.25214055156E+02  0.51100000000E-03 0. -1.
        -11    1    3    3    0    0  0.21606770550E+01  0.23166731885E+01  0.69132433917E+01  0.76045009338E+01  0.51100000000E-03 0.  1.
        -12    1    3    3    0    0  0.26240167394E+02 -0.21934327977E+02 -0.20047658152E+02  0.39643028719E+02  0.00000000000E+00 0.  1.
</event>
<event>
 7    1  0.3758561E-013  0.7246140E+02  0.7816164E-02  0.1226708E+00
        -11   -1    0    0    0    0  0.00000000000E+00  0.00000000000E+00  0.45593999997E+02  0.45594000000E+02  0.51100000000E-03 0. -1.
         11   -1    0    0    0    0 -0.00000000000E+00 -0.00000000000E+00 -0.45593999997E+02  0.45594000000E+02  0.51100000000E-03 0.  1.
    9900012    2    1    2    0    0 -0.95425626954E+01  0.75816224228E+01  0.14217740273E+02  0.72461397537E+02  0.69999774951E+02 0.  0.
        -12    1    1    2    0    0  0.95425626954E+01 -0.75816224228E+01 -0.14217740273E+02  0.18726602463E+02  0.00000000000E+00 0.  1.
         11    1    3    3    0    0  0.16213724706E+02  0.33324231326E+01 -0.50209756540E+00  0.16560254074E+02  0.51100000000E-03 0.  1.
        -11    1    3    3    0    0 -0.29093522623E+02 -0.11674434266E+02 -0.34195796425E+01  0.31534409765E+02  0.51100000000E-03 0. -1.
         12    1    3    3    0    0  0.33372352214E+01  0.15923633556E+02  0.18139417480E+02  0.24366733697E+02  0.00000000000E+00 0. -1.
</event>
<event>
 7    1  0.3758561E-013  0.7246142E+02  0.7816164E-02  0.1226708E+00
        -11   -1    0    0    0    0  0.00000000000E+00  0.00000000000E+00  0.45593999997E+02  0.45594000000E+02  0.51100000000E-03 0. -1.
         11   -1    0    0    0    0 -0.00000000000E+00 -0.00000000000E+00 -0.45593999997E+02  0.45594000000E+02  0.51100000000E-03 0.  1.
    9900012    2    1    2    0    0  0.15326163370E+02  0.46615123233E+00 -0.10750633871E+02  0.72461422384E+02  0.69999807318E+02 0.  0.
        -12    1    1    2    0    0 -0.15326163370E+02 -0.46615123233E+00  0.10750633871E+02  0.18726577616E+02  0.00000000000E+00 0.  1.
         11    1    3    3    0    0 -0.20302016045E+02 -0.13945658173E+01  0.58821608730E+01  0.21182929120E+02  0.51100000000E-03 0. -1.
        -11    1    3    3    0    0 -0.43933125826E+01  0.67912552814E+01 -0.39895120454E+01  0.90187887418E+01  0.51100000000E-03 0.  1.
        -12    1    3    3    0    0  0.40021491997E+02 -0.49305382318E+01 -0.12643282698E+02  0.42259704522E+02  0.00000000000E+00 0.  1.
</event>
<event>
 7    1  0.3758561E-013  0.7246155E+02  0.7816164E-02  0.1226708E+00
        -11   -1    0    0    0    0  0.00000000000E+00  0.00000000000E+00  0.45593999997E+02  0.45594000000E+02  0.51100000000E-03 0. -1.
         11   -1    0    0    0    0 -0.00000000000E+00 -0.00000000000E+00 -0.45593999997E+02  0.45594000000E+02  0.51100000000E-03 0.  1.
    9900012    2    1    2    0    0 -0.17616660567E+02  0.43402784811E+01  0.46362885477E+01  0.72461550301E+02  0.69999973956E+02 0.  0.
        -12    1    1    2    0    0  0.17616660567E+02 -0.43402784811E+01 -0.46362885477E+01  0.18726449699E+02  0.00000000000E+00 0.  1.
         11    1    3    3    0    0 -0.35933015576E+02  0.31238426661E+01 -0.66261689337E+01  0.36672143602E+02  0.51100000000E-03 0. -1.
        -11    1    3    3    0    0  0.33398409974E+01  0.13382880307E+02  0.74457257228E+00  0.13813414197E+02  0.51100000000E-03 0.  1.
        -12    1    3    3    0    0  0.14976514012E+02 -0.12166444492E+02  0.10517884909E+02  0.21975992503E+02  0.00000000000E+00 0.  1.
</event>
<event>
 7    1  0.3758561E-013  0.7246159E+02  0.7816164E-02  0.1226708E+00
        -11   -1    0    0    0    0  0.00000000000E+00  0.00000000000E+00  0.45593999997E+02  0.45594000000E+02  0.51100000000E-03 0.  1.
         11   -1    0    0    0    0 -0.00000000000E+00 -0.00000000000E+00 -0.45593999997E+02  0.45594000000E+02  0.51100000000E-03 0. -1.
    9900012    2    1    2    0    0 -0.10554319900E+02  0.94446250295E+00 -0.15439975804E+02  0.72461587348E+02  0.70000022216E+02 0.  0.
        -12    1    1    2    0    0  0.10554319900E+02 -0.94446250295E+00  0.15439975804E+02  0.18726412652E+02  0.00000000000E+00 0.  1.
         11    1    3    3    0    0  0.41865306561E+00 -0.13334602954E+02  0.31932199998E+01  0.13718001332E+02  0.51100000000E-03 0. -1.
        -11    1    3    3    0    0 -0.30878288942E+02 -0.38921431563E+00 -0.12120302569E+02  0.33174115668E+02  0.51100000000E-03 0.  1.
         12    1    3    3    0    0  0.19905315976E+02  0.14668279772E+02 -0.65128932351E+01  0.25569470348E+02  0.00000000000E+00 0. -1.
</event>
<event>
 7    1  0.3758561E-013  0.7246154E+02  0.7816164E-02  0.1226708E+00
        -11   -1    0    0    0    0  0.00000000000E+00  0.00000000000E+00  0.45593999997E+02  0.45594000000E+02  0.51100000000E-03 0.  1.
         11   -1    0    0    0    0 -0.00000000000E+00 -0.00000000000E+00 -0.45593999997E+02  0.45594000000E+02  0.51100000000E-03 0. -1.
    9900012    2    1    2    0    0  0.13878151977E+02  0.11418309580E+02  0.52630067284E+01  0.72461544495E+02  0.69999966391E+02 0.  0.
        -12    1    1    2    0    0 -0.13878151977E+02 -0.11418309580E+02 -0.52630067284E+01  0.18726455505E+02  0.00000000000E+00 0.  1.
         11    1    3    3    0    0  0.28159176202E+00  0.90921008553E+01 -0.96840845732E+01  0.13286349618E+02  0.51100000000E-03 0. -1.
        -11    1    3    3    0    0  0.32453084739E+02  0.13616045877E+02  0.76309141384E+01  0.36011529616E+02  0.51100000000E-03 0.  1.
         12    1    3    3    0    0 -0.18856524525E+02 -0.11289837152E+02  0.73161771631E+01  0.23163665261E+02  0.00000000000E+00 0. -1.
</event>
<event>
 7    1  0.3758561E-013  0.7246175E+02  0.7816164E-02  0.1226708E+00
        -11   -1    0    0    0    0  0.00000000000E+00  0.00000000000E+00  0.45593999997E+02  0.45594000000E+02  0.51100000000E-03 0.  1.
         11   -1    0    0    0    0 -0.00000000000E+00 -0.00000000000E+00 -0.45593999997E+02  0.45594000000E+02  0.51100000000E-03 0. -1.
    9900012    2    1    2    0    0  0.48020037378E+01 -0.11813401348E+02 -0.13713376240E+02  0.72461751598E+02  0.70000236182E+02 0.  0.
        -12    1    1    2    0    0 -0.48020037378E+01  0.11813401348E+02  0.13713376240E+02  0.18726248402E+02  0.00000000000E+00 0.  1.
         11    1    3    3    0    0 -0.17812130628E+02  0.97481657335E+01 -0.17057564564E+02  0.26519035461E+02  0.51100000000E-03 0. -1.
        -11    1    3    3    0    0  0.73207637983E+01  0.65364229402E+01 -0.72962025460E+01  0.12229185553E+02  0.51100000000E-03 0.  1.
        -12    1    3    3    0    0  0.15293370567E+02 -0.28097990022E+02  0.10640390870E+02  0.33713530584E+02  0.00000000000E+00 0.  1.
</event>
<event>
 7    1  0.3758561E-013  0.7246161E+02  0.7816164E-02  0.1226708E+00
        -11   -1    0    0    0    0  0.00000000000E+00  0.00000000000E+00  0.45593999997E+02  0.45594000000E+02  0.51100000000E-03 0. -1.
         11   -1    0    0    0    0 -0.00000000000E+00 -0.00000000000E+00 -0.45593999997E+02  0.45594000000E+02  0.51100000000E-03 0.  1.
    9900012    2    1    2    0    0  0.84602651375E-01 -0.15219778866E+02  0.10910032924E+02  0.72461611006E+02  0.70000053035E+02 0.  0.
        -12    1    1    2    0    0 -0.84602651375E-01  0.15219778866E+02 -0.10910032924E+02  0.18726388994E+02  0.00000000000E+00 0.  1.
         11    1    3    3    0    0  0.62177003815E+01 -0.21406677442E+02 -0.20805331126E+01  0.22388261555E+02  0.51100000000E-03 0. -1.
        -11    1    3    3    0    0 -0.94655700162E+01 -0.69366157905E+01 -0.14961381197E+02  0.19014641252E+02  0.51100000000E-03 0.  1.
         12    1    3    3    0    0  0.33324722860E+01  0.13123514366E+02  0.27951947234E+02  0.31058708199E+02  0.00000000000E+00 0. -1.
</event>
<event>
 7    1  0.3758561E-013  0.7246190E+02  0.7816164E-02  0.1226707E+00
        -11   -1    0    0    0    0  0.00000000000E+00  0.00000000000E+00  0.45593999997E+02  0.45594000000E+02  0.51100000000E-03 0. -1.
         11   -1    0    0    0    0 -0.00000000000E+00 -0.00000000000E+00 -0.45593999997E+02  0.45594000000E+02  0.51100000000E-03 0.  1.
    9900012    2    1    2    0    0 -0.93488394617E+01  0.53303231165E+00  0.16216711689E+02  0.72461904284E+02  0.70000435083E+02 0.  0.
        -12    1    1    2    0    0  0.93488394617E+01 -0.53303231165E+00 -0.16216711689E+02  0.18726095716E+02  0.00000000000E+00 0.  1.
         11    1    3    3    0    0  0.90356879131E+00 -0.14264970562E+02  0.65373309280E+01  0.15717586253E+02  0.51100000000E-03 0. -1.
        -11    1    3    3    0    0 -0.26419234077E+02  0.52084327993E+01 -0.10739919809E+02  0.28990508433E+02  0.51100000000E-03 0.  1.
         12    1    3    3    0    0  0.16166825824E+02  0.95895700739E+01  0.20419300571E+02  0.27753809599E+02  0.00000000000E+00 0. -1.
</event>
<event>
 7    1  0.3758561E-013  0.7246157E+02  0.7816164E-02  0.1226708E+00
        -11   -1    0    0    0    0  0.00000000000E+00  0.00000000000E+00  0.45593999997E+02  0.45594000000E+02  0.51100000000E-03 0.  1.
         11   -1    0    0    0    0 -0.00000000000E+00 -0.00000000000E+00 -0.45593999997E+02  0.45594000000E+02  0.51100000000E-03 0. -1.
    9900012    2    1    2    0    0 -0.16210586319E+02  0.96139973137E-01 -0.93747919780E+01  0.72461572782E+02  0.70000003241E+02 0.  0.
        -12    1    1    2    0    0  0.16210586319E+02 -0.96139973137E-01  0.93747919780E+01  0.18726427218E+02  0.00000000000E+00 0.  1.
         11    1    3    3    0    0 -0.13698160878E+01  0.17582972751E+02  0.37778728350E+01  0.18036342487E+02  0.51100000000E-03 0. -1.
        -11    1    3    3    0    0 -0.67596697461E+01  0.16213312404E+02 -0.83118857317E+01  0.19433272469E+02  0.51100000000E-03 0.  1.
        -12    1    3    3    0    0 -0.80811004855E+01 -0.33700145182E+02 -0.48407790813E+01  0.34991957826E+02  0.00000000000E+00 0.  1.
</event>
<event>
 7    1  0.3758561E-013  0.7246150E+02  0.7816164E-02  0.1226708E+00
        -11   -1    0    0    0    0  0.00000000000E+00  0.00000000000E+00  0.45593999997E+02  0.45594000000E+02  0.51100000000E-03 0.  1.
         11   -1    0    0    0    0 -0.00000000000E+00 -0.00000000000E+00 -0.45593999997E+02  0.45594000000E+02  0.51100000000E-03 0. -1.
    9900012    2    1    2    0    0  0.41494657564E-03 -0.16527128863E+02 -0.88054488042E+01  0.72461496929E+02  0.69999904428E+02 0.  0.
        -12    1    1    2    0    0 -0.41494657565E-03  0.16527128863E+02  0.88054488042E+01  0.18726503071E+02  0.00000000000E+00 0.  1.
         11    1    3    3    0    0  0.32019032355E+01  0.19707046288E+01  0.13682719275E+02  0.14189879072E+02  0.51100000000E-03 0. -1.
        -11    1    3    3    0    0 -0.12015536797E+02  0.11589994421E+02 -0.21077057937E+02  0.26887608051E+02  0.51100000000E-03 0.  1.
         12    1    3    3    0    0  0.88140485077E+01 -0.30087827913E+02 -0.14111101423E+01  0.31384009805E+02  0.00000000000E+00 0. -1.
</event>
<event>
 7    1  0.3915184E-013  0.7246157E+02  0.7816164E-02  0.1226708E+00
        -11   -1    0    0    0    0  0.00000000000E+00  0.00000000000E+00  0.45593999997E+02  0.45594000000E+02  0.51100000000E-03 0. -1.
         11   -1    0    0    0    0 -0.00000000000E+00 -0.00000000000E+00 -0.45593999997E+02  0.45594000000E+02  0.51100000000E-03 0.  1.
    9900012    2    1    2    0    0  0.88975774129E+01  0.94020636168E+01  0.13531941537E+02  0.72461571461E+02  0.70000001520E+02 0.  0.
        -12    1    1    2    0    0 -0.88975774129E+01 -0.94020636168E+01 -0.13531941537E+02  0.18726428539E+02  0.00000000000E+00 0.  1.
         11    1    3    3    0    0  0.18842316471E+02 -0.69326018734E+01  0.14356881794E+02  0.24682259091E+02  0.51100000000E-03 0. -1.
        -11    1    3    3    0    0  0.89982332847E+00  0.34551215060E+01 -0.21114107239E+02  0.21413852325E+02  0.51100000000E-03 0.  1.
         12    1    3    3    0    0 -0.10844562386E+02  0.12879543984E+02  0.20289166982E+02  0.26365460045E+02  0.00000000000E+00 0. -1.
</event>
<event>
 7    1  0.3758561E-013  0.7246157E+02  0.7816164E-02  0.1226708E+00
        -11   -1    0    0    0    0  0.00000000000E+00  0.00000000000E+00  0.45593999997E+02  0.45594000000E+02  0.51100000000E-03 0.  1.
         11   -1    0    0    0    0 -0.00000000000E+00 -0.00000000000E+00 -0.45593999997E+02  0.45594000000E+02  0.51100000000E-03 0. -1.
    9900012    2    1    2    0    0 -0.16892873809E+02 -0.10106698797E+01 -0.80180100181E+01  0.72461571515E+02  0.70000001591E+02 0.  0.
        -12    1    1    2    0    0  0.16892873809E+02  0.10106698797E+01  0.80180100181E+01  0.18726428485E+02  0.00000000000E+00 0.  1.
         11    1    3    3    0    0 -0.28645940830E+02 -0.17391168006E+02 -0.78913268708E+01  0.34428414002E+02  0.51100000000E-03 0. -1.
        -11    1    3    3    0    0 -0.59465142690E+01 -0.55648611518E+01  0.47392798795E+01  0.94228172872E+01  0.51100000000E-03 0.  1.
        -12    1    3    3    0    0  0.17699581290E+02  0.21945359278E+02 -0.48659630267E+01  0.28610340226E+02  0.00000000000E+00 0.  1.
</event>
<event>
 7    1  0.3758561E-013  0.7246156E+02  0.7816164E-02  0.1226708E+00
        -11   -1    0    0    0    0  0.00000000000E+00  0.00000000000E+00  0.45593999997E+02  0.45594000000E+02  0.51100000000E-03 0. -1.
         11   -1    0    0    0    0 -0.00000000000E+00 -0.00000000000E+00 -0.45593999997E+02  0.45594000000E+02  0.51100000000E-03 0.  1.
    9900012    2    1    2    0    0  0.17346825745E+02  0.50880406313E+01  0.48866100764E+01  0.72461562033E+02  0.69999989239E+02 0.  0.
        -12    1    1    2    0    0 -0.17346825745E+02 -0.50880406313E+01 -0.48866100764E+01  0.18726437967E+02  0.00000000000E+00 0.  1.
         11    1    3    3    0    0  0.18093106971E+01  0.13665066288E+01  0.21959905160E+01  0.31564727422E+01  0.51100000000E-03 0. -1.
        -11    1    3    3    0    0 -0.11192107481E+02  0.62527846770E+01 -0.26625891175E+02  0.29551627150E+02  0.51100000000E-03 0.  1.
         12    1    3    3    0    0  0.26729622529E+02 -0.25312506745E+01  0.29316510735E+02  0.39753462141E+02  0.00000000000E+00 0. -1.
</event>
<event>
 7    1  0.3758561E-013  0.7246156E+02  0.7816164E-02  0.1226708E+00
        -11   -1    0    0    0    0  0.00000000000E+00  0.00000000000E+00  0.45593999997E+02  0.45594000000E+02  0.51100000000E-03 0. -1.
         11   -1    0    0    0    0 -0.00000000000E+00 -0.00000000000E+00 -0.45593999997E+02  0.45594000000E+02  0.51100000000E-03 0.  1.
    9900012    2    1    2    0    0  0.13370637842E+02 -0.10915444623E+02  0.72635101281E+01  0.72461562351E+02  0.69999989653E+02 0.  0.
        -12    1    1    2    0    0 -0.13370637842E+02  0.10915444623E+02 -0.72635101281E+01  0.18726437649E+02  0.00000000000E+00 0.  1.
         11    1    3    3    0    0 -0.13438609199E+02  0.66995119322E+01  0.44429023674E+01  0.15659471863E+02  0.51100000000E-03 0. -1.
        -11    1    3    3    0    0  0.14986300855E+02 -0.15471207832E+02  0.24125920797E+02  0.32342039820E+02  0.51100000000E-03 0.  1.
        -12    1    3    3    0    0  0.11822946186E+02 -0.21437487229E+01 -0.21305313037E+02  0.24460050668E+02  0.00000000000E+00 0.  1.
</event>
<event>
 7    1  0.3758561E-013  0.7246153E+02  0.7816164E-02  0.1226708E+00
        -11   -1    0    0    0    0  0.00000000000E+00  0.00000000000E+00  0.45593999997E+02  0.45594000000E+02  0.51100000000E-03 0.  1.
         11   -1    0    0    0    0 -0.00000000000E+00 -0.00000000000E+00 -0.45593999997E+02  0.45594000000E+02  0.51100000000E-03 0. -1.
    9900012    2    1    2    0    0 -0.69698687606E+01  0.10360218330E+02  0.13955907413E+02  0.72461533539E+02  0.69999952120E+02 0.  0.
        -12    1    1    2    0    0  0.69698687606E+01 -0.10360218330E+02 -0.13955907413E+02  0.18726466461E+02  0.00000000000E+00 0.  1.
         11    1    3    3    0    0 -0.18053681089E+02 -0.15153465092E+02  0.70456847646E+01  0.24600906065E+02  0.51100000000E-03 0. -1.
        -11    1    3    3    0    0 -0.24956653591E+01 -0.92567570038E+01 -0.11987221642E+01  0.96619268731E+01  0.51100000000E-03 0.  1.
        -12    1    3    3    0    0  0.13579477688E+02  0.34770440425E+02  0.81089448129E+01  0.38198700601E+02  0.00000000000E+00 0.  1.
</event>
<event>
 7    1  0.3758561E-013  0.7246154E+02  0.7816164E-02  0.1226708E+00
        -11   -1    0    0    0    0  0.00000000000E+00  0.00000000000E+00  0.45593999997E+02  0.45594000000E+02  0.51100000000E-03 0.  1.
         11   -1    0    0    0    0 -0.00000000000E+00 -0.00000000000E+00 -0.45593999997E+02  0.45594000000E+02  0.51100000000E-03 0. -1.
    9900012    2    1    2    0    0  0.73960924440E+01  0.15487307419E+02  0.74914261873E+01  0.72461539019E+02  0.69999959258E+02 0.  0.
        -12    1    1    2    0    0 -0.73960924440E+01 -0.15487307419E+02 -0.74914261873E+01  0.18726460981E+02  0.00000000000E+00 0.  1.
         11    1    3    3    0    0  0.10650119061E+02  0.16317310189E+02  0.12610630948E+02  0.23210076712E+02  0.51100000000E-03 0. -1.
        -11    1    3    3    0    0 -0.60183828273E+01  0.19745198167E+02  0.10606601682E+02  0.23207623360E+02  0.51100000000E-03 0.  1.
        -12    1    3    3    0    0  0.27643562101E+01 -0.20575200937E+02 -0.15725806443E+02  0.26043838947E+02  0.00000000000E+00 0.  1.
</event>
<event>
 7    1  0.3758561E-013  0.7246156E+02  0.7816164E-02  0.1226708E+00
        -11   -1    0    0    0    0  0.00000000000E+00  0.00000000000E+00  0.45593999997E+02  0.45594000000E+02  0.51100000000E-03 0.  1.
         11   -1    0    0    0    0 -0.00000000000E+00 -0.00000000000E+00 -0.45593999997E+02  0.45594000000E+02  0.51100000000E-03 0. -1.
    9900012    2    1    2    0    0 -0.59761103183E+01 -0.17744972404E+02  0.28568559983E+00  0.72461559965E+02  0.69999986543E+02 0.  0.
        -12    1    1    2    0    0  0.59761103183E+01  0.17744972404E+02 -0.28568559983E+00  0.18726440035E+02  0.00000000000E+00 0.  1.
         11    1    3    3    0    0  0.28340776539E+01  0.44324081032E+01 -0.95503827979E+00  0.53469931848E+01  0.51100000000E-03 0. -1.
        -11    1    3    3    0    0 -0.33448078827E+02  0.58997471942E+00  0.24795232033E+01  0.33545045580E+02  0.51100000000E-03 0.  1.
         12    1    3    3    0    0  0.24637890855E+02 -0.22767355226E+02 -0.12387993237E+01  0.33569521199E+02  0.00000000000E+00 0. -1.
</event>
<event>
 7    1  0.3758561E-013  0.7246158E+02  0.7816164E-02  0.1226708E+00
        -11   -1    0    0    0    0  0.00000000000E+00  0.00000000000E+00  0.45593999997E+02  0.45594000000E+02  0.51100000000E-03 0. -1.
         11   -1    0    0    0    0 -0.00000000000E+00 -0.00000000000E+00 -0.45593999997E+02  0.45594000000E+02  0.51100000000E-03 0.  1.
    9900012    2    1    2    0    0 -0.94040213695E+01 -0.13382354052E+02  0.91189885531E+01  0.72461575618E+02  0.70000006935E+02 0.  0.
        -12    1    1    2    0    0  0.94040213695E+01  0.13382354052E+02 -0.91189885531E+01  0.18726424382E+02  0.00000000000E+00 0.  1.
         11    1    3    3    0    0 -0.99239264735E+01  0.31291910884E+01  0.22260750019E+01  0.10641032078E+02  0.51100000000E-03 0. -1.
        -11    1    3    3    0    0 -0.28434632751E+02 -0.10589686327E+02 -0.33842958039E+01  0.30530693647E+02  0.51100000000E-03 0.  1.
        -12    1    3    3    0    0  0.28954537855E+02 -0.59218588137E+01  0.10277209355E+02  0.31289849893E+02  0.00000000000E+00 0.  1.
</event>
<event>
 7    1  0.3758561E-013  0.7246161E+02  0.7816164E-02  0.1226708E+00
        -11   -1    0    0    0    0  0.00000000000E+00  0.00000000000E+00  0.45593999997E+02  0.45594000000E+02  0.51100000000E-03 0. -1.
         11   -1    0    0    0    0 -0.00000000000E+00 -0.00000000000E+00 -0.45593999997E+02  0.45594000000E+02  0.51100000000E-03 0.  1.
    9900012    2    1    2    0    0 -0.46623458521E+01 -0.10979395046E+02  0.14435829491E+02  0.72461607996E+02  0.70000049113E+02 0.  0.
        -12    1    1    2    0    0  0.46623458521E+01  0.10979395046E+02 -0.14435829491E+02  0.18726392004E+02  0.00000000000E+00 0.  1.
         11    1    3    3    0    0 -0.37165634970E+01 -0.29995301334E+02 -0.76380450547E-01  0.30224770977E+02  0.51100000000E-03 0. -1.
        -11    1    3    3    0    0 -0.41594533697E+01  0.14561570508E+02 -0.93185203258E+01  0.17781316299E+02  0.51100000000E-03 0.  1.
        -12    1    3    3    0    0  0.32136710146E+01  0.44543357804E+01  0.23830730267E+02  0.24455520720E+02  0.00000000000E+00 0.  1.
</event>
<event>
 7    1  0.3758561E-013  0.7246161E+02  0.7816164E-02  0.1226708E+00
        -11   -1    0    0    0    0  0.00000000000E+00  0.00000000000E+00  0.45593999997E+02  0.45594000000E+02  0.51100000000E-03 0.  1.
         11   -1    0    0    0    0 -0.00000000000E+00 -0.00000000000E+00 -0.45593999997E+02  0.45594000000E+02  0.51100000000E-03 0. -1.
    9900012    2    1    2    0    0 -0.70415716606E+01  0.10161107732E+02 -0.14065771602E+02  0.72461607594E+02  0.70000048590E+02 0.  0.
        -12    1    1    2    0    0  0.70415716606E+01 -0.10161107732E+02  0.14065771602E+02  0.18726392406E+02  0.00000000000E+00 0.  1.
         11    1    3    3    0    0  0.16595278643E+02  0.28505753168E+02 -0.11345008459E+02  0.34881090208E+02  0.51100000000E-03 0. -1.
        -11    1    3    3    0    0  0.28535507364E+01  0.22976140570E+01 -0.15464716213E+01  0.39766011740E+01  0.51100000000E-03 0.  1.
        -12    1    3    3    0    0 -0.26490401040E+02 -0.20642259493E+02 -0.11742915216E+01  0.33603916212E+02  0.00000000000E+00 0.  1.
</event>
<event>
 7    1  0.3758561E-013  0.7246164E+02  0.7816164E-02  0.1226708E+00
        -11   -1    0    0    0    0  0.00000000000E+00  0.00000000000E+00  0.45593999997E+02  0.45594000000E+02  0.51100000000E-03 0.  1.
         11   -1    0    0    0    0 -0.00000000000E+00 -0.00000000000E+00 -0.45593999997E+02  0.45594000000E+02  0.51100000000E-03 0. -1.
    9900012    2    1    2    0    0 -0.95918789204E+01  0.69492347172E+00 -0.16068276458E+02  0.72461639751E+02  0.70000090480E+02 0.  0.
        -12    1    1    2    0    0  0.95918789204E+01 -0.69492347172E+00  0.16068276458E+02  0.18726360249E+02  0.00000000000E+00 0.  1.
         11    1    3    3    0    0 -0.10345084214E+02  0.46225435380E+01  0.12755202513E+02  0.17061180134E+02  0.51100000000E-03 0.  1.
        -11    1    3    3    0    0 -0.42813541253E+01  0.12825512727E+02  0.72258569350E+01  0.15330909254E+02  0.51100000000E-03 0. -1.
         12    1    3    3    0    0  0.50345594191E+01 -0.16753132794E+02 -0.36049335906E+02  0.40069550362E+02  0.00000000000E+00 0. -1.
</event>
<event>
 7    1  0.3758561E-013  0.7246154E+02  0.7816164E-02  0.1226708E+00
        -11   -1    0    0    0    0  0.00000000000E+00  0.00000000000E+00  0.45593999997E+02  0.45594000000E+02  0.51100000000E-03 0. -1.
         11   -1    0    0    0    0 -0.00000000000E+00 -0.00000000000E+00 -0.45593999997E+02  0.45594000000E+02  0.51100000000E-03 0.  1.
    9900012    2    1    2    0    0  0.10444311942E+02 -0.14420055447E+02  0.58015997264E+01  0.72461542502E+02  0.69999963795E+02 0.  0.
        -12    1    1    2    0    0 -0.10444311942E+02  0.14420055447E+02 -0.58015997264E+01  0.18726457498E+02  0.00000000000E+00 0.  1.
         11    1    3    3    0    0  0.62197435447E+01  0.14143711731E+02 -0.10761145488E+01  0.15488312176E+02  0.51100000000E-03 0. -1.
        -11    1    3    3    0    0 -0.21618632157E+02 -0.11526225612E+02 -0.25084648113E+01  0.24627454784E+02  0.51100000000E-03 0.  1.
         12    1    3    3    0    0  0.25843200555E+02 -0.17037541566E+02  0.93861790865E+01  0.32345775541E+02  0.00000000000E+00 0. -1.
</event>
<event>
 7    1  0.3758561E-013  0.7246157E+02  0.7816164E-02  0.1226708E+00
        -11   -1    0    0    0    0  0.00000000000E+00  0.00000000000E+00  0.45593999997E+02  0.45594000000E+02  0.51100000000E-03 0.  1.
         11   -1    0    0    0    0 -0.00000000000E+00 -0.00000000000E+00 -0.45593999997E+02  0.45594000000E+02  0.51100000000E-03 0. -1.
    9900012    2    1    2    0    0 -0.47633112259E+01  0.14721687784E+02 -0.10548084548E+02  0.72461566472E+02  0.69999995021E+02 0.  0.
        -12    1    1    2    0    0  0.47633112259E+01 -0.14721687784E+02  0.10548084548E+02  0.18726433528E+02  0.00000000000E+00 0.  1.
         11    1    3    3    0    0 -0.95688811867E+01 -0.63024617269E+01 -0.75517807323E+01  0.13722751308E+02  0.51100000000E-03 0. -1.
        -11    1    3    3    0    0 -0.10833119644E+02 -0.22125824515E+01 -0.22184627831E+02  0.24787289375E+02  0.51100000000E-03 0.  1.
        -12    1    3    3    0    0  0.15638689605E+02  0.23236731962E+02  0.19188324015E+02  0.33951525788E+02  0.00000000000E+00 0.  1.
</event>
<event>
 7    1  0.3758561E-013  0.7246155E+02  0.7816164E-02  0.1226708E+00
        -11   -1    0    0    0    0  0.00000000000E+00  0.00000000000E+00  0.45593999997E+02  0.45594000000E+02  0.51100000000E-03 0. -1.
         11   -1    0    0    0    0 -0.00000000000E+00 -0.00000000000E+00 -0.45593999997E+02  0.45594000000E+02  0.51100000000E-03 0.  1.
    9900012    2    1    2    0    0 -0.28427574783E+01  0.36456267354E+01  0.18146847754E+02  0.72461549515E+02  0.69999972931E+02 0.  0.
        -12    1    1    2    0    0  0.28427574783E+01 -0.36456267354E+01 -0.18146847754E+02  0.18726450485E+02  0.00000000000E+00 0.  1.
         11    1    3    3    0    0  0.11303775627E+02  0.12493819990E+02  0.14639062165E+02  0.22319789934E+02  0.51100000000E-03 0.  1.
        -11    1    3    3    0    0  0.54246246317E+01  0.74519460464E+01 -0.15724030396E+02  0.18226441903E+02  0.51100000000E-03 0. -1.
         12    1    3    3    0    0 -0.19571157737E+02 -0.16300139301E+02  0.19231815985E+02  0.31915317678E+02  0.00000000000E+00 0. -1.
</event>
<event>
 7    1  0.3758561E-013  0.7246127E+02  0.7816164E-02  0.1226709E+00
        -11   -1    0    0    0    0  0.00000000000E+00  0.00000000000E+00  0.45593999997E+02  0.45594000000E+02  0.51100000000E-03 0.  1.
         11   -1    0    0    0    0 -0.00000000000E+00 -0.00000000000E+00 -0.45593999997E+02  0.45594000000E+02  0.51100000000E-03 0. -1.
    9900012    2    1    2    0    0  0.40682848327E+01 -0.11583533584E+02 -0.14140765674E+02  0.72461269222E+02  0.69999607797E+02 0.  0.
        -12    1    1    2    0    0 -0.40682848327E+01  0.11583533584E+02  0.14140765674E+02  0.18726730778E+02  0.00000000000E+00 0.  1.
         11    1    3    3    0    0 -0.18218922669E+02  0.64828508668E+01 -0.37269510195E+01  0.19693822959E+02  0.51100000000E-03 0. -1.
        -11    1    3    3    0    0 -0.82927569059E+01 -0.17384955018E+02 -0.10986504879E+02  0.22174529709E+02  0.51100000000E-03 0.  1.
        -12    1    3    3    0    0  0.30579964408E+02 -0.68142943231E+00  0.57269022454E+00  0.30592916555E+02  0.00000000000E+00 0.  1.
</event>
<event>
 7    1  0.3758561E-013  0.7246157E+02  0.7816164E-02  0.1226708E+00
        -11   -1    0    0    0    0  0.00000000000E+00  0.00000000000E+00  0.45593999997E+02  0.45594000000E+02  0.51100000000E-03 0. -1.
         11   -1    0    0    0    0 -0.00000000000E+00 -0.00000000000E+00 -0.45593999997E+02  0.45594000000E+02  0.51100000000E-03 0.  1.
    9900012    2    1    2    0    0 -0.12422741247E+02 -0.79986803141E+01  0.11505469388E+02  0.72461569141E+02  0.69999998498E+02 0.  0.
        -12    1    1    2    0    0  0.12422741247E+02  0.79986803141E+01 -0.11505469388E+02  0.18726430859E+02  0.00000000000E+00 0.  1.
         11    1    3    3    0    0 -0.12496279957E+02 -0.35094051257E+01  0.10151156082E+02  0.16477830778E+02  0.51100000000E-03 0. -1.
        -11    1    3    3    0    0  0.11944759063E+02 -0.25952293610E+02  0.95504930516E+01  0.30123258962E+02  0.51100000000E-03 0.  1.
         12    1    3    3    0    0 -0.11871220353E+02  0.21463018422E+02 -0.81961797454E+01  0.25860479401E+02  0.00000000000E+00 0. -1.
</event>
<event>
 7    1  0.3758561E-013  0.7246159E+02  0.7816164E-02  0.1226708E+00
        -11   -1    0    0    0    0  0.00000000000E+00  0.00000000000E+00  0.45593999997E+02  0.45594000000E+02  0.51100000000E-03 0. -1.
         11   -1    0    0    0    0 -0.00000000000E+00 -0.00000000000E+00 -0.45593999997E+02  0.45594000000E+02  0.51100000000E-03 0.  1.
    9900012    2    1    2    0    0 -0.14620888721E+02 -0.49981289062E+01  0.10579538071E+02  0.72461593368E+02  0.70000030058E+02 0.  0.
        -12    1    1    2    0    0  0.14620888721E+02  0.49981289062E+01 -0.10579538071E+02  0.18726406632E+02  0.00000000000E+00 0.  1.
         11    1    3    3    0    0  0.84744314591E+01 -0.96492631525E+01 -0.70600395054E+01  0.14654979564E+02  0.51100000000E-03 0. -1.
        -11    1    3    3    0    0 -0.11178390359E+02 -0.22563322740E+02  0.10289002208E+02  0.27201535081E+02  0.51100000000E-03 0.  1.
         12    1    3    3    0    0 -0.11916929822E+02  0.27214456986E+02  0.73505753683E+01  0.30605078723E+02  0.00000000000E+00 0. -1.
</event>
<event>
 7    1  0.3758561E-013  0.7246157E+02  0.7816164E-02  0.1226708E+00
        -11   -1    0    0    0    0  0.00000000000E+00  0.00000000000E+00  0.45593999997E+02  0.45594000000E+02  0.51100000000E-03 0.  1.
         11   -1    0    0    0    0 -0.00000000000E+00 -0.00000000000E+00 -0.45593999997E+02  0.45594000000E+02  0.51100000000E-03 0. -1.
    9900012    2    1    2    0    0 -0.11530098572E+02  0.14259566436E+02 -0.37948587460E+01  0.72461565184E+02  0.69999993343E+02 0.  0.
        -12    1    1    2    0    0  0.11530098572E+02 -0.14259566436E+02  0.37948587460E+01  0.18726434816E+02  0.00000000000E+00 0.  1.
         11    1    3    3    0    0  0.18682285239E+02  0.73472555456E+01 -0.62880352492E+01  0.21036856546E+02  0.51100000000E-03 0. -1.
        -11    1    3    3    0    0  0.66330261602E+01 -0.81811383656E+01  0.47284707103E+01  0.11544977112E+02  0.51100000000E-03 0.  1.
         12    1    3    3    0    0 -0.36845409971E+02  0.15093449256E+02 -0.22352942072E+01  0.39879731526E+02  0.00000000000E+00 0. -1.
</event>
<event>
 7    1  0.3758561E-013  0.7246154E+02  0.7816164E-02  0.1226708E+00
        -11   -1    0    0    0    0  0.00000000000E+00  0.00000000000E+00  0.45593999997E+02  0.45594000000E+02  0.51100000000E-03 0.  1.
         11   -1    0    0    0    0 -0.00000000000E+00 -0.00000000000E+00 -0.45593999997E+02  0.45594000000E+02  0.51100000000E-03 0. -1.
    9900012    2    1    2    0    0 -0.53385088937E+01  0.12171652814E+02  0.13192103338E+02  0.72461537443E+02  0.69999957205E+02 0.  0.
        -12    1    1    2    0    0  0.53385088937E+01 -0.12171652814E+02 -0.13192103338E+02  0.18726462557E+02  0.00000000000E+00 0.  1.
         11    1    3    3    0    0  0.59259694846E+01 -0.23518891363E+02 -0.37650086488E+01  0.24544462831E+02  0.51100000000E-03 0. -1.
        -11    1    3    3    0    0 -0.15456782353E+02  0.18076590459E+02  0.10355919521E+01  0.23806463288E+02  0.51100000000E-03 0.  1.
        -12    1    3    3    0    0  0.41923039751E+01  0.17613953718E+02  0.15921520035E+02  0.24110611324E+02  0.00000000000E+00 0.  1.
</event>
<event>
 7    1  0.3758561E-013  0.7246139E+02  0.7816164E-02  0.1226709E+00
        -11   -1    0    0    0    0  0.00000000000E+00  0.00000000000E+00  0.45593999997E+02  0.45594000000E+02  0.51100000000E-03 0. -1.
         11   -1    0    0    0    0 -0.00000000000E+00 -0.00000000000E+00 -0.45593999997E+02  0.45594000000E+02  0.51100000000E-03 0.  1.
    9900012    2    1    2    0    0 -0.44870290075E+01  0.10590158702E+02  0.14778401885E+02  0.72461386507E+02  0.69999760583E+02 0.  0.
        -12    1    1    2    0    0  0.44870290075E+01 -0.10590158702E+02 -0.14778401885E+02  0.18726613493E+02  0.00000000000E+00 0.  1.
         11    1    3    3    0    0  0.21153602258E+01 -0.97815055932E+01  0.60813400214E+01  0.11710478097E+02  0.51100000000E-03 0. -1.
        -11    1    3    3    0    0  0.20036107470E+02 -0.49616438265E+01 -0.54708485172E+01  0.21354008893E+02  0.51100000000E-03 0.  1.
         12    1    3    3    0    0 -0.26638496704E+02  0.25333308121E+02  0.14167910381E+02  0.39396899517E+02  0.00000000000E+00 0. -1.
</event>
<event>
 7    1  0.3758561E-013  0.7246158E+02  0.7816164E-02  0.1226708E+00
        -11   -1    0    0    0    0  0.00000000000E+00  0.00000000000E+00  0.45593999997E+02  0.45594000000E+02  0.51100000000E-03 0.  1.
         11   -1    0    0    0    0 -0.00000000000E+00 -0.00000000000E+00 -0.45593999997E+02  0.45594000000E+02  0.51100000000E-03 0. -1.
    9900012    2    1    2    0    0  0.25798960562E+01  0.16886824969E+02 -0.76719022954E+01  0.72461580000E+02  0.70000012643E+02 0.  0.
        -12    1    1    2    0    0 -0.25798960562E+01 -0.16886824969E+02  0.76719022954E+01  0.18726420000E+02  0.00000000000E+00 0.  1.
         11    1    3    3    0    0 -0.39353489056E+00 -0.13219992556E+02 -0.92603090495E+01  0.16145476049E+02  0.51100000000E-03 0. -1.
        -11    1    3    3    0    0  0.16357478987E+02 -0.28687825946E+01 -0.93836839201E+01  0.19074867144E+02  0.51100000000E-03 0.  1.
         12    1    3    3    0    0 -0.13384048040E+02  0.32975600119E+02  0.10972090674E+02  0.37241236807E+02  0.00000000000E+00 0. -1.
</event>
<event>
 7    1  0.3758561E-013  0.7246157E+02  0.7816164E-02  0.1226708E+00
        -11   -1    0    0    0    0  0.00000000000E+00  0.00000000000E+00  0.45593999997E+02  0.45594000000E+02  0.51100000000E-03 0. -1.
         11   -1    0    0    0    0 -0.00000000000E+00 -0.00000000000E+00 -0.45593999997E+02  0.45594000000E+02  0.51100000000E-03 0.  1.
    9900012    2    1    2    0    0  0.30465833348E+01 -0.18113421596E+02  0.36471115781E+01  0.72461571222E+02  0.70000001208E+02 0.  0.
        -12    1    1    2    0    0 -0.30465833348E+01  0.18113421596E+02 -0.36471115781E+01  0.18726428778E+02  0.00000000000E+00 0.  1.
         11    1    3    3    0    0  0.15095442157E+02 -0.20511178836E+02  0.16840564572E+02  0.30531712145E+02  0.51100000000E-03 0. -1.
        -11    1    3    3    0    0 -0.14146544874E+02 -0.55843600246E+01  0.93978743188E+01  0.17878194840E+02  0.51100000000E-03 0.  1.
        -12    1    3    3    0    0  0.20976860521E+01  0.79821172646E+01 -0.22591327313E+02  0.24051664237E+02  0.00000000000E+00 0.  1.
</event>
<event>
 7    1  0.3758561E-013  0.7246157E+02  0.7816164E-02  0.1226708E+00
        -11   -1    0    0    0    0  0.00000000000E+00  0.00000000000E+00  0.45593999997E+02  0.45594000000E+02  0.51100000000E-03 0.  1.
         11   -1    0    0    0    0 -0.00000000000E+00 -0.00000000000E+00 -0.45593999997E+02  0.45594000000E+02  0.51100000000E-03 0. -1.
    9900012    2    1    2    0    0  0.15056467792E+02  0.39136198183E+01 -0.10424273699E+02  0.72461571494E+02  0.70000001563E+02 0.  0.
        -12    1    1    2    0    0 -0.15056467792E+02 -0.39136198183E+01  0.10424273699E+02  0.18726428506E+02  0.00000000000E+00 0.  1.
         11    1    3    3    0    0  0.10425051759E+02  0.13432546171E+02 -0.46903653880E+01  0.17638438948E+02  0.51100000000E-03 0. -1.
        -11    1    3    3    0    0  0.12203166414E+02  0.73123940919E+01  0.19141222838E+02  0.23848999767E+02  0.51100000000E-03 0.  1.
         12    1    3    3    0    0 -0.75717503813E+01 -0.16831320444E+02 -0.24875131149E+02  0.30974132779E+02  0.00000000000E+00 0. -1.
</event>
<event>
 7    1  0.3758561E-013  0.7246153E+02  0.7816164E-02  0.1226708E+00
        -11   -1    0    0    0    0  0.00000000000E+00  0.00000000000E+00  0.45593999997E+02  0.45594000000E+02  0.51100000000E-03 0.  1.
         11   -1    0    0    0    0 -0.00000000000E+00 -0.00000000000E+00 -0.45593999997E+02  0.45594000000E+02  0.51100000000E-03 0. -1.
    9900012    2    1    2    0    0  0.10463667788E+02 -0.90486368724E+01 -0.12621980889E+02  0.72461532784E+02  0.69999951136E+02 0.  0.
        -12    1    1    2    0    0 -0.10463667788E+02  0.90486368724E+01  0.12621980889E+02  0.18726467216E+02  0.00000000000E+00 0.  1.
         11    1    3    3    0    0  0.31507821923E+02  0.19527641404E+01 -0.17180672735E+02  0.35940668413E+02  0.51100000000E-03 0. -1.
        -11    1    3    3    0    0 -0.10007971779E+02  0.17032047413E+01 -0.10013823400E+02  0.14259630601E+02  0.51100000000E-03 0.  1.
        -12    1    3    3    0    0 -0.11036182356E+02 -0.12704605754E+02  0.14572515246E+02  0.22261233770E+02  0.00000000000E+00 0.  1.
</event>
<event>
 7    1  0.3758561E-013  0.7246161E+02  0.7816164E-02  0.1226708E+00
        -11   -1    0    0    0    0  0.00000000000E+00  0.00000000000E+00  0.45593999997E+02  0.45594000000E+02  0.51100000000E-03 0. -1.
         11   -1    0    0    0    0 -0.00000000000E+00 -0.00000000000E+00 -0.45593999997E+02  0.45594000000E+02  0.51100000000E-03 0.  1.
    9900012    2    1    2    0    0  0.15304025412E+01 -0.75541828240E+00  0.18648458239E+02  0.72461607304E+02  0.70000048212E+02 0.  0.
        -12    1    1    2    0    0 -0.15304025412E+01  0.75541828240E+00 -0.18648458239E+02  0.18726392696E+02  0.00000000000E+00 0.  1.
         11    1    3    3    0    0  0.13820813438E+02 -0.15490172229E+01  0.31705420179E+01  0.14264174543E+02  0.51100000000E-03 0. -1.
        -11    1    3    3    0    0  0.17193698356E+02  0.38117080282E+01 -0.89820648233E+01  0.19769417543E+02  0.51100000000E-03 0.  1.
        -12    1    3    3    0    0 -0.29484109253E+02 -0.30181090876E+01  0.24459981044E+02  0.38428015218E+02  0.00000000000E+00 0.  1.
</event>
<event>
 7    1  0.3758561E-013  0.7246147E+02  0.7816164E-02  0.1226708E+00
        -11   -1    0    0    0    0  0.00000000000E+00  0.00000000000E+00  0.45593999997E+02  0.45594000000E+02  0.51100000000E-03 0. -1.
         11   -1    0    0    0    0 -0.00000000000E+00 -0.00000000000E+00 -0.45593999997E+02  0.45594000000E+02  0.51100000000E-03 0.  1.
    9900012    2    1    2    0    0 -0.13650663956E+02  0.10545502089E+02  0.72893626554E+01  0.72461466721E+02  0.69999865076E+02 0.  0.
        -12    1    1    2    0    0  0.13650663956E+02 -0.10545502089E+02 -0.72893626554E+01  0.18726533279E+02  0.00000000000E+00 0.  1.
         11    1    3    3    0    0 -0.16239698461E+02  0.25850974371E+02  0.15113093303E+02  0.34064736480E+02  0.51100000000E-03 0. -1.
        -11    1    3    3    0    0  0.12940534736E+02  0.18796655035E+01  0.56346741336E+01  0.14238684438E+02  0.51100000000E-03 0.  1.
        -12    1    3    3    0    0 -0.10351500231E+02 -0.17185137786E+02 -0.13458404781E+02  0.24158045803E+02  0.00000000000E+00 0.  1.
</event>
<event>
 7    1  0.3758561E-013  0.7246156E+02  0.7816164E-02  0.1226708E+00
        -11   -1    0    0    0    0  0.00000000000E+00  0.00000000000E+00  0.45593999997E+02  0.45594000000E+02  0.51100000000E-03 0.  1.
         11   -1    0    0    0    0 -0.00000000000E+00 -0.00000000000E+00 -0.45593999997E+02  0.45594000000E+02  0.51100000000E-03 0. -1.
    9900012    2    1    2    0    0 -0.17630094722E+02  0.60140736506E+01 -0.19209966904E+01  0.72461560133E+02  0.69999986763E+02 0.  0.
        -12    1    1    2    0    0  0.17630094722E+02 -0.60140736506E+01  0.19209966904E+01  0.18726439867E+02  0.00000000000E+00 0.  1.
         11    1    3    3    0    0  0.12549234863E+02 -0.12328517084E+02 -0.12357535582E+02  0.21498472389E+02  0.51100000000E-03 0. -1.
        -11    1    3    3    0    0 -0.96744409438E+01 -0.68897416777E+01 -0.72855019838E+01  0.13933480806E+02  0.51100000000E-03 0.  1.
        -12    1    3    3    0    0 -0.20504888642E+02  0.25232332412E+02  0.17722040875E+02  0.37029606938E+02  0.00000000000E+00 0.  1.
</event>
<event>
 7    1  0.3758561E-013  0.7246157E+02  0.7816164E-02  0.1226708E+00
        -11   -1    0    0    0    0  0.00000000000E+00  0.00000000000E+00  0.45593999997E+02  0.45594000000E+02  0.51100000000E-03 0. -1.
         11   -1    0    0    0    0 -0.00000000000E+00 -0.00000000000E+00 -0.45593999997E+02  0.45594000000E+02  0.51100000000E-03 0.  1.
    9900012    2    1    2    0    0  0.13127103822E+02  0.16506808275E+01  0.13252683556E+02  0.72461568856E+02  0.69999998126E+02 0.  0.
        -12    1    1    2    0    0 -0.13127103822E+02 -0.16506808275E+01 -0.13252683556E+02  0.18726431144E+02  0.00000000000E+00 0.  1.
         11    1    3    3    0    0  0.17679233162E+02 -0.14853263924E+02  0.37217434700E+01  0.23388589293E+02  0.51100000000E-03 0. -1.
        -11    1    3    3    0    0  0.96922965945E+01 -0.11844799548E+02 -0.17415087801E+01  0.15403660042E+02  0.51100000000E-03 0.  1.
        -12    1    3    3    0    0 -0.14244425934E+02  0.28348744299E+02  0.11272448867E+02  0.33669319521E+02  0.00000000000E+00 0.  1.
</event>
<event>
 7    1  0.3758561E-013  0.7246202E+02  0.7816164E-02  0.1226707E+00
        -11   -1    0    0    0    0  0.00000000000E+00  0.00000000000E+00  0.45593999997E+02  0.45594000000E+02  0.51100000000E-03 0.  1.
         11   -1    0    0    0    0 -0.00000000000E+00 -0.00000000000E+00 -0.45593999997E+02  0.45594000000E+02  0.51100000000E-03 0. -1.
    9900012    2    1    2    0    0 -0.16861215135E+01 -0.15326777859E+02 -0.10625879126E+02  0.72462017182E+02  0.70000582152E+02 0.  0.
        -12    1    1    2    0    0  0.16861215135E+01  0.15326777859E+02  0.10625879126E+02  0.18725982818E+02  0.00000000000E+00 0.  1.
         11    1    3    3    0    0 -0.20059056548E+00 -0.18118441207E+02  0.19217465367E+02  0.26412669758E+02  0.51100000000E-03 0. -1.
        -11    1    3    3    0    0  0.59050681377E+01  0.37232471460E+01  0.61437660375E+01  0.92993688177E+01  0.51100000000E-03 0.  1.
         12    1    3    3    0    0 -0.73905990857E+01 -0.93158379883E+00 -0.35987110531E+02  0.36749978606E+02  0.00000000000E+00 0. -1.
</event>
<event>
 7    1  0.3758561E-013  0.7246188E+02  0.7816164E-02  0.1226707E+00
        -11   -1    0    0    0    0  0.00000000000E+00  0.00000000000E+00  0.45593999997E+02  0.45594000000E+02  0.51100000000E-03 0. -1.
         11   -1    0    0    0    0 -0.00000000000E+00 -0.00000000000E+00 -0.45593999997E+02  0.45594000000E+02  0.51100000000E-03 0.  1.
    9900012    2    1    2    0    0  0.10184707909E+02 -0.10274684587E+02  0.11889914879E+02  0.72461882026E+02  0.70000406087E+02 0.  0.
        -12    1    1    2    0    0 -0.10184707909E+02  0.10274684587E+02 -0.11889914879E+02  0.18726117974E+02  0.00000000000E+00 0.  1.
         11    1    3    3    0    0  0.14767414521E+02 -0.91543401374E+01  0.26592107561E+02  0.31765054066E+02  0.51100000000E-03 0. -1.
        -11    1    3    3    0    0 -0.13383322704E+02  0.80102098568E+01  0.57572461305E+01  0.16625963786E+02  0.51100000000E-03 0.  1.
         12    1    3    3    0    0  0.88006160923E+01 -0.91305543066E+01 -0.20459438813E+02  0.24070864174E+02  0.00000000000E+00 0. -1.
</event>
<event>
 7    1  0.3758561E-013  0.7246139E+02  0.7816164E-02  0.1226708E+00
        -11   -1    0    0    0    0  0.00000000000E+00  0.00000000000E+00  0.45593999997E+02  0.45594000000E+02  0.51100000000E-03 0.  1.
         11   -1    0    0    0    0 -0.00000000000E+00 -0.00000000000E+00 -0.45593999997E+02  0.45594000000E+02  0.51100000000E-03 0. -1.
    9900012    2    1    2    0    0 -0.15099997950E+02  0.75305661578E+01 -0.81219735562E+01  0.72461392748E+02  0.69999768712E+02 0.  0.
        -12    1    1    2    0    0  0.15099997950E+02 -0.75305661578E+01  0.81219735562E+01  0.18726607252E+02  0.00000000000E+00 0.  1.
         11    1    3    3    0    0 -0.17083937235E+01  0.28052634197E+00 -0.45311516732E+01  0.48506329370E+01  0.51100000000E-03 0. -1.
        -11    1    3    3    0    0 -0.55234013303E+01  0.28344718782E+02 -0.23750289167E+02  0.37389935556E+02  0.51100000000E-03 0.  1.
         12    1    3    3    0    0 -0.78682028959E+01 -0.21094678966E+02  0.20159467284E+02  0.30220824255E+02  0.00000000000E+00 0. -1.
</event>
<event>
 7    1  0.3758561E-013  0.7246155E+02  0.7816164E-02  0.1226708E+00
        -11   -1    0    0    0    0  0.00000000000E+00  0.00000000000E+00  0.45593999997E+02  0.45594000000E+02  0.51100000000E-03 0. -1.
         11   -1    0    0    0    0 -0.00000000000E+00 -0.00000000000E+00 -0.45593999997E+02  0.45594000000E+02  0.51100000000E-03 0.  1.
    9900012    2    1    2    0    0 -0.16903834941E+02 -0.36394641890E+01  0.71898993012E+01  0.72461548461E+02  0.69999971558E+02 0.  0.
        -12    1    1    2    0    0  0.16903834941E+02  0.36394641890E+01 -0.71898993012E+01  0.18726451539E+02  0.00000000000E+00 0.  1.
         11    1    3    3    0    0 -0.32141660496E+02  0.17257450468E+02  0.16650433616E+02  0.40101656773E+02  0.51100000000E-03 0. -1.
        -11    1    3    3    0    0 -0.15326364038E+00 -0.47431160302E+00  0.36073605535E+01  0.36416358500E+01  0.51100000000E-03 0.  1.
        -12    1    3    3    0    0  0.15391089196E+02 -0.20422603054E+02 -0.13067894868E+02  0.28718255838E+02  0.00000000000E+00 0.  1.
</event>
<event>
 7    1  0.3758561E-013  0.7246154E+02  0.7816164E-02  0.1226708E+00
        -11   -1    0    0    0    0  0.00000000000E+00  0.00000000000E+00  0.45593999997E+02  0.45594000000E+02  0.51100000000E-03 0.  1.
         11   -1    0    0    0    0 -0.00000000000E+00 -0.00000000000E+00 -0.45593999997E+02  0.45594000000E+02  0.51100000000E-03 0. -1.
    9900012    2    1    2    0    0 -0.25558074699E+01  0.17278550897E+01 -0.18470584600E+02  0.72461544636E+02  0.69999966575E+02 0.  0.
        -12    1    1    2    0    0  0.25558074699E+01 -0.17278550897E+01  0.18470584600E+02  0.18726455364E+02  0.00000000000E+00 0.  1.
         11    1    3    3    0    0  0.77632669273E+01  0.17475696487E+02 -0.10506948660E+02  0.21818896661E+02  0.51100000000E-03 0. -1.
        -11    1    3    3    0    0  0.31499520589E+01  0.81396136368E+01 -0.19134946109E+02  0.21031444815E+02  0.51100000000E-03 0.  1.
        -12    1    3    3    0    0 -0.13469026456E+02 -0.23887455034E+02  0.11171310169E+02  0.29611203160E+02  0.00000000000E+00 0.  1.
</event>
<event>
 7    1  0.3758561E-013  0.7246156E+02  0.7816164E-02  0.1226708E+00
        -11   -1    0    0    0    0  0.00000000000E+00  0.00000000000E+00  0.45593999997E+02  0.45594000000E+02  0.51100000000E-03 0.  1.
         11   -1    0    0    0    0 -0.00000000000E+00 -0.00000000000E+00 -0.45593999997E+02  0.45594000000E+02  0.51100000000E-03 0. -1.
    9900012    2    1    2    0    0  0.16905545858E+02  0.80482796258E+01 -0.32741333639E+00  0.72461561866E+02  0.69999989021E+02 0.  0.
        -12    1    1    2    0    0 -0.16905545858E+02 -0.80482796258E+01  0.32741333639E+00  0.18726438134E+02  0.00000000000E+00 0.  1.
         11    1    3    3    0    0  0.28212333547E+01 -0.82479708586E+01 -0.19266940391E+02  0.21147183576E+02  0.51100000000E-03 0. -1.
        -11    1    3    3    0    0  0.14249002149E+02 -0.10418603976E+02 -0.14442806049E+01  0.17710655487E+02  0.51100000000E-03 0.  1.
         12    1    3    3    0    0 -0.16468964616E+00  0.26714854461E+02  0.20383807659E+02  0.33603722803E+02  0.00000000000E+00 0. -1.
</event>
<event>
 7    1  0.3758561E-013  0.7246156E+02  0.7816164E-02  0.1226708E+00
        -11   -1    0    0    0    0  0.00000000000E+00  0.00000000000E+00  0.45593999997E+02  0.45594000000E+02  0.51100000000E-03 0.  1.
         11   -1    0    0    0    0 -0.00000000000E+00 -0.00000000000E+00 -0.45593999997E+02  0.45594000000E+02  0.51100000000E-03 0. -1.
    9900012    2    1    2    0    0 -0.43310592394E+01 -0.15484438529E+02 -0.95996644704E+01  0.72461562308E+02  0.69999989596E+02 0.  0.
        -12    1    1    2    0    0  0.43310592394E+01  0.15484438529E+02  0.95996644704E+01  0.18726437692E+02  0.00000000000E+00 0.  1.
         11    1    3    3    0    0  0.10368079674E+02 -0.11200459829E+02  0.40086463152E+01  0.15780260519E+02  0.51100000000E-03 0. -1.
        -11    1    3    3    0    0  0.81955613771E+01 -0.23403140101E+02 -0.95783016767E+01  0.26582288391E+02  0.51100000000E-03 0.  1.
         12    1    3    3    0    0 -0.22894700290E+02  0.19119161401E+02 -0.40300091088E+01  0.30099013397E+02  0.00000000000E+00 0. -1.
</event>
<event>
 7    1  0.3758561E-013  0.7246157E+02  0.7816164E-02  0.1226708E+00
        -11   -1    0    0    0    0  0.00000000000E+00  0.00000000000E+00  0.45593999997E+02  0.45594000000E+02  0.51100000000E-03 0.  1.
         11   -1    0    0    0    0 -0.00000000000E+00 -0.00000000000E+00 -0.45593999997E+02  0.45594000000E+02  0.51100000000E-03 0. -1.
    9900012    2    1    2    0    0  0.17993584469E+02 -0.43472781765E+01  0.28304428755E+01  0.72461566371E+02  0.69999994890E+02 0.  0.
        -12    1    1    2    0    0 -0.17993584469E+02  0.43472781765E+01 -0.28304428755E+01  0.18726433629E+02  0.00000000000E+00 0.  1.
         11    1    3    3    0    0 -0.10201049788E+02 -0.10899089175E+02  0.19559671212E+01  0.15055808489E+02  0.51100000000E-03 0. -1.
        -11    1    3    3    0    0 -0.53380537609E+01  0.20007216653E+02  0.41749624945E+01  0.21123774479E+02  0.51100000000E-03 0.  1.
         12    1    3    3    0    0  0.33532688017E+02 -0.13455405655E+02 -0.33004867402E+01  0.36281983404E+02  0.00000000000E+00 0. -1.
</event>
<event>
 7    1  0.3758561E-013  0.7246159E+02  0.7816164E-02  0.1226708E+00
        -11   -1    0    0    0    0  0.00000000000E+00  0.00000000000E+00  0.45593999997E+02  0.45594000000E+02  0.51100000000E-03 0.  1.
         11   -1    0    0    0    0 -0.00000000000E+00 -0.00000000000E+00 -0.45593999997E+02  0.45594000000E+02  0.51100000000E-03 0. -1.
    9900012    2    1    2    0    0 -0.15675222393E+02 -0.99371923455E+01 -0.24936160886E+01  0.72461587904E+02  0.70000022940E+02 0.  0.
        -12    1    1    2    0    0  0.15675222393E+02  0.99371923455E+01  0.24936160886E+01  0.18726412096E+02  0.00000000000E+00 0.  1.
         11    1    3    3    0    0 -0.16991207124E+02  0.79067786559E+00 -0.22374251956E+02  0.28105754604E+02  0.51100000000E-03 0. -1.
        -11    1    3    3    0    0  0.18448517073E+02 -0.76790467932E+01  0.31754742902E+01  0.20233615077E+02  0.51100000000E-03 0.  1.
        -12    1    3    3    0    0 -0.17132532343E+02 -0.30488234179E+01  0.16705161577E+02  0.24122218223E+02  0.00000000000E+00 0.  1.
</event>
<event>
 7    1  0.3758561E-013  0.7246157E+02  0.7816164E-02  0.1226708E+00
        -11   -1    0    0    0    0  0.00000000000E+00  0.00000000000E+00  0.45593999997E+02  0.45594000000E+02  0.51100000000E-03 0.  1.
         11   -1    0    0    0    0 -0.00000000000E+00 -0.00000000000E+00 -0.45593999997E+02  0.45594000000E+02  0.51100000000E-03 0. -1.
    9900012    2    1    2    0    0 -0.13579799443E+02  0.58746102324E+01 -0.11478560849E+02  0.72461565277E+02  0.69999993463E+02 0.  0.
        -12    1    1    2    0    0  0.13579799443E+02 -0.58746102324E+01  0.11478560849E+02  0.18726434723E+02  0.00000000000E+00 0.  1.
         11    1    3    3    0    0 -0.21916178390E+02  0.11040545479E+02  0.22035677060E+02  0.32981564297E+02  0.51100000000E-03 0. -1.
        -11    1    3    3    0    0  0.24062702150E+01 -0.65805272122E+01 -0.18673434318E+01  0.72512375834E+01  0.51100000000E-03 0.  1.
        -12    1    3    3    0    0  0.59301087327E+01  0.14145919656E+01 -0.31646894477E+02  0.32228763397E+02  0.00000000000E+00 0.  1.
</event>
<event>
 7    1  0.3758561E-013  0.7246152E+02  0.7816164E-02  0.1226708E+00
        -11   -1    0    0    0    0  0.00000000000E+00  0.00000000000E+00  0.45593999997E+02  0.45594000000E+02  0.51100000000E-03 0.  1.
         11   -1    0    0    0    0 -0.00000000000E+00 -0.00000000000E+00 -0.45593999997E+02  0.45594000000E+02  0.51100000000E-03 0. -1.
    9900012    2    1    2    0    0 -0.16133804172E+02 -0.76439159943E+01 -0.56526176280E+01  0.72461516752E+02  0.69999930251E+02 0.  0.
        -12    1    1    2    0    0  0.16133804172E+02  0.76439159943E+01  0.56526176280E+01  0.18726483248E+02  0.00000000000E+00 0.  1.
         11    1    3    3    0    0 -0.85592622337E+01 -0.21112637670E+02  0.88346651992E+01  0.24434724243E+02  0.51100000000E-03 0. -1.
        -11    1    3    3    0    0  0.89305925610E+01 -0.53338630513E+01  0.89665721180E+01  0.13733353354E+02  0.51100000000E-03 0.  1.
         12    1    3    3    0    0 -0.16505134500E+02  0.18802584727E+02 -0.23453854945E+02  0.34293439155E+02  0.00000000000E+00 0. -1.
</event>
<event>
 7    1  0.3758561E-013  0.7246154E+02  0.7816164E-02  0.1226708E+00
        -11   -1    0    0    0    0  0.00000000000E+00  0.00000000000E+00  0.45593999997E+02  0.45594000000E+02  0.51100000000E-03 0.  1.
         11   -1    0    0    0    0 -0.00000000000E+00 -0.00000000000E+00 -0.45593999997E+02  0.45594000000E+02  0.51100000000E-03 0. -1.
    9900012    2    1    2    0    0  0.14598526672E+02 -0.38444808392E+00  0.11722431566E+02  0.72461543231E+02  0.69999964744E+02 0.  0.
        -12    1    1    2    0    0 -0.14598526672E+02  0.38444808392E+00 -0.11722431566E+02  0.18726456769E+02  0.00000000000E+00 0.  1.
         11    1    3    3    0    0  0.40166492084E+01  0.17951964190E+02  0.26025071447E+02  0.31870218594E+02  0.51100000000E-03 0.  1.
        -11    1    3    3    0    0  0.14577083327E+02  0.39863496731E+01 -0.37053579559E+01  0.15559949225E+02  0.51100000000E-03 0. -1.
         12    1    3    3    0    0 -0.39952058633E+01 -0.22322761947E+02 -0.10597281925E+02  0.25031375412E+02  0.00000000000E+00 0. -1.
</event>
<event>
 7    1  0.3758561E-013  0.7246158E+02  0.7816164E-02  0.1226708E+00
        -11   -1    0    0    0    0  0.00000000000E+00  0.00000000000E+00  0.45593999997E+02  0.45594000000E+02  0.51100000000E-03 0.  1.
         11   -1    0    0    0    0 -0.00000000000E+00 -0.00000000000E+00 -0.45593999997E+02  0.45594000000E+02  0.51100000000E-03 0. -1.
    9900012    2    1    2    0    0 -0.19610600496E+01  0.18307144171E+02 -0.34178110118E+01  0.72461582395E+02  0.70000015763E+02 0.  0.
        -12    1    1    2    0    0  0.19610600496E+01 -0.18307144171E+02  0.34178110118E+01  0.18726417605E+02  0.00000000000E+00 0.  1.
         11    1    3    3    0    0 -0.23812064985E+01  0.19621882268E+02 -0.15506599460E+02  0.25122560283E+02  0.51100000000E-03 0. -1.
        -11    1    3    3    0    0 -0.19159463855E+02  0.10380228396E+02  0.11235238158E+02  0.24516622391E+02  0.51100000000E-03 0.  1.
        -12    1    3    3    0    0  0.19579610304E+02 -0.11694966492E+02  0.85355028997E+00  0.22822399720E+02  0.00000000000E+00 0.  1.
</event>
<event>
 7    1  0.3758561E-013  0.7246154E+02  0.7816164E-02  0.1226708E+00
        -11   -1    0    0    0    0  0.00000000000E+00  0.00000000000E+00  0.45593999997E+02  0.45594000000E+02  0.51100000000E-03 0. -1.
         11   -1    0    0    0    0 -0.00000000000E+00 -0.00000000000E+00 -0.45593999997E+02  0.45594000000E+02  0.51100000000E-03 0.  1.
    9900012    2    1    2    0    0  0.85652555467E+01 -0.15601094838E+02  0.58242987094E+01  0.72461542295E+02  0.69999963526E+02 0.  0.
        -12    1    1    2    0    0 -0.85652555467E+01  0.15601094838E+02 -0.58242987094E+01  0.18726457705E+02  0.00000000000E+00 0.  1.
         11    1    3    3    0    0  0.12280062703E+02 -0.15795454709E+02 -0.25939863207E+01  0.20174862942E+02  0.51100000000E-03 0. -1.
        -11    1    3    3    0    0  0.19778932625E+01 -0.22354131213E+01 -0.21514543454E+02  0.21720605743E+02  0.51100000000E-03 0.  1.
         12    1    3    3    0    0 -0.56927004193E+01  0.24297729923E+01  0.29932828484E+02  0.30566073609E+02  0.00000000000E+00 0. -1.
</event>
<event>
 7    1  0.3758561E-013  0.7246160E+02  0.7816164E-02  0.1226708E+00
        -11   -1    0    0    0    0  0.00000000000E+00  0.00000000000E+00  0.45593999997E+02  0.45594000000E+02  0.51100000000E-03 0.  1.
         11   -1    0    0    0    0 -0.00000000000E+00 -0.00000000000E+00 -0.45593999997E+02  0.45594000000E+02  0.51100000000E-03 0. -1.
    9900012    2    1    2    0    0 -0.39549271981E+01 -0.17079410152E+02 -0.65825871654E+01  0.72461597407E+02  0.70000035319E+02 0.  0.
        -12    1    1    2    0    0  0.39549271981E+01  0.17079410152E+02  0.65825871654E+01  0.18726402593E+02  0.00000000000E+00 0.  1.
         11    1    3    3    0    0 -0.10087107699E+02 -0.47285304372E+01 -0.72197775856E+01  0.13275312820E+02  0.51100000000E-03 0. -1.
        -11    1    3    3    0    0 -0.13640680082E+00  0.23127680475E+02 -0.61793852880E+00  0.23136336340E+02  0.51100000000E-03 0.  1.
        -12    1    3    3    0    0  0.62685873020E+01 -0.35478560190E+02  0.12551289490E+01  0.36049948246E+02  0.00000000000E+00 0.  1.
</event>
<event>
 7    1  0.3758561E-013  0.7246116E+02  0.7816164E-02  0.1226709E+00
        -11   -1    0    0    0    0  0.00000000000E+00  0.00000000000E+00  0.45593999997E+02  0.45594000000E+02  0.51100000000E-03 0.  1.
         11   -1    0    0    0    0 -0.00000000000E+00 -0.00000000000E+00 -0.45593999997E+02  0.45594000000E+02  0.51100000000E-03 0. -1.
    9900012    2    1    2    0    0  0.16827318377E+02 -0.62855404495E+01  0.52941195805E+01  0.72461164586E+02  0.69999471487E+02 0.  0.
        -12    1    1    2    0    0 -0.16827318377E+02  0.62855404495E+01 -0.52941195805E+01  0.18726835414E+02  0.00000000000E+00 0.  1.
         11    1    3    3    0    0  0.32573174316E+00 -0.49741310306E+01  0.49750778323E+01  0.70426898538E+01  0.51100000000E-03 0. -1.
        -11    1    3    3    0    0 -0.17255373589E+02 -0.57336627608E+01  0.19236686873E+02  0.26470227208E+02  0.51100000000E-03 0.  1.
         12    1    3    3    0    0  0.33756960223E+02  0.44222533419E+01 -0.18917645125E+02  0.38948247524E+02  0.00000000000E+00 0. -1.
</event>
<event>
 7    1  0.3758561E-013  0.7246158E+02  0.7816164E-02  0.1226708E+00
        -11   -1    0    0    0    0  0.00000000000E+00  0.00000000000E+00  0.45593999997E+02  0.45594000000E+02  0.51100000000E-03 0.  1.
         11   -1    0    0    0    0 -0.00000000000E+00 -0.00000000000E+00 -0.45593999997E+02  0.45594000000E+02  0.51100000000E-03 0. -1.
    9900012    2    1    2    0    0  0.16781779864E+02  0.13090080862E+01 -0.82059160898E+01  0.72461582926E+02  0.70000016455E+02 0.  0.
        -12    1    1    2    0    0 -0.16781779864E+02 -0.13090080862E+01  0.82059160898E+01  0.18726417074E+02  0.00000000000E+00 0.  1.
         11    1    3    3    0    0  0.90289122614E+01 -0.62655950326E+01  0.89715138702E+01  0.14186860087E+02  0.51100000000E-03 0. -1.
        -11    1    3    3    0    0  0.29717972389E+02  0.21681185729E+01 -0.19383276028E+02  0.35546729960E+02  0.51100000000E-03 0.  1.
         12    1    3    3    0    0 -0.21965104786E+02  0.54064845458E+01  0.22058460678E+01  0.22727992879E+02  0.00000000000E+00 0. -1.
</event>
<event>
 7    1  0.3758561E-013  0.7246157E+02  0.7816164E-02  0.1226708E+00
        -11   -1    0    0    0    0  0.00000000000E+00  0.00000000000E+00  0.45593999997E+02  0.45594000000E+02  0.51100000000E-03 0. -1.
         11   -1    0    0    0    0 -0.00000000000E+00 -0.00000000000E+00 -0.45593999997E+02  0.45594000000E+02  0.51100000000E-03 0.  1.
    9900012    2    1    2    0    0 -0.61091026339E+01 -0.15527815826E+02 -0.84997053017E+01  0.72461569760E+02  0.69999999304E+02 0.  0.
        -12    1    1    2    0    0  0.61091026339E+01  0.15527815826E+02  0.84997053017E+01  0.18726430240E+02  0.00000000000E+00 0.  1.
         11    1    3    3    0    0 -0.57421934848E+01 -0.16078511695E+02  0.20309208820E+02  0.26532155727E+02  0.51100000000E-03 0. -1.
        -11    1    3    3    0    0 -0.17406217860E+02  0.16100676481E+01 -0.86216267616E+01  0.19491054007E+02  0.51100000000E-03 0.  1.
         12    1    3    3    0    0  0.17039308711E+02 -0.10593717796E+01 -0.20187287361E+02  0.26438360026E+02  0.00000000000E+00 0. -1.
</event>
<event>
 7    1  0.3758561E-013  0.7246151E+02  0.7816164E-02  0.1226708E+00
        -11   -1    0    0    0    0  0.00000000000E+00  0.00000000000E+00  0.45593999997E+02  0.45594000000E+02  0.51100000000E-03 0.  1.
         11   -1    0    0    0    0 -0.00000000000E+00 -0.00000000000E+00 -0.45593999997E+02  0.45594000000E+02  0.51100000000E-03 0. -1.
    9900012    2    1    2    0    0 -0.91212812122E+01  0.16266172312E+02 -0.17015744481E+01  0.72461508384E+02  0.69999919350E+02 0.  0.
        -12    1    1    2    0    0  0.91212812122E+01 -0.16266172312E+02  0.17015744481E+01  0.18726491616E+02  0.00000000000E+00 0.  1.
         11    1    3    3    0    0  0.14384984016E+02  0.19979941680E+02  0.20390403838E+02  0.31967083126E+02  0.51100000000E-03 0. -1.
        -11    1    3    3    0    0 -0.91725935776E+00 -0.10242866653E+02 -0.84484465865E+01  0.13309167216E+02  0.51100000000E-03 0.  1.
         12    1    3    3    0    0 -0.22589005871E+02  0.65290972849E+01 -0.13643531699E+02  0.27185258042E+02  0.00000000000E+00 0. -1.
</event>
<event>
 7    1  0.3758561E-013  0.7246177E+02  0.7816164E-02  0.1226707E+00
        -11   -1    0    0    0    0  0.00000000000E+00  0.00000000000E+00  0.45593999997E+02  0.45594000000E+02  0.51100000000E-03 0. -1.
         11   -1    0    0    0    0 -0.00000000000E+00 -0.00000000000E+00 -0.45593999997E+02  0.45594000000E+02  0.51100000000E-03 0.  1.
    9900012    2    1    2    0    0 -0.95980668807E+01 -0.15275273321E+02  0.50214199651E+01  0.72461774503E+02  0.70000266020E+02 0.  0.
        -12    1    1    2    0    0  0.95980668807E+01  0.15275273321E+02 -0.50214199651E+01  0.18726225497E+02  0.00000000000E+00 0.  1.
         11    1    3    3    0    0  0.60468555078E+01  0.76144940891E+01  0.23433706335E+02  0.25370919861E+02  0.51100000000E-03 0. -1.
        -11    1    3    3    0    0 -0.27043491611E+01  0.73514350762E+01 -0.10776630119E+02  0.13322644597E+02  0.51100000000E-03 0.  1.
        -12    1    3    3    0    0 -0.12940573227E+02 -0.30241202487E+02 -0.76356562502E+01  0.33768210045E+02  0.00000000000E+00 0.  1.
</event>
<event>
 7    1  0.3758561E-013  0.7246121E+02  0.7816164E-02  0.1226709E+00
        -11   -1    0    0    0    0  0.00000000000E+00  0.00000000000E+00  0.45593999997E+02  0.45594000000E+02  0.51100000000E-03 0. -1.
         11   -1    0    0    0    0 -0.00000000000E+00 -0.00000000000E+00 -0.45593999997E+02  0.45594000000E+02  0.51100000000E-03 0.  1.
    9900012    2    1    2    0    0 -0.62937689714E+01 -0.82051738618E+01  0.15612697969E+02  0.72461207860E+02  0.69999527861E+02 0.  0.
        -12    1    1    2    0    0  0.62937689714E+01  0.82051738618E+01 -0.15612697969E+02  0.18726792140E+02  0.00000000000E+00 0.  1.
         11    1    3    3    0    0 -0.62657624505E+01  0.12337858899E+02  0.27326366936E+02  0.30630260715E+02  0.51100000000E-03 0. -1.
        -11    1    3    3    0    0  0.13326527429E+02 -0.10495707282E+02  0.55063312117E+01  0.17834682176E+02  0.51100000000E-03 0.  1.
         12    1    3    3    0    0 -0.13354533949E+02 -0.10047325479E+02 -0.17220000179E+02  0.23996264969E+02  0.00000000000E+00 0. -1.
</event>
<event>
 7    1  0.3758561E-013  0.7246157E+02  0.7816164E-02  0.1226708E+00
        -11   -1    0    0    0    0  0.00000000000E+00  0.00000000000E+00  0.45593999997E+02  0.45594000000E+02  0.51100000000E-03 0.  1.
         11   -1    0    0    0    0 -0.00000000000E+00 -0.00000000000E+00 -0.45593999997E+02  0.45594000000E+02  0.51100000000E-03 0. -1.
    9900012    2    1    2    0    0 -0.10714835888E+01  0.50629928060E+01 -0.17997148003E+02  0.72461566558E+02  0.69999995133E+02 0.  0.
        -12    1    1    2    0    0  0.10714835888E+01 -0.50629928060E+01  0.17997148003E+02  0.18726433442E+02  0.00000000000E+00 0.  1.
         11    1    3    3    0    0  0.16942875553E+02  0.91922476171E+00  0.38382397405E+01  0.17396496507E+02  0.51100000000E-03 0. -1.
        -11    1    3    3    0    0 -0.92062082618E+01  0.59695941958E+01  0.14187906712E+02  0.17935635549E+02  0.51100000000E-03 0.  1.
         12    1    3    3    0    0 -0.88081508794E+01 -0.18258261516E+01 -0.36023294455E+02  0.37129434502E+02  0.00000000000E+00 0. -1.
</event>
<event>
 7    1  0.3758561E-013  0.7246157E+02  0.7816164E-02  0.1226708E+00
        -11   -1    0    0    0    0  0.00000000000E+00  0.00000000000E+00  0.45593999997E+02  0.45594000000E+02  0.51100000000E-03 0.  1.
         11   -1    0    0    0    0 -0.00000000000E+00 -0.00000000000E+00 -0.45593999997E+02  0.45594000000E+02  0.51100000000E-03 0. -1.
    9900012    2    1    2    0    0 -0.74232170289E+01  0.47554543077E+01 -0.16521526738E+02  0.72461565676E+02  0.69999993983E+02 0.  0.
        -12    1    1    2    0    0  0.74232170289E+01 -0.47554543077E+01  0.16521526738E+02  0.18726434324E+02  0.00000000000E+00 0.  1.
         11    1    3    3    0    0 -0.11027384333E+02  0.23789223765E+02  0.21363380783E+00  0.26221670661E+02  0.51100000000E-03 0. -1.
        -11    1    3    3    0    0  0.20560335268E+02 -0.51721830854E+01 -0.79457319795E+01  0.22640969969E+02  0.51100000000E-03 0.  1.
         12    1    3    3    0    0 -0.16956167964E+02 -0.13861586372E+02 -0.87894285667E+01  0.23598925045E+02  0.00000000000E+00 0. -1.
</event>
<event>
 7    1  0.3758561E-013  0.7246159E+02  0.7816164E-02  0.1226708E+00
        -11   -1    0    0    0    0  0.00000000000E+00  0.00000000000E+00  0.45593999997E+02  0.45594000000E+02  0.51100000000E-03 0.  1.
         11   -1    0    0    0    0 -0.00000000000E+00 -0.00000000000E+00 -0.45593999997E+02  0.45594000000E+02  0.51100000000E-03 0. -1.
    9900012    2    1    2    0    0  0.72627440891E+01 -0.17105636490E+02  0.23082508066E+01  0.72461594226E+02  0.70000031176E+02 0.  0.
        -12    1    1    2    0    0 -0.72627440891E+01  0.17105636490E+02 -0.23082508066E+01  0.18726405774E+02  0.00000000000E+00 0.  1.
         11    1    3    3    0    0 -0.16320099450E+02 -0.17516768517E+02 -0.49105432515E+01  0.24439645264E+02  0.51100000000E-03 0. -1.
        -11    1    3    3    0    0 -0.36632258186E+01 -0.94799655362E+01  0.14899558139E+02  0.18035681383E+02  0.51100000000E-03 0.  1.
        -12    1    3    3    0    0  0.27246069358E+02  0.98910975635E+01 -0.76807640807E+01  0.29986267579E+02  0.00000000000E+00 0.  1.
</event>
<event>
 7    1  0.3758561E-013  0.7246155E+02  0.7816164E-02  0.1226708E+00
        -11   -1    0    0    0    0  0.00000000000E+00  0.00000000000E+00  0.45593999997E+02  0.45594000000E+02  0.51100000000E-03 0.  1.
         11   -1    0    0    0    0 -0.00000000000E+00 -0.00000000000E+00 -0.45593999997E+02  0.45594000000E+02  0.51100000000E-03 0. -1.
    9900012    2    1    2    0    0  0.16883417937E+02  0.73372833294E+01  0.34343056286E+01  0.72461548573E+02  0.69999971704E+02 0.  0.
        -12    1    1    2    0    0 -0.16883417937E+02 -0.73372833294E+01 -0.34343056286E+01  0.18726451427E+02  0.00000000000E+00 0.  1.
         11    1    3    3    0    0  0.11679848687E+02  0.21329129862E+02  0.11409084328E+02  0.26861084332E+02  0.51100000000E-03 0. -1.
        -11    1    3    3    0    0 -0.27932253531E+00  0.15085598960E+02 -0.57385483495E+00  0.15099093572E+02  0.51100000000E-03 0.  1.
         12    1    3    3    0    0  0.54828917847E+01 -0.29077445492E+02 -0.74009238648E+01  0.30501370670E+02  0.00000000000E+00 0. -1.
</event>
<event>
 7    1  0.3758561E-013  0.7246158E+02  0.7816164E-02  0.1226708E+00
        -11   -1    0    0    0    0  0.00000000000E+00  0.00000000000E+00  0.45593999997E+02  0.45594000000E+02  0.51100000000E-03 0.  1.
         11   -1    0    0    0    0 -0.00000000000E+00 -0.00000000000E+00 -0.45593999997E+02  0.45594000000E+02  0.51100000000E-03 0. -1.
    9900012    2    1    2    0    0  0.20908612724E+01  0.12321369054E+02 -0.13945996667E+02  0.72461583918E+02  0.70000017748E+02 0.  0.
        -12    1    1    2    0    0 -0.20908612724E+01 -0.12321369054E+02  0.13945996667E+02  0.18726416082E+02  0.00000000000E+00 0.  1.
         11    1    3    3    0    0 -0.10979484050E+02  0.26163180428E+02 -0.31324278910E+01  0.28545983691E+02  0.51100000000E-03 0. -1.
        -11    1    3    3    0    0 -0.60991830717E+01 -0.11161022209E+01 -0.18614597565E+02  0.19620116235E+02  0.51100000000E-03 0.  1.
        -12    1    3    3    0    0  0.19169528394E+02 -0.12725709153E+02  0.78010287886E+01  0.24295483993E+02  0.00000000000E+00 0.  1.
</event>
<event>
 7    1  0.3758561E-013  0.7246143E+02  0.7816164E-02  0.1226708E+00
        -11   -1    0    0    0    0  0.00000000000E+00  0.00000000000E+00  0.45593999997E+02  0.45594000000E+02  0.51100000000E-03 0.  1.
         11   -1    0    0    0    0 -0.00000000000E+00 -0.00000000000E+00 -0.45593999997E+02  0.45594000000E+02  0.51100000000E-03 0. -1.
    9900012    2    1    2    0    0 -0.10813482427E+01  0.15691503505E+02 -0.10163260990E+02  0.72461428765E+02  0.69999815631E+02 0.  0.
        -12    1    1    2    0    0  0.10813482427E+01 -0.15691503505E+02  0.10163260990E+02  0.18726571235E+02  0.00000000000E+00 0.  1.
         11    1    3    3    0    0  0.59924296516E+01 -0.20044723655E+02 -0.12000639518E+02  0.24118779169E+02  0.51100000000E-03 0. -1.
        -11    1    3    3    0    0  0.75653333504E+01 -0.60472058771E+00  0.49171227169E+01  0.90431217932E+01  0.51100000000E-03 0.  1.
         12    1    3    3    0    0 -0.14639111245E+02  0.36340947747E+02 -0.30797441895E+01  0.39299527802E+02  0.00000000000E+00 0. -1.
</event>
<event>
 7    1  0.3758561E-013  0.7246153E+02  0.7816164E-02  0.1226708E+00
        -11   -1    0    0    0    0  0.00000000000E+00  0.00000000000E+00  0.45593999997E+02  0.45594000000E+02  0.51100000000E-03 0.  1.
         11   -1    0    0    0    0 -0.00000000000E+00 -0.00000000000E+00 -0.45593999997E+02  0.45594000000E+02  0.51100000000E-03 0. -1.
    9900012    2    1    2    0    0 -0.13361508384E+01 -0.73793211553E+01 -0.17159284005E+02  0.72461529235E+02  0.69999946512E+02 0.  0.
        -12    1    1    2    0    0  0.13361508384E+01  0.73793211553E+01  0.17159284005E+02  0.18726470765E+02  0.00000000000E+00 0.  1.
         11    1    3    3    0    0 -0.30058372350E+01  0.24109766969E+01 -0.74271883090E+01  0.83672571703E+01  0.51100000000E-03 0. -1.
        -11    1    3    3    0    0 -0.29619012577E+02 -0.77177646251E+01  0.18562271494E+01  0.30664236112E+02  0.51100000000E-03 0.  1.
        -12    1    3    3    0    0  0.31288698973E+02 -0.20725332271E+01 -0.11588322845E+02  0.33430035953E+02  0.00000000000E+00 0.  1.
</event>
<event>
 7    1  0.3758561E-013  0.7246146E+02  0.7816164E-02  0.1226708E+00
        -11   -1    0    0    0    0  0.00000000000E+00  0.00000000000E+00  0.45593999997E+02  0.45594000000E+02  0.51100000000E-03 0.  1.
         11   -1    0    0    0    0 -0.00000000000E+00 -0.00000000000E+00 -0.45593999997E+02  0.45594000000E+02  0.51100000000E-03 0. -1.
    9900012    2    1    2    0    0  0.10676704451E+02  0.88987682430E+01 -0.12550026566E+02  0.72461461052E+02  0.69999857691E+02 0.  0.
        -12    1    1    2    0    0 -0.10676704451E+02 -0.88987682430E+01  0.12550026566E+02  0.18726538948E+02  0.00000000000E+00 0.  1.
         11    1    3    3    0    0 -0.16046686164E+02  0.23749904894E+02  0.38774556601E+01  0.28923844523E+02  0.51100000000E-03 0.  1.
        -11    1    3    3    0    0  0.56257322658E+01 -0.66975053359E+01 -0.18859238747E+02  0.20788851041E+02  0.51100000000E-03 0. -1.
        -12    1    3    3    0    0  0.21097658349E+02 -0.81536313148E+01  0.24317565209E+01  0.22748765488E+02  0.00000000000E+00 0.  1.
</event>
<event>
 7    1  0.3758561E-013  0.7246154E+02  0.7816164E-02  0.1226708E+00
        -11   -1    0    0    0    0  0.00000000000E+00  0.00000000000E+00  0.45593999997E+02  0.45594000000E+02  0.51100000000E-03 0. -1.
         11   -1    0    0    0    0 -0.00000000000E+00 -0.00000000000E+00 -0.45593999997E+02  0.45594000000E+02  0.51100000000E-03 0.  1.
    9900012    2    1    2    0    0  0.31536917522E+01 -0.89098910719E+01  0.16166274604E+02  0.72461538371E+02  0.69999958413E+02 0.  0.
        -12    1    1    2    0    0 -0.31536917522E+01  0.89098910719E+01 -0.16166274604E+02  0.18726461629E+02  0.00000000000E+00 0.  1.
         11    1    3    3    0    0  0.12487784755E+02  0.74330831330E+01  0.20375604925E+02  0.25027200588E+02  0.51100000000E-03 0. -1.
        -11    1    3    3    0    0  0.12124898463E+01  0.97532181644E+01  0.11558279807E+02  0.15171988286E+02  0.51100000000E-03 0.  1.
         12    1    3    3    0    0 -0.10546582849E+02 -0.26096192369E+02 -0.15767610127E+02  0.32262349497E+02  0.00000000000E+00 0. -1.
</event>
<event>
 7    1  0.3758561E-013  0.7246161E+02  0.7816164E-02  0.1226708E+00
        -11   -1    0    0    0    0  0.00000000000E+00  0.00000000000E+00  0.45593999997E+02  0.45594000000E+02  0.51100000000E-03 0.  1.
         11   -1    0    0    0    0 -0.00000000000E+00 -0.00000000000E+00 -0.45593999997E+02  0.45594000000E+02  0.51100000000E-03 0. -1.
    9900012    2    1    2    0    0  0.63437829163E+01  0.16499281359E+02  0.61812339741E+01  0.72461614324E+02  0.70000057357E+02 0.  0.
        -12    1    1    2    0    0 -0.63437829163E+01 -0.16499281359E+02 -0.61812339741E+01  0.18726385676E+02  0.00000000000E+00 0.  1.
         11    1    3    3    0    0  0.16397910164E+01  0.12505687685E+02 -0.14608412768E+01  0.12697054641E+02  0.51100000000E-03 0. -1.
        -11    1    3    3    0    0 -0.37208714822E+01  0.16347879731E+02  0.29115341581E+02  0.33597636404E+02  0.51100000000E-03 0.  1.
         12    1    3    3    0    0  0.84248633822E+01 -0.12354286057E+02 -0.21473266330E+02  0.26166923279E+02  0.00000000000E+00 0. -1.
</event>
<event>
 7    1  0.3758561E-013  0.7246158E+02  0.7816164E-02  0.1226708E+00
        -11   -1    0    0    0    0  0.00000000000E+00  0.00000000000E+00  0.45593999997E+02  0.45594000000E+02  0.51100000000E-03 0. -1.
         11   -1    0    0    0    0 -0.00000000000E+00 -0.00000000000E+00 -0.45593999997E+02  0.45594000000E+02  0.51100000000E-03 0.  1.
    9900012    2    1    2    0    0  0.59165169859E+01  0.10801368739E+02  0.14106879239E+02  0.72461580648E+02  0.70000013488E+02 0.  0.
        -12    1    1    2    0    0 -0.59165169859E+01 -0.10801368739E+02 -0.14106879239E+02  0.18726419352E+02  0.00000000000E+00 0.  1.
         11    1    3    3    0    0 -0.41853094820E+01  0.18145246876E+02  0.82820336851E+01  0.20380355293E+02  0.51100000000E-03 0. -1.
        -11    1    3    3    0    0  0.18181397913E+02  0.17496119187E+02 -0.37220690279E+00  0.25235212599E+02  0.51100000000E-03 0.  1.
         12    1    3    3    0    0 -0.80795714450E+01 -0.24839997324E+02  0.61970524568E+01  0.26846012757E+02  0.00000000000E+00 0. -1.
</event>
<event>
 7    1  0.3758561E-013  0.7246142E+02  0.7816164E-02  0.1226708E+00
        -11   -1    0    0    0    0  0.00000000000E+00  0.00000000000E+00  0.45593999997E+02  0.45594000000E+02  0.51100000000E-03 0.  1.
         11   -1    0    0    0    0 -0.00000000000E+00 -0.00000000000E+00 -0.45593999997E+02  0.45594000000E+02  0.51100000000E-03 0. -1.
    9900012    2    1    2    0    0  0.14913662840E+02  0.60110510176E+01 -0.95986797537E+01  0.72461421918E+02  0.69999806712E+02 0.  0.
        -12    1    1    2    0    0 -0.14913662840E+02 -0.60110510176E+01  0.95986797537E+01  0.18726578082E+02  0.00000000000E+00 0.  1.
         11    1    3    3    0    0 -0.23651856641E+00  0.32619797565E+01 -0.18396205412E+02  0.18684668228E+02  0.51100000000E-03 0. -1.
        -11    1    3    3    0    0  0.32402943497E+02  0.46173520552E+01 -0.28849673485E+01  0.32857171578E+02  0.51100000000E-03 0.  1.
        -12    1    3    3    0    0 -0.17252762090E+02 -0.18682807941E+01  0.11682493007E+02  0.20919582112E+02  0.00000000000E+00 0.  1.
</event>
<event>
 7    1  0.3758561E-013  0.7246151E+02  0.7816164E-02  0.1226708E+00
        -11   -1    0    0    0    0  0.00000000000E+00  0.00000000000E+00  0.45593999997E+02  0.45594000000E+02  0.51100000000E-03 0.  1.
         11   -1    0    0    0    0 -0.00000000000E+00 -0.00000000000E+00 -0.45593999997E+02  0.45594000000E+02  0.51100000000E-03 0. -1.
    9900012    2    1    2    0    0 -0.45584964514E+01  0.60091074622E+01 -0.17140366510E+02  0.72461510033E+02  0.69999921498E+02 0.  0.
        -12    1    1    2    0    0  0.45584964514E+01 -0.60091074622E+01  0.17140366510E+02  0.18726489967E+02  0.00000000000E+00 0.  1.
         11    1    3    3    0    0  0.19873205236E+02  0.15427797616E+02 -0.67948670717E+01  0.26060150506E+02  0.51100000000E-03 0. -1.
        -11    1    3    3    0    0 -0.32481650749E+01 -0.18231224635E+01 -0.21123504209E+02  0.21449400509E+02  0.51100000000E-03 0.  1.
        -12    1    3    3    0    0 -0.21183536613E+02 -0.75955676901E+01  0.10778004771E+02  0.24951959017E+02  0.00000000000E+00 0.  1.
</event>
<event>
 7    1  0.3758561E-013  0.7246152E+02  0.7816164E-02  0.1226708E+00
        -11   -1    0    0    0    0  0.00000000000E+00  0.00000000000E+00  0.45593999997E+02  0.45594000000E+02  0.51100000000E-03 0. -1.
         11   -1    0    0    0    0 -0.00000000000E+00 -0.00000000000E+00 -0.45593999997E+02  0.45594000000E+02  0.51100000000E-03 0.  1.
    9900012    2    1    2    0    0  0.90052991057E+01 -0.10519164809E+02 -0.12606853181E+02  0.72461521757E+02  0.69999936771E+02 0.  0.
        -12    1    1    2    0    0 -0.90052991057E+01  0.10519164809E+02  0.12606853181E+02  0.18726478243E+02  0.00000000000E+00 0.  1.
         11    1    3    3    0    0 -0.29739613093E+01  0.39358283427E+01 -0.39980294317E+01  0.63497582797E+01  0.51100000000E-03 0. -1.
        -11    1    3    3    0    0  0.91315867890E+01  0.16559180341E+02 -0.24658715717E+02  0.31074822476E+02  0.51100000000E-03 0.  1.
         12    1    3    3    0    0  0.28476736261E+01 -0.31014173493E+02  0.16049891968E+02  0.35036941001E+02  0.00000000000E+00 0. -1.
</event>
<event>
 7    1  0.3758561E-013  0.7246157E+02  0.7816164E-02  0.1226708E+00
        -11   -1    0    0    0    0  0.00000000000E+00  0.00000000000E+00  0.45593999997E+02  0.45594000000E+02  0.51100000000E-03 0.  1.
         11   -1    0    0    0    0 -0.00000000000E+00 -0.00000000000E+00 -0.45593999997E+02  0.45594000000E+02  0.51100000000E-03 0. -1.
    9900012    2    1    2    0    0 -0.11176134902E+02 -0.23609087588E+01 -0.14839113786E+02  0.72461570029E+02  0.69999999654E+02 0.  0.
        -12    1    1    2    0    0  0.11176134902E+02  0.23609087588E+01  0.14839113786E+02  0.18726429971E+02  0.00000000000E+00 0.  1.
         11    1    3    3    0    0 -0.12960010662E+02  0.14103113711E+02  0.56184002780E+01  0.19960614085E+02  0.51100000000E-03 0. -1.
        -11    1    3    3    0    0  0.13572214160E+00  0.12705588666E+02  0.50924447249E+01  0.13688805550E+02  0.51100000000E-03 0.  1.
        -12    1    3    3    0    0  0.16481536183E+01 -0.29169611135E+02 -0.25549958788E+02  0.38812150394E+02  0.00000000000E+00 0.  1.
</event>
<event>
 7    1  0.3758561E-013  0.7246159E+02  0.7816164E-02  0.1226708E+00
        -11   -1    0    0    0    0  0.00000000000E+00  0.00000000000E+00  0.45593999997E+02  0.45594000000E+02  0.51100000000E-03 0. -1.
         11   -1    0    0    0    0 -0.00000000000E+00 -0.00000000000E+00 -0.45593999997E+02  0.45594000000E+02  0.51100000000E-03 0.  1.
    9900012    2    1    2    0    0 -0.60500966158E+01  0.11884331819E+02  0.13146767170E+02  0.72461588201E+02  0.70000023326E+02 0.  0.
        -12    1    1    2    0    0  0.60500966158E+01 -0.11884331819E+02 -0.13146767170E+02  0.18726411799E+02  0.00000000000E+00 0.  1.
         11    1    3    3    0    0 -0.50503218489E+01  0.54599490266E+00  0.15134284030E+02  0.15964035034E+02  0.51100000000E-03 0. -1.
        -11    1    3    3    0    0 -0.26108870225E+02 -0.25828022792E+01 -0.74477277998E+01  0.27272928366E+02  0.51100000000E-03 0.  1.
         12    1    3    3    0    0  0.25109095458E+02  0.13921139196E+02  0.54602109404E+01  0.29224624801E+02  0.00000000000E+00 0. -1.
</event>
<event>
 7    1  0.3758561E-013  0.7246154E+02  0.7816164E-02  0.1226708E+00
        -11   -1    0    0    0    0  0.00000000000E+00  0.00000000000E+00  0.45593999997E+02  0.45594000000E+02  0.51100000000E-03 0.  1.
         11   -1    0    0    0    0 -0.00000000000E+00 -0.00000000000E+00 -0.45593999997E+02  0.45594000000E+02  0.51100000000E-03 0. -1.
    9900012    2    1    2    0    0 -0.82361124694E+01 -0.48188556447E+01 -0.16112899317E+02  0.72461536299E+02  0.69999955715E+02 0.  0.
        -12    1    1    2    0    0  0.82361124694E+01  0.48188556447E+01  0.16112899317E+02  0.18726463701E+02  0.00000000000E+00 0.  1.
         11    1    3    3    0    0  0.53434410377E+01 -0.57236574853E+01 -0.11866891060E+02  0.14217444243E+02  0.51100000000E-03 0. -1.
        -11    1    3    3    0    0  0.21370663904E+02  0.61532313444E+01 -0.53927982855E+01  0.22883395842E+02  0.51100000000E-03 0.  1.
         12    1    3    3    0    0 -0.34950217411E+02 -0.52484295038E+01  0.11467900277E+01  0.35360696213E+02  0.00000000000E+00 0. -1.
</event>
<event>
 7    1  0.3758561E-013  0.7246157E+02  0.7816164E-02  0.1226708E+00
        -11   -1    0    0    0    0  0.00000000000E+00  0.00000000000E+00  0.45593999997E+02  0.45594000000E+02  0.51100000000E-03 0.  1.
         11   -1    0    0    0    0 -0.00000000000E+00 -0.00000000000E+00 -0.45593999997E+02  0.45594000000E+02  0.51100000000E-03 0. -1.
    9900012    2    1    2    0    0  0.17148308506E+02  0.57049877747E+01  0.49058844093E+01  0.72461572899E+02  0.70000003394E+02 0.  0.
        -12    1    1    2    0    0 -0.17148308506E+02 -0.57049877747E+01 -0.49058844093E+01  0.18726427101E+02  0.00000000000E+00 0.  1.
         11    1    3    3    0    0  0.11440871383E+02 -0.24423810495E+02 -0.84965981327E+01  0.28277344946E+02  0.51100000000E-03 0. -1.
        -11    1    3    3    0    0 -0.19128316063E+01  0.21029221037E+01 -0.77497213443E+01  0.82546585213E+01  0.51100000000E-03 0.  1.
        -12    1    3    3    0    0  0.76202687292E+01  0.28025876166E+02  0.21152203886E+02  0.35929569433E+02  0.00000000000E+00 0.  1.
</event>
<event>
 7    1  0.3758561E-013  0.7246162E+02  0.7816164E-02  0.1226708E+00
        -11   -1    0    0    0    0  0.00000000000E+00  0.00000000000E+00  0.45593999997E+02  0.45594000000E+02  0.51100000000E-03 0.  1.
         11   -1    0    0    0    0 -0.00000000000E+00 -0.00000000000E+00 -0.45593999997E+02  0.45594000000E+02  0.51100000000E-03 0. -1.
    9900012    2    1    2    0    0  0.13015335620E+02 -0.74025196627E+01 -0.11246376174E+02  0.72461621928E+02  0.70000067262E+02 0.  0.
        -12    1    1    2    0    0 -0.13015335620E+02  0.74025196627E+01  0.11246376174E+02  0.18726378072E+02  0.00000000000E+00 0.  1.
         11    1    3    3    0    0 -0.12597042127E+02  0.56024546100E+01 -0.15061169059E+02  0.20418417708E+02  0.51100000000E-03 0. -1.
        -11    1    3    3    0    0 -0.86038496803E+01 -0.87596740636E+01  0.11383761026E+02  0.16743599804E+02  0.51100000000E-03 0.  1.
         12    1    3    3    0    0  0.34216227427E+02 -0.42453002091E+01 -0.75689681412E+01  0.35299604416E+02  0.00000000000E+00 0. -1.
</event>
<event>
 7    1  0.3758561E-013  0.7246158E+02  0.7816164E-02  0.1226708E+00
        -11   -1    0    0    0    0  0.00000000000E+00  0.00000000000E+00  0.45593999997E+02  0.45594000000E+02  0.51100000000E-03 0.  1.
         11   -1    0    0    0    0 -0.00000000000E+00 -0.00000000000E+00 -0.45593999997E+02  0.45594000000E+02  0.51100000000E-03 0. -1.
    9900012    2    1    2    0    0  0.96017725861E+01 -0.90271003237E+01 -0.13303998268E+02  0.72461576236E+02  0.70000007741E+02 0.  0.
        -12    1    1    2    0    0 -0.96017725861E+01  0.90271003237E+01  0.13303998268E+02  0.18726423764E+02  0.00000000000E+00 0.  1.
         11    1    3    3    0    0  0.13310311711E+02 -0.11510822915E+02 -0.21867351504E+02  0.28068567902E+02  0.51100000000E-03 0. -1.
        -11    1    3    3    0    0 -0.77700262200E+01 -0.18040224932E+02 -0.39202297542E+01  0.20029758477E+02  0.51100000000E-03 0.  1.
        -12    1    3    3    0    0  0.40614870954E+01  0.20523947523E+02  0.12483582990E+02  0.24363249857E+02  0.00000000000E+00 0.  1.
</event>
<event>
 7    1  0.3758561E-013  0.7246150E+02  0.7816164E-02  0.1226708E+00
        -11   -1    0    0    0    0  0.00000000000E+00  0.00000000000E+00  0.45593999997E+02  0.45594000000E+02  0.51100000000E-03 0. -1.
         11   -1    0    0    0    0 -0.00000000000E+00 -0.00000000000E+00 -0.45593999997E+02  0.45594000000E+02  0.51100000000E-03 0.  1.
    9900012    2    1    2    0    0 -0.44331921392E+01 -0.14519554103E+02  0.10964078159E+02  0.72461503965E+02  0.69999913593E+02 0.  0.
        -12    1    1    2    0    0  0.44331921392E+01  0.14519554103E+02 -0.10964078159E+02  0.18726496035E+02  0.00000000000E+00 0.  1.
         11    1    3    3    0    0 -0.62278225388E+01 -0.19249860795E+02 -0.91594589387E+01  0.22208975720E+02  0.51100000000E-03 0. -1.
        -11    1    3    3    0    0  0.34053874763E+01 -0.99352309198E+01 -0.11367555827E+02  0.15476653483E+02  0.51100000000E-03 0.  1.
        -12    1    3    3    0    0 -0.16107570767E+01  0.14665537612E+02  0.31491092925E+02  0.34775874761E+02  0.00000000000E+00 0.  1.
</event>
<event>
 7    1  0.3758561E-013  0.7246158E+02  0.7816164E-02  0.1226708E+00
        -11   -1    0    0    0    0  0.00000000000E+00  0.00000000000E+00  0.45593999997E+02  0.45594000000E+02  0.51100000000E-03 0. -1.
         11   -1    0    0    0    0 -0.00000000000E+00 -0.00000000000E+00 -0.45593999997E+02  0.45594000000E+02  0.51100000000E-03 0.  1.
    9900012    2    1    2    0    0  0.63563675226E+01  0.14192083629E+02  0.10433602922E+02  0.72461582410E+02  0.70000015783E+02 0.  0.
        -12    1    1    2    0    0 -0.63563675226E+01 -0.14192083629E+02 -0.10433602922E+02  0.18726417590E+02  0.00000000000E+00 0.  1.
         11    1    3    3    0    0  0.40770023257E+01 -0.14980665668E+02  0.89214935520E+01  0.17906293287E+02  0.51100000000E-03 0. -1.
        -11    1    3    3    0    0 -0.92926086966E+01 -0.90722251082E+01  0.60764618045E+01  0.14338104237E+02  0.51100000000E-03 0.  1.
        -12    1    3    3    0    0  0.11571973893E+02  0.38244974405E+02 -0.45643524350E+01  0.40217184886E+02  0.00000000000E+00 0.  1.
</event>
<event>
 7    1  0.3758561E-013  0.7246156E+02  0.7816164E-02  0.1226708E+00
        -11   -1    0    0    0    0  0.00000000000E+00  0.00000000000E+00  0.45593999997E+02  0.45594000000E+02  0.51100000000E-03 0.  1.
         11   -1    0    0    0    0 -0.00000000000E+00 -0.00000000000E+00 -0.45593999997E+02  0.45594000000E+02  0.51100000000E-03 0. -1.
    9900012    2    1    2    0    0 -0.17506453076E+02 -0.25125047930E+01 -0.61555549470E+01  0.72461563170E+02  0.69999990720E+02 0.  0.
        -12    1    1    2    0    0  0.17506453076E+02  0.25125047930E+01  0.61555549470E+01  0.18726436830E+02  0.00000000000E+00 0.  1.
         11    1    3    3    0    0 -0.15001004462E+02  0.91902507071E+01 -0.57527811494E+01  0.18509060866E+02  0.51100000000E-03 0. -1.
        -11    1    3    3    0    0 -0.35798247350E+01  0.19470086867E+02 -0.87794775746E+01  0.21655915000E+02  0.51100000000E-03 0.  1.
        -12    1    3    3    0    0  0.10743761212E+01 -0.31172842367E+02  0.83767037770E+01  0.32296587304E+02  0.00000000000E+00 0.  1.
</event>
<event>
 7    1  0.3758561E-013  0.7246160E+02  0.7816164E-02  0.1226708E+00
        -11   -1    0    0    0    0  0.00000000000E+00  0.00000000000E+00  0.45593999997E+02  0.45594000000E+02  0.51100000000E-03 0.  1.
         11   -1    0    0    0    0 -0.00000000000E+00 -0.00000000000E+00 -0.45593999997E+02  0.45594000000E+02  0.51100000000E-03 0. -1.
    9900012    2    1    2    0    0 -0.11591323934E+02 -0.62700535789E+01 -0.13304350146E+02  0.72461598978E+02  0.70000037366E+02 0.  0.
        -12    1    1    2    0    0  0.11591323934E+02  0.62700535789E+01  0.13304350146E+02  0.18726401022E+02  0.00000000000E+00 0.  1.
         11    1    3    3    0    0  0.13922088645E+01  0.11847334628E+02 -0.10413069288E+02  0.15834443330E+02  0.51100000000E-03 0. -1.
        -11    1    3    3    0    0 -0.20823887826E+02  0.33527753141E+01 -0.19220936933E+02  0.28536289586E+02  0.51100000000E-03 0.  1.
        -12    1    3    3    0    0  0.78403550277E+01 -0.21470163521E+02  0.16329656075E+02  0.28090866062E+02  0.00000000000E+00 0.  1.
</event>
<event>
 7    1  0.3758561E-013  0.7246152E+02  0.7816164E-02  0.1226708E+00
        -11   -1    0    0    0    0  0.00000000000E+00  0.00000000000E+00  0.45593999997E+02  0.45594000000E+02  0.51100000000E-03 0. -1.
         11   -1    0    0    0    0 -0.00000000000E+00 -0.00000000000E+00 -0.45593999997E+02  0.45594000000E+02  0.51100000000E-03 0.  1.
    9900012    2    1    2    0    0 -0.11363253383E+02  0.28179860075E+01  0.14615623800E+02  0.72461520575E+02  0.69999935232E+02 0.  0.
        -12    1    1    2    0    0  0.11363253383E+02 -0.28179860075E+01 -0.14615623800E+02  0.18726479425E+02  0.00000000000E+00 0.  1.
         11    1    3    3    0    0  0.18285053090E+02  0.12095228713E+02  0.54669662898E+01  0.22594810130E+02  0.51100000000E-03 0. -1.
        -11    1    3    3    0    0 -0.13924346947E+02  0.97536666402E+01  0.16920402397E+02  0.23985859759E+02  0.51100000000E-03 0.  1.
        -12    1    3    3    0    0 -0.15723959525E+02 -0.19030909346E+02 -0.77717448871E+01  0.25880850687E+02  0.00000000000E+00 0.  1.
</event>
<event>
 7    1  0.3758561E-013  0.7246159E+02  0.7816164E-02  0.1226708E+00
        -11   -1    0    0    0    0  0.00000000000E+00  0.00000000000E+00  0.45593999997E+02  0.45594000000E+02  0.51100000000E-03 0.  1.
         11   -1    0    0    0    0 -0.00000000000E+00 -0.00000000000E+00 -0.45593999997E+02  0.45594000000E+02  0.51100000000E-03 0. -1.
    9900012    2    1    2    0    0  0.13759525991E+02 -0.84225110915E+01 -0.95086993333E+01  0.72461585191E+02  0.70000019406E+02 0.  0.
        -12    1    1    2    0    0 -0.13759525991E+02  0.84225110915E+01  0.95086993333E+01  0.18726414809E+02  0.00000000000E+00 0.  1.
         11    1    3    3    0    0 -0.49117146599E+01 -0.37233512941E+01 -0.17841177225E+01  0.64164914141E+01  0.51100000000E-03 0. -1.
        -11    1    3    3    0    0 -0.19317262605E+02  0.87516712694E+01  0.81669006443E+01  0.22725462612E+02  0.51100000000E-03 0.  1.
         12    1    3    3    0    0  0.37988503256E+02 -0.13450831067E+02 -0.15891482255E+02  0.43319631165E+02  0.00000000000E+00 0. -1.
</event>
<event>
 7    1  0.3758561E-013  0.7246167E+02  0.7816164E-02  0.1226708E+00
        -11   -1    0    0    0    0  0.00000000000E+00  0.00000000000E+00  0.45593999997E+02  0.45594000000E+02  0.51100000000E-03 0.  1.
         11   -1    0    0    0    0 -0.00000000000E+00 -0.00000000000E+00 -0.45593999997E+02  0.45594000000E+02  0.51100000000E-03 0. -1.
    9900012    2    1    2    0    0 -0.17534101944E+02 -0.15999543323E+01 -0.63773665457E+01  0.72461671238E+02  0.70000131497E+02 0.  0.
        -12    1    1    2    0    0  0.17534101944E+02  0.15999543323E+01  0.63773665457E+01  0.18726328762E+02  0.00000000000E+00 0.  1.
         11    1    3    3    0    0  0.53258501825E+00  0.48928364508E+01 -0.62719473348E-01  0.49221366630E+01  0.51100000000E-03 0. -1.
        -11    1    3    3    0    0 -0.16367222865E+02  0.22540839064E+02  0.14852829778E+02  0.31568686426E+02  0.51100000000E-03 0.  1.
         12    1    3    3    0    0 -0.16994640979E+01 -0.29033629847E+02 -0.21167476850E+02  0.35970848148E+02  0.00000000000E+00 0. -1.
</event>
<event>
 7    1  0.3758561E-013  0.7246163E+02  0.7816164E-02  0.1226708E+00
        -11   -1    0    0    0    0  0.00000000000E+00  0.00000000000E+00  0.45593999997E+02  0.45594000000E+02  0.51100000000E-03 0.  1.
         11   -1    0    0    0    0 -0.00000000000E+00 -0.00000000000E+00 -0.45593999997E+02  0.45594000000E+02  0.51100000000E-03 0. -1.
    9900012    2    1    2    0    0  0.68989116198E+00 -0.17085552590E+02 -0.76344645092E+01  0.72461625405E+02  0.70000071792E+02 0.  0.
        -12    1    1    2    0    0 -0.68989116198E+00  0.17085552590E+02  0.76344645092E+01  0.18726374595E+02  0.00000000000E+00 0.  1.
         11    1    3    3    0    0 -0.51489100307E-01  0.13221734674E+02  0.11432623371E+02  0.17479181798E+02  0.51100000000E-03 0. -1.
        -11    1    3    3    0    0  0.45396991986E+01  0.96143005622E+01 -0.12728145348E+00  0.10632960310E+02  0.51100000000E-03 0.  1.
         12    1    3    3    0    0 -0.37983189363E+01 -0.39921587826E+02 -0.18939806427E+02  0.44349483298E+02  0.00000000000E+00 0. -1.
</event>
<event>
 7    1  0.3758561E-013  0.7246163E+02  0.7816164E-02  0.1226708E+00
        -11   -1    0    0    0    0  0.00000000000E+00  0.00000000000E+00  0.45593999997E+02  0.45594000000E+02  0.51100000000E-03 0.  1.
         11   -1    0    0    0    0 -0.00000000000E+00 -0.00000000000E+00 -0.45593999997E+02  0.45594000000E+02  0.51100000000E-03 0. -1.
    9900012    2    1    2    0    0 -0.16869362129E+02 -0.65990144882E+01 -0.47491647164E+01  0.72461629920E+02  0.70000077673E+02 0.  0.
        -12    1    1    2    0    0  0.16869362129E+02  0.65990144882E+01  0.47491647164E+01  0.18726370080E+02  0.00000000000E+00 0.  1.
         11    1    3    3    0    0 -0.15406454349E+02  0.75786028314E+00  0.79832234670E+01  0.17368507276E+02  0.51100000000E-03 0. -1.
        -11    1    3    3    0    0  0.91673657469E+00 -0.29357328107E+02 -0.14759848757E+02  0.32871663407E+02  0.51100000000E-03 0.  1.
         12    1    3    3    0    0 -0.23796443553E+01  0.22000453336E+02  0.20274605735E+01  0.22221459237E+02  0.00000000000E+00 0. -1.
</event>
<event>
 7    1  0.3758561E-013  0.7246157E+02  0.7816164E-02  0.1226708E+00
        -11   -1    0    0    0    0  0.00000000000E+00  0.00000000000E+00  0.45593999997E+02  0.45594000000E+02  0.51100000000E-03 0. -1.
         11   -1    0    0    0    0 -0.00000000000E+00 -0.00000000000E+00 -0.45593999997E+02  0.45594000000E+02  0.51100000000E-03 0.  1.
    9900012    2    1    2    0    0  0.39228777422E+01 -0.71297375451E+01  0.16865853667E+02  0.72461570891E+02  0.70000000778E+02 0.  0.
        -12    1    1    2    0    0 -0.39228777422E+01  0.71297375451E+01 -0.16865853667E+02  0.18726429109E+02  0.00000000000E+00 0.  1.
         11    1    3    3    0    0  0.38916518826E+01  0.21632950528E+02  0.14525745863E+02  0.26346286191E+02  0.51100000000E-03 0. -1.
        -11    1    3    3    0    0 -0.94516829093E+01 -0.16173232579E+02  0.16473179405E+02  0.24945408432E+02  0.51100000000E-03 0.  1.
        -12    1    3    3    0    0  0.94829087690E+01 -0.12589455494E+02 -0.14133071601E+02  0.21169876268E+02  0.00000000000E+00 0.  1.
</event>
<event>
 7    1  0.3758561E-013  0.7246156E+02  0.7816164E-02  0.1226708E+00
        -11   -1    0    0    0    0  0.00000000000E+00  0.00000000000E+00  0.45593999997E+02  0.45594000000E+02  0.51100000000E-03 0.  1.
         11   -1    0    0    0    0 -0.00000000000E+00 -0.00000000000E+00 -0.45593999997E+02  0.45594000000E+02  0.51100000000E-03 0. -1.
    9900012    2    1    2    0    0 -0.18291812032E+01 -0.12211589251E+02  0.14078729227E+02  0.72461563271E+02  0.69999990851E+02 0.  0.
        -12    1    1    2    0    0  0.18291812032E+01  0.12211589251E+02 -0.14078729227E+02  0.18726436729E+02  0.00000000000E+00 0.  1.
         11    1    3    3    0    0 -0.23872677659E+02 -0.21576028365E+01  0.19198368001E+02  0.30710540906E+02  0.51100000000E-03 0. -1.
        -11    1    3    3    0    0  0.91221996981E+00 -0.18320646973E+02  0.59053626618E+00  0.18352846758E+02  0.51100000000E-03 0.  1.
         12    1    3    3    0    0  0.21131276486E+02  0.82666605590E+01 -0.57101750400E+01  0.23398175606E+02  0.00000000000E+00 0. -1.
</event>
<event>
 7    1  0.3758561E-013  0.7246155E+02  0.7816164E-02  0.1226708E+00
        -11   -1    0    0    0    0  0.00000000000E+00  0.00000000000E+00  0.45593999997E+02  0.45594000000E+02  0.51100000000E-03 0.  1.
         11   -1    0    0    0    0 -0.00000000000E+00 -0.00000000000E+00 -0.45593999997E+02  0.45594000000E+02  0.51100000000E-03 0. -1.
    9900012    2    1    2    0    0 -0.15785316096E+02  0.10049117583E+02 -0.72044526560E+00  0.72461547858E+02  0.69999970773E+02 0.  0.
        -12    1    1    2    0    0  0.15785316096E+02 -0.10049117583E+02  0.72044526560E+00  0.18726452142E+02  0.00000000000E+00 0.  1.
         11    1    3    3    0    0  0.35562141910E+01  0.53625376798E+01 -0.11403553749E+02  0.13093681992E+02  0.51100000000E-03 0. -1.
        -11    1    3    3    0    0  0.16525676344E+02 -0.97863018809E+01  0.72870242888E+01  0.20541918274E+02  0.51100000000E-03 0.  1.
        -12    1    3    3    0    0 -0.35867206631E+02  0.14472881784E+02  0.33960841942E+01  0.38825947593E+02  0.00000000000E+00 0.  1.
</event>
<event>
 7    1  0.3758561E-013  0.7246162E+02  0.7816164E-02  0.1226708E+00
        -11   -1    0    0    0    0  0.00000000000E+00  0.00000000000E+00  0.45593999997E+02  0.45594000000E+02  0.51100000000E-03 0. -1.
         11   -1    0    0    0    0 -0.00000000000E+00 -0.00000000000E+00 -0.45593999997E+02  0.45594000000E+02  0.51100000000E-03 0.  1.
    9900012    2    1    2    0    0  0.20407878769E+01  0.17667880812E+02  0.58616046514E+01  0.72461621903E+02  0.70000067230E+02 0.  0.
        -12    1    1    2    0    0 -0.20407878769E+01 -0.17667880812E+02 -0.58616046514E+01  0.18726378097E+02  0.00000000000E+00 0.  1.
         11    1    3    3    0    0  0.56780707810E+01 -0.87877328999E+01 -0.31638733093E+01  0.10930454331E+02  0.51100000000E-03 0. -1.
        -11    1    3    3    0    0 -0.29070778434E+02  0.14813417070E+02  0.19876379935E+01  0.32687890557E+02  0.51100000000E-03 0.  1.
         12    1    3    3    0    0  0.25433495530E+02  0.11642196642E+02  0.70378399672E+01  0.28843277014E+02  0.00000000000E+00 0. -1.
</event>
<event>
 7    1  0.3758561E-013  0.7246155E+02  0.7816164E-02  0.1226708E+00
        -11   -1    0    0    0    0  0.00000000000E+00  0.00000000000E+00  0.45593999997E+02  0.45594000000E+02  0.51100000000E-03 0. -1.
         11   -1    0    0    0    0 -0.00000000000E+00 -0.00000000000E+00 -0.45593999997E+02  0.45594000000E+02  0.51100000000E-03 0.  1.
    9900012    2    1    2    0    0 -0.16975061852E+02  0.76516966232E+01 -0.19946334222E+01  0.72461554833E+02  0.69999979859E+02 0.  0.
        -12    1    1    2    0    0  0.16975061852E+02 -0.76516966232E+01  0.19946334222E+01  0.18726445167E+02  0.00000000000E+00 0.  1.
         11    1    3    3    0    0 -0.17453447013E+02  0.24166457236E+02  0.25580362213E+01  0.29919625960E+02  0.51100000000E-03 0. -1.
        -11    1    3    3    0    0  0.16839816132E+00 -0.10360027539E+02 -0.21848575833E+02  0.24180959343E+02  0.51100000000E-03 0.  1.
        -12    1    3    3    0    0  0.30998699965E+00 -0.61547330741E+01  0.17295906190E+02  0.18360969530E+02  0.00000000000E+00 0.  1.
</event>
<event>
 7    1  0.3758561E-013  0.7246158E+02  0.7816164E-02  0.1226708E+00
        -11   -1    0    0    0    0  0.00000000000E+00  0.00000000000E+00  0.45593999997E+02  0.45594000000E+02  0.51100000000E-03 0.  1.
         11   -1    0    0    0    0 -0.00000000000E+00 -0.00000000000E+00 -0.45593999997E+02  0.45594000000E+02  0.51100000000E-03 0. -1.
    9900012    2    1    2    0    0  0.47715947548E+01 -0.13523849986E+02 -0.12042258780E+02  0.72461584660E+02  0.70000018714E+02 0.  0.
        -12    1    1    2    0    0 -0.47715947548E+01  0.13523849986E+02  0.12042258780E+02  0.18726415340E+02  0.00000000000E+00 0.  1.
         11    1    3    3    0    0 -0.22174184050E+01  0.21291318909E+01  0.16668194440E+02  0.16949302438E+02  0.51100000000E-03 0. -1.
        -11    1    3    3    0    0  0.59590980638E+01  0.12970291430E+02  0.91783371077E+00  0.14303206931E+02  0.51100000000E-03 0.  1.
         12    1    3    3    0    0  0.10299150960E+01 -0.28623273307E+02 -0.29628286931E+02  0.41209075291E+02  0.00000000000E+00 0. -1.
</event>
<event>
 7    1  0.3758561E-013  0.7246159E+02  0.7816164E-02  0.1226708E+00
        -11   -1    0    0    0    0  0.00000000000E+00  0.00000000000E+00  0.45593999997E+02  0.45594000000E+02  0.51100000000E-03 0.  1.
         11   -1    0    0    0    0 -0.00000000000E+00 -0.00000000000E+00 -0.45593999997E+02  0.45594000000E+02  0.51100000000E-03 0. -1.
    9900012    2    1    2    0    0  0.13112179006E+02 -0.10503268146E+02 -0.82722693606E+01  0.72461592966E+02  0.70000029534E+02 0.  0.
        -12    1    1    2    0    0 -0.13112179006E+02  0.10503268146E+02  0.82722693606E+01  0.18726407034E+02  0.00000000000E+00 0.  1.
         11    1    3    3    0    0  0.96468888730E+01 -0.18009940917E+02 -0.10892719788E+02  0.23153223996E+02  0.51100000000E-03 0. -1.
        -11    1    3    3    0    0  0.18881587372E+02 -0.15483050241E+01 -0.15031444600E+02  0.24183794516E+02  0.51100000000E-03 0.  1.
        -12    1    3    3    0    0 -0.15416297239E+02  0.90549777957E+01  0.17651895027E+02  0.25124574454E+02  0.00000000000E+00 0.  1.
</event>
<event>
 7    1  0.3758561E-013  0.7246157E+02  0.7816164E-02  0.1226708E+00
        -11   -1    0    0    0    0  0.00000000000E+00  0.00000000000E+00  0.45593999997E+02  0.45594000000E+02  0.51100000000E-03 0.  1.
         11   -1    0    0    0    0 -0.00000000000E+00 -0.00000000000E+00 -0.45593999997E+02  0.45594000000E+02  0.51100000000E-03 0. -1.
    9900012    2    1    2    0    0  0.16504251668E+01  0.99671190943E+01 -0.15767429485E+02  0.72461569511E+02  0.69999998980E+02 0.  0.
        -12    1    1    2    0    0 -0.16504251668E+01 -0.99671190943E+01  0.15767429485E+02  0.18726430489E+02  0.00000000000E+00 0.  1.
         11    1    3    3    0    0  0.27207602307E+02  0.46623581978E+01 -0.18082104715E+02  0.32999298757E+02  0.51100000000E-03 0. -1.
        -11    1    3    3    0    0 -0.93007952242E+00  0.73724880188E+01  0.10993131739E+02  0.13269045678E+02  0.51100000000E-03 0.  1.
        -12    1    3    3    0    0 -0.24627097618E+02 -0.20677271223E+01 -0.86784565094E+01  0.26193225077E+02  0.00000000000E+00 0.  1.
</event>
<event>
 7    1  0.3758561E-013  0.7246156E+02  0.7816164E-02  0.1226708E+00
        -11   -1    0    0    0    0  0.00000000000E+00  0.00000000000E+00  0.45593999997E+02  0.45594000000E+02  0.51100000000E-03 0.  1.
         11   -1    0    0    0    0 -0.00000000000E+00 -0.00000000000E+00 -0.45593999997E+02  0.45594000000E+02  0.51100000000E-03 0. -1.
    9900012    2    1    2    0    0 -0.11508172796E+02  0.12657496530E+02 -0.76177073073E+01  0.72461555486E+02  0.69999980709E+02 0.  0.
        -12    1    1    2    0    0  0.11508172796E+02 -0.12657496530E+02  0.76177073073E+01  0.18726444514E+02  0.00000000000E+00 0.  1.
         11    1    3    3    0    0 -0.12983700587E+02  0.17875087412E+02 -0.32565953744E+02  0.39352720038E+02  0.51100000000E-03 0. -1.
        -11    1    3    3    0    0 -0.30487276493E+01  0.75043485054E+01  0.74363830449E+01  0.10995898318E+02  0.51100000000E-03 0.  1.
        -12    1    3    3    0    0  0.45242554398E+01 -0.12721939387E+02  0.17511863392E+02  0.22112937130E+02  0.00000000000E+00 0.  1.
</event>
<event>
 7    1  0.3758561E-013  0.7246166E+02  0.7816164E-02  0.1226708E+00
        -11   -1    0    0    0    0  0.00000000000E+00  0.00000000000E+00  0.45593999997E+02  0.45594000000E+02  0.51100000000E-03 0.  1.
         11   -1    0    0    0    0 -0.00000000000E+00 -0.00000000000E+00 -0.45593999997E+02  0.45594000000E+02  0.51100000000E-03 0. -1.
    9900012    2    1    2    0    0 -0.75792230495E+01  0.39742724959E+01 -0.16656421142E+02  0.72461659483E+02  0.70000116185E+02 0.  0.
        -12    1    1    2    0    0  0.75792230495E+01 -0.39742724959E+01  0.16656421142E+02  0.18726340517E+02  0.00000000000E+00 0.  1.
         11    1    3    3    0    0  0.59157891007E+01  0.39216815510E+01  0.13594283526E+02  0.15335602099E+02  0.51100000000E-03 0.  1.
        -11    1    3    3    0    0 -0.30455571489E+02 -0.44319098411E+01 -0.17161842861E+02  0.35237941345E+02  0.51100000000E-03 0. -1.
         12    1    3    3    0    0  0.16960559339E+02  0.44845007860E+01 -0.13088861807E+02  0.21888116040E+02  0.00000000000E+00 0. -1.
</event>
<event>
 7    1  0.3758561E-013  0.7246157E+02  0.7816164E-02  0.1226708E+00
        -11   -1    0    0    0    0  0.00000000000E+00  0.00000000000E+00  0.45593999997E+02  0.45594000000E+02  0.51100000000E-03 0.  1.
         11   -1    0    0    0    0 -0.00000000000E+00 -0.00000000000E+00 -0.45593999997E+02  0.45594000000E+02  0.51100000000E-03 0. -1.
    9900012    2    1    2    0    0  0.10810308688E+02  0.10372033811E+02 -0.11235533839E+02  0.72461572686E+02  0.70000003115E+02 0.  0.
        -12    1    1    2    0    0 -0.10810308688E+02 -0.10372033811E+02  0.11235533839E+02  0.18726427314E+02  0.00000000000E+00 0.  1.
         11    1    3    3    0    0 -0.43960722975E+01  0.28194351215E+01  0.11047207790E+02  0.12219470785E+02  0.51100000000E-03 0. -1.
        -11    1    3    3    0    0 -0.69718316268E+01  0.21794506294E+02  0.37596761582E+01  0.23189267041E+02  0.51100000000E-03 0.  1.
         12    1    3    3    0    0  0.22178212612E+02 -0.14241907605E+02 -0.26042417788E+02  0.37052834859E+02  0.00000000000E+00 0. -1.
</event>
<event>
 7    1  0.3758561E-013  0.7246155E+02  0.7816164E-02  0.1226708E+00
        -11   -1    0    0    0    0  0.00000000000E+00  0.00000000000E+00  0.45593999997E+02  0.45594000000E+02  0.51100000000E-03 0. -1.
         11   -1    0    0    0    0 -0.00000000000E+00 -0.00000000000E+00 -0.45593999997E+02  0.45594000000E+02  0.51100000000E-03 0.  1.
    9900012    2    1    2    0    0 -0.76387672342E+01  0.15130388558E+02  0.79624429357E+01  0.72461550249E+02  0.69999973887E+02 0.  0.
        -12    1    1    2    0    0  0.76387672342E+01 -0.15130388558E+02 -0.79624429357E+01  0.18726449751E+02  0.00000000000E+00 0.  1.
         11    1    3    3    0    0 -0.93633052383E+00  0.79013383205E+01 -0.11268679027E+02  0.13794600008E+02  0.51100000000E-03 0.  1.
        -11    1    3    3    0    0 -0.20090685930E+02  0.25431520245E+02  0.77593579552E+01  0.33325748593E+02  0.51100000000E-03 0. -1.
         12    1    3    3    0    0  0.13388249220E+02 -0.18202470008E+02  0.11471764007E+02  0.25341201648E+02  0.00000000000E+00 0. -1.
</event>
<event>
 7    1  0.3758561E-013  0.7246150E+02  0.7816164E-02  0.1226708E+00
        -11   -1    0    0    0    0  0.00000000000E+00  0.00000000000E+00  0.45593999997E+02  0.45594000000E+02  0.51100000000E-03 0.  1.
         11   -1    0    0    0    0 -0.00000000000E+00 -0.00000000000E+00 -0.45593999997E+02  0.45594000000E+02  0.51100000000E-03 0. -1.
    9900012    2    1    2    0    0 -0.82340225442E+00 -0.12887921798E+02 -0.13561165464E+02  0.72461501975E+02  0.69999911001E+02 0.  0.
        -12    1    1    2    0    0  0.82340225442E+00  0.12887921798E+02  0.13561165464E+02  0.18726498025E+02  0.00000000000E+00 0.  1.
         11    1    3    3    0    0 -0.56037407959E+01  0.16710303866E+02 -0.10545505489E+02  0.20538837661E+02  0.51100000000E-03 0. -1.
        -11    1    3    3    0    0  0.51780678456E+01  0.88318541677E+01  0.67580141226E+01  0.12267224209E+02  0.51100000000E-03 0.  1.
         12    1    3    3    0    0 -0.39772930405E+00 -0.38430079832E+02 -0.97736740979E+01  0.39655440104E+02  0.00000000000E+00 0. -1.
</event>
<event>
 7    1  0.3758561E-013  0.7246166E+02  0.7816164E-02  0.1226708E+00
        -11   -1    0    0    0    0  0.00000000000E+00  0.00000000000E+00  0.45593999997E+02  0.45594000000E+02  0.51100000000E-03 0. -1.
         11   -1    0    0    0    0 -0.00000000000E+00 -0.00000000000E+00 -0.45593999997E+02  0.45594000000E+02  0.51100000000E-03 0.  1.
    9900012    2    1    2    0    0  0.14263817499E+02 -0.90722041662E+01  0.80569551185E+01  0.72461657489E+02  0.70000113587E+02 0.  0.
        -12    1    1    2    0    0 -0.14263817499E+02  0.90722041662E+01 -0.80569551185E+01  0.18726342511E+02  0.00000000000E+00 0.  1.
         11    1    3    3    0    0  0.11581396504E+02 -0.89985546048E+01  0.29579540514E+02  0.33015934748E+02  0.51100000000E-03 0. -1.
        -11    1    3    3    0    0  0.79450512550E+00  0.81371188510E+01  0.63344158892E+01  0.10342570595E+02  0.51100000000E-03 0.  1.
        -12    1    3    3    0    0  0.18879158693E+01 -0.82107684124E+01 -0.27857001285E+02  0.29103152146E+02  0.00000000000E+00 0.  1.
</event>
<event>
 7    1  0.3758561E-013  0.7246162E+02  0.7816164E-02  0.1226708E+00
        -11   -1    0    0    0    0  0.00000000000E+00  0.00000000000E+00  0.45593999997E+02  0.45594000000E+02  0.51100000000E-03 0. -1.
         11   -1    0    0    0    0 -0.00000000000E+00 -0.00000000000E+00 -0.45593999997E+02  0.45594000000E+02  0.51100000000E-03 0.  1.
    9900012    2    1    2    0    0 -0.70671888609E+01 -0.19258459139E+01  0.17234365175E+02  0.72461617971E+02  0.70000062108E+02 0.  0.
        -12    1    1    2    0    0  0.70671888609E+01  0.19258459139E+01 -0.17234365175E+02  0.18726382029E+02  0.00000000000E+00 0.  1.
         11    1    3    3    0    0  0.18180109841E+01  0.10679128018E+02  0.41088642949E+01  0.11585840721E+02  0.51100000000E-03 0. -1.
        -11    1    3    3    0    0 -0.22861987488E+02 -0.52876044791E+00 -0.14912125521E+02  0.27300577784E+02  0.51100000000E-03 0.  1.
         12    1    3    3    0    0  0.13976787643E+02 -0.12076213484E+02  0.28037626402E+02  0.33575199466E+02  0.00000000000E+00 0. -1.
</event>
<event>
 7    1  0.3758561E-013  0.7246151E+02  0.7816164E-02  0.1226708E+00
        -11   -1    0    0    0    0  0.00000000000E+00  0.00000000000E+00  0.45593999997E+02  0.45594000000E+02  0.51100000000E-03 0. -1.
         11   -1    0    0    0    0 -0.00000000000E+00 -0.00000000000E+00 -0.45593999997E+02  0.45594000000E+02  0.51100000000E-03 0.  1.
    9900012    2    1    2    0    0  0.37043025583E+01 -0.12484191934E+02  0.13457501262E+02  0.72461514855E+02  0.69999927780E+02 0.  0.
        -12    1    1    2    0    0 -0.37043025583E+01  0.12484191934E+02 -0.13457501262E+02  0.18726485145E+02  0.00000000000E+00 0.  1.
         11    1    3    3    0    0  0.27980727184E+02 -0.19936314385E+02 -0.20705168274E+01  0.34418959386E+02  0.51100000000E-03 0. -1.
        -11    1    3    3    0    0 -0.94315341818E+01  0.89567689224E+01 -0.38694486612E+01  0.13570194536E+02  0.51100000000E-03 0.  1.
        -12    1    3    3    0    0 -0.14844890444E+02 -0.15046464709E+01  0.19397466750E+02  0.24472360933E+02  0.00000000000E+00 0.  1.
</event>
<event>
 7    1  0.3758561E-013  0.7246161E+02  0.7816164E-02  0.1226708E+00
        -11   -1    0    0    0    0  0.00000000000E+00  0.00000000000E+00  0.45593999997E+02  0.45594000000E+02  0.51100000000E-03 0.  1.
         11   -1    0    0    0    0 -0.00000000000E+00 -0.00000000000E+00 -0.45593999997E+02  0.45594000000E+02  0.51100000000E-03 0. -1.
    9900012    2    1    2    0    0 -0.12080560659E+02 -0.12638976099E+02 -0.67077504098E+01  0.72461612782E+02  0.70000055348E+02 0.  0.
        -12    1    1    2    0    0  0.12080560659E+02  0.12638976099E+02  0.67077504098E+01  0.18726387218E+02  0.00000000000E+00 0.  1.
         11    1    3    3    0    0 -0.21908622993E+02  0.60093816082E+01 -0.13256446233E+02  0.26302733617E+02  0.51100000000E-03 0. -1.
        -11    1    3    3    0    0  0.72268024941E+01 -0.12538094693E-01 -0.15542356321E+02  0.17140352148E+02  0.51100000000E-03 0.  1.
        -12    1    3    3    0    0  0.26012598392E+01 -0.18635819612E+02  0.22091052144E+02  0.29018527017E+02  0.00000000000E+00 0.  1.
</event>
<event>
 7    1  0.3758561E-013  0.7246158E+02  0.7816164E-02  0.1226708E+00
        -11   -1    0    0    0    0  0.00000000000E+00  0.00000000000E+00  0.45593999997E+02  0.45594000000E+02  0.51100000000E-03 0.  1.
         11   -1    0    0    0    0 -0.00000000000E+00 -0.00000000000E+00 -0.45593999997E+02  0.45594000000E+02  0.51100000000E-03 0. -1.
    9900012    2    1    2    0    0  0.15987837131E+02 -0.69711703879E+01  0.68169295780E+01  0.72461583323E+02  0.70000016972E+02 0.  0.
        -12    1    1    2    0    0 -0.15987837131E+02  0.69711703879E+01 -0.68169295780E+01  0.18726416677E+02  0.00000000000E+00 0.  1.
         11    1    3    3    0    0 -0.54361914584E+01  0.24503952442E+01  0.55656774812E+00  0.59888548442E+01  0.51100000000E-03 0. -1.
        -11    1    3    3    0    0  0.67237461537E+01  0.25360404077E+02 -0.57278188800E+01  0.26854548342E+02  0.51100000000E-03 0.  1.
         12    1    3    3    0    0  0.14700282436E+02 -0.34781969709E+02  0.11988180710E+02  0.39618180136E+02  0.00000000000E+00 0. -1.
</event>
<event>
 7    1  0.3758561E-013  0.7246155E+02  0.7816164E-02  0.1226708E+00
        -11   -1    0    0    0    0  0.00000000000E+00  0.00000000000E+00  0.45593999997E+02  0.45594000000E+02  0.51100000000E-03 0. -1.
         11   -1    0    0    0    0 -0.00000000000E+00 -0.00000000000E+00 -0.45593999997E+02  0.45594000000E+02  0.51100000000E-03 0.  1.
    9900012    2    1    2    0    0 -0.60774615525E+01  0.95056231201E+01  0.14946154595E+02  0.72461549536E+02  0.69999972958E+02 0.  0.
        -12    1    1    2    0    0  0.60774615525E+01 -0.95056231201E+01 -0.14946154595E+02  0.18726450464E+02  0.00000000000E+00 0.  1.
         11    1    3    3    0    0  0.74573582090E+01 -0.57536647960E+01  0.58483469989E+01  0.11086929824E+02  0.51100000000E-03 0. -1.
        -11    1    3    3    0    0  0.12399024301E+02  0.28757063220E+02  0.68171641515E+01  0.32049621152E+02  0.51100000000E-03 0.  1.
         12    1    3    3    0    0 -0.25933844062E+02 -0.13497775304E+02  0.22806434441E+01  0.29324998560E+02  0.00000000000E+00 0. -1.
</event>
<event>
 7    1  0.3758561E-013  0.7246158E+02  0.7816164E-02  0.1226708E+00
        -11   -1    0    0    0    0  0.00000000000E+00  0.00000000000E+00  0.45593999997E+02  0.45594000000E+02  0.51100000000E-03 0.  1.
         11   -1    0    0    0    0 -0.00000000000E+00 -0.00000000000E+00 -0.45593999997E+02  0.45594000000E+02  0.51100000000E-03 0. -1.
    9900012    2    1    2    0    0 -0.92597175116E+01 -0.95636018664E+01 -0.13170956869E+02  0.72461576052E+02  0.70000007500E+02 0.  0.
        -12    1    1    2    0    0  0.92597175116E+01  0.95636018664E+01  0.13170956869E+02  0.18726423948E+02  0.00000000000E+00 0.  1.
         11    1    3    3    0    0  0.73505666399E+01  0.16424570508E+01  0.78485089153E+01  0.10877848480E+02  0.51100000000E-03 0. -1.
        -11    1    3    3    0    0  0.83228346131E+01 -0.11270965161E+02  0.13196428271E+02  0.19247076428E+02  0.51100000000E-03 0.  1.
         12    1    3    3    0    0 -0.24933118765E+02  0.64906243388E-01 -0.34215894055E+02  0.42336651144E+02  0.00000000000E+00 0. -1.
</event>
<event>
 7    1  0.3758561E-013  0.7246152E+02  0.7816164E-02  0.1226708E+00
        -11   -1    0    0    0    0  0.00000000000E+00  0.00000000000E+00  0.45593999997E+02  0.45594000000E+02  0.51100000000E-03 0. -1.
         11   -1    0    0    0    0 -0.00000000000E+00 -0.00000000000E+00 -0.45593999997E+02  0.45594000000E+02  0.51100000000E-03 0.  1.
    9900012    2    1    2    0    0  0.98261734904E+00  0.84733040338E+01  0.16670889025E+02  0.72461522515E+02  0.69999937759E+02 0.  0.
        -12    1    1    2    0    0 -0.98261734904E+00 -0.84733040338E+01 -0.16670889025E+02  0.18726477485E+02  0.00000000000E+00 0.  1.
         11    1    3    3    0    0  0.19104756592E+02 -0.14758112532E+02  0.96476770104E+00  0.24160388799E+02  0.51100000000E-03 0. -1.
        -11    1    3    3    0    0 -0.90587464440E+01 -0.86537600872E+01  0.42884279607E+01  0.13241565822E+02  0.51100000000E-03 0.  1.
        -12    1    3    3    0    0 -0.90633927985E+01  0.31885176653E+02  0.11417693363E+02  0.35059567894E+02  0.00000000000E+00 0.  1.
</event>
<event>
 7    1  0.3758561E-013  0.7246180E+02  0.7816164E-02  0.1226707E+00
        -11   -1    0    0    0    0  0.00000000000E+00  0.00000000000E+00  0.45593999997E+02  0.45594000000E+02  0.51100000000E-03 0. -1.
         11   -1    0    0    0    0 -0.00000000000E+00 -0.00000000000E+00 -0.45593999997E+02  0.45594000000E+02  0.51100000000E-03 0.  1.
    9900012    2    1    2    0    0  0.14522612704E+02 -0.11400305000E+02  0.31300465331E+01  0.72461803773E+02  0.70000304149E+02 0.  0.
        -12    1    1    2    0    0 -0.14522612704E+02  0.11400305000E+02 -0.31300465331E+01  0.18726196227E+02  0.00000000000E+00 0.  1.
         11    1    3    3    0    0 -0.59764282954E+01  0.21128707006E+02  0.53072080388E+01  0.22589962646E+02  0.51100000000E-03 0. -1.
        -11    1    3    3    0    0  0.95832592722E+01  0.45866389858E+01 -0.34292506963E+01  0.11164043894E+02  0.51100000000E-03 0.  1.
        -12    1    3    3    0    0  0.10915781727E+02 -0.37115650992E+02  0.12520891906E+01  0.38707797233E+02  0.00000000000E+00 0.  1.
</event>
<event>
 7    1  0.3758561E-013  0.7246157E+02  0.7816164E-02  0.1226708E+00
        -11   -1    0    0    0    0  0.00000000000E+00  0.00000000000E+00  0.45593999997E+02  0.45594000000E+02  0.51100000000E-03 0. -1.
         11   -1    0    0    0    0 -0.00000000000E+00 -0.00000000000E+00 -0.45593999997E+02  0.45594000000E+02  0.51100000000E-03 0.  1.
    9900012    2    1    2    0    0  0.11647603549E+02 -0.40184555689E+01  0.14101931274E+02  0.72461571636E+02  0.70000001748E+02 0.  0.
        -12    1    1    2    0    0 -0.11647603549E+02  0.40184555689E+01 -0.14101931274E+02  0.18726428364E+02  0.00000000000E+00 0.  1.
         11    1    3    3    0    0 -0.83355666372E+01  0.40287357133E-01 -0.30669340679E+01  0.88819693240E+01  0.51100000000E-03 0. -1.
        -11    1    3    3    0    0  0.24609727112E+02 -0.11980066551E+02 -0.14243533885E+02  0.30855127952E+02  0.51100000000E-03 0.  1.
         12    1    3    3    0    0 -0.46265569260E+01  0.79213236247E+01  0.31412399227E+02  0.32724474361E+02  0.00000000000E+00 0. -1.
</event>
<event>
 7    1  0.3758561E-013  0.7246157E+02  0.7816164E-02  0.1226708E+00
        -11   -1    0    0    0    0  0.00000000000E+00  0.00000000000E+00  0.45593999997E+02  0.45594000000E+02  0.51100000000E-03 0.  1.
         11   -1    0    0    0    0 -0.00000000000E+00 -0.00000000000E+00 -0.45593999997E+02  0.45594000000E+02  0.51100000000E-03 0. -1.
    9900012    2    1    2    0    0 -0.81207228679E+01  0.10362333256E+02 -0.13317469010E+02  0.72461572918E+02  0.70000003418E+02 0.  0.
        -12    1    1    2    0    0  0.81207228679E+01 -0.10362333256E+02  0.13317469010E+02  0.18726427082E+02  0.00000000000E+00 0.  1.
         11    1    3    3    0    0  0.24295644446E+02  0.24324187012E+02 -0.83668020010E+01  0.35382874231E+02  0.51100000000E-03 0. -1.
        -11    1    3    3    0    0 -0.53607718037E+01  0.15213908252E+01 -0.62869742400E+00  0.56078306935E+01  0.51100000000E-03 0.  1.
        -12    1    3    3    0    0 -0.27055595511E+02 -0.15483244581E+02 -0.43219695854E+01  0.31470867994E+02  0.00000000000E+00 0.  1.
</event>
<event>
 7    1  0.3758561E-013  0.7246154E+02  0.7816164E-02  0.1226708E+00
        -11   -1    0    0    0    0  0.00000000000E+00  0.00000000000E+00  0.45593999997E+02  0.45594000000E+02  0.51100000000E-03 0.  1.
         11   -1    0    0    0    0 -0.00000000000E+00 -0.00000000000E+00 -0.45593999997E+02  0.45594000000E+02  0.51100000000E-03 0. -1.
    9900012    2    1    2    0    0  0.16415520250E+02 -0.54667643768E+01  0.71641772115E+01  0.72461541367E+02  0.69999962316E+02 0.  0.
        -12    1    1    2    0    0 -0.16415520250E+02  0.54667643768E+01 -0.71641772115E+01  0.18726458633E+02  0.00000000000E+00 0.  1.
         11    1    3    3    0    0  0.24347989970E+01  0.22627128492E+02  0.26599040546E+01  0.22912666361E+02  0.51100000000E-03 0. -1.
        -11    1    3    3    0    0  0.20859641715E+02 -0.36571832364E+01 -0.60967094589E+01  0.22037910704E+02  0.51100000000E-03 0.  1.
        -12    1    3    3    0    0 -0.68789204626E+01 -0.24436709632E+02  0.10600982616E+02  0.27510964301E+02  0.00000000000E+00 0.  1.
</event>
<event>
 7    1  0.3758561E-013  0.7246154E+02  0.7816164E-02  0.1226708E+00
        -11   -1    0    0    0    0  0.00000000000E+00  0.00000000000E+00  0.45593999997E+02  0.45594000000E+02  0.51100000000E-03 0. -1.
         11   -1    0    0    0    0 -0.00000000000E+00 -0.00000000000E+00 -0.45593999997E+02  0.45594000000E+02  0.51100000000E-03 0.  1.
    9900012    2    1    2    0    0 -0.13057958109E+02  0.11307391588E+02  0.72327710532E+01  0.72461538732E+02  0.69999958885E+02 0.  0.
        -12    1    1    2    0    0  0.13057958109E+02 -0.11307391588E+02 -0.72327710532E+01  0.18726461268E+02  0.00000000000E+00 0.  1.
         11    1    3    3    0    0 -0.13268398769E+02  0.64765139825E+01 -0.55839454582E+01  0.15785312363E+02  0.51100000000E-03 0. -1.
        -11    1    3    3    0    0  0.81988525547E+01  0.28427782456E+02  0.11455067892E+02  0.31726622563E+02  0.51100000000E-03 0.  1.
        -12    1    3    3    0    0 -0.79884118948E+01 -0.23596904851E+02  0.13616486196E+01  0.24949603806E+02  0.00000000000E+00 0.  1.
</event>
<event>
 7    1  0.3758561E-013  0.7246157E+02  0.7816164E-02  0.1226708E+00
        -11   -1    0    0    0    0  0.00000000000E+00  0.00000000000E+00  0.45593999997E+02  0.45594000000E+02  0.51100000000E-03 0.  1.
         11   -1    0    0    0    0 -0.00000000000E+00 -0.00000000000E+00 -0.45593999997E+02  0.45594000000E+02  0.51100000000E-03 0. -1.
    9900012    2    1    2    0    0 -0.70819236685E+01  0.10305332138E+02 -0.13940075484E+02  0.72461569005E+02  0.69999998320E+02 0.  0.
        -12    1    1    2    0    0  0.70819236685E+01 -0.10305332138E+02  0.13940075484E+02  0.18726430995E+02  0.00000000000E+00 0.  1.
         11    1    3    3    0    0 -0.31512809710E+02  0.92962018591E+01 -0.32430367972E+01  0.33015054638E+02  0.51100000000E-03 0. -1.
        -11    1    3    3    0    0 -0.47789440980E+01  0.24304752815E+01  0.40262664852E+01  0.67049488333E+01  0.51100000000E-03 0.  1.
        -12    1    3    3    0    0  0.29209830140E+02 -0.14213450028E+01 -0.14723305172E+02  0.32741565534E+02  0.00000000000E+00 0.  1.
</event>
<event>
 7    1  0.3758561E-013  0.7246167E+02  0.7816164E-02  0.1226708E+00
        -11   -1    0    0    0    0  0.00000000000E+00  0.00000000000E+00  0.45593999997E+02  0.45594000000E+02  0.51100000000E-03 0.  1.
         11   -1    0    0    0    0 -0.00000000000E+00 -0.00000000000E+00 -0.45593999997E+02  0.45594000000E+02  0.51100000000E-03 0. -1.
    9900012    2    1    2    0    0  0.10845187469E+02  0.15102199999E+02  0.22317901953E+01  0.72461670314E+02  0.70000130294E+02 0.  0.
        -12    1    1    2    0    0 -0.10845187469E+02 -0.15102199999E+02 -0.22317901953E+01  0.18726329686E+02  0.00000000000E+00 0.  1.
         11    1    3    3    0    0 -0.78398745689E+01  0.35439754291E+02  0.11364799269E+02  0.38034175160E+02  0.51100000000E-03 0. -1.
        -11    1    3    3    0    0  0.24503832102E+01 -0.91699028056E+01 -0.11123092189E+02  0.14622403203E+02  0.51100000000E-03 0.  1.
        -12    1    3    3    0    0  0.16234678827E+02 -0.11167651486E+02  0.19900831150E+01  0.19805091950E+02  0.00000000000E+00 0.  1.
</event>
<event>
 7    1  0.3758561E-013  0.7246154E+02  0.7816164E-02  0.1226708E+00
        -11   -1    0    0    0    0  0.00000000000E+00  0.00000000000E+00  0.45593999997E+02  0.45594000000E+02  0.51100000000E-03 0.  1.
         11   -1    0    0    0    0 -0.00000000000E+00 -0.00000000000E+00 -0.45593999997E+02  0.45594000000E+02  0.51100000000E-03 0. -1.
    9900012    2    1    2    0    0 -0.12399881819E+02  0.84246218024E+01 -0.11222695134E+02  0.72461542575E+02  0.69999963890E+02 0.  0.
        -12    1    1    2    0    0  0.12399881819E+02 -0.84246218024E+01  0.11222695134E+02  0.18726457425E+02  0.00000000000E+00 0.  1.
         11    1    3    3    0    0 -0.30929497892E+02 -0.25351355705E+01 -0.78865808205E+01  0.32019664419E+02  0.51100000000E-03 0. -1.
        -11    1    3    3    0    0  0.36923433778E+01  0.17582100566E+02  0.89500596034E+01  0.20071552683E+02  0.51100000000E-03 0.  1.
        -12    1    3    3    0    0  0.14837272695E+02 -0.66223431930E+01 -0.12286173916E+02  0.20370325474E+02  0.00000000000E+00 0.  1.
</event>
<event>
 7    1  0.3758561E-013  0.7246151E+02  0.7816164E-02  0.1226708E+00
        -11   -1    0    0    0    0  0.00000000000E+00  0.00000000000E+00  0.45593999997E+02  0.45594000000E+02  0.51100000000E-03 0. -1.
         11   -1    0    0    0    0 -0.00000000000E+00 -0.00000000000E+00 -0.45593999997E+02  0.45594000000E+02  0.51100000000E-03 0.  1.
    9900012    2    1    2    0    0 -0.11140828425E+02  0.71872006734E+01  0.13225254817E+02  0.72461514038E+02  0.69999926716E+02 0.  0.
        -12    1    1    2    0    0  0.11140828425E+02 -0.71872006734E+01 -0.13225254817E+02  0.18726485962E+02  0.00000000000E+00 0.  1.
         11    1    3    3    0    0 -0.70272254054E+01 -0.26703465470E+01  0.11208768554E+02  0.13496263940E+02  0.51100000000E-03 0. -1.
        -11    1    3    3    0    0 -0.13435190687E+02 -0.16312347250E+02 -0.15424936840E+02  0.26163442021E+02  0.51100000000E-03 0.  1.
         12    1    3    3    0    0  0.93215876677E+01  0.26169894471E+02  0.17441423103E+02  0.32801808077E+02  0.00000000000E+00 0. -1.
</event>
<event>
 7    1  0.3758561E-013  0.7246156E+02  0.7816164E-02  0.1226708E+00
        -11   -1    0    0    0    0  0.00000000000E+00  0.00000000000E+00  0.45593999997E+02  0.45594000000E+02  0.51100000000E-03 0.  1.
         11   -1    0    0    0    0 -0.00000000000E+00 -0.00000000000E+00 -0.45593999997E+02  0.45594000000E+02  0.51100000000E-03 0. -1.
    9900012    2    1    2    0    0 -0.88091674437E+01 -0.25972973225E+01 -0.16319683534E+02  0.72461562669E+02  0.69999990067E+02 0.  0.
        -12    1    1    2    0    0  0.88091674437E+01  0.25972973225E+01  0.16319683534E+02  0.18726437331E+02  0.00000000000E+00 0.  1.
         11    1    3    3    0    0  0.20545287809E+02 -0.13636058896E+01 -0.15075989709E+02  0.25519673551E+02  0.51100000000E-03 0. -1.
        -11    1    3    3    0    0 -0.12657594083E+02  0.13567702782E+02 -0.12075739434E+02  0.22138670463E+02  0.51100000000E-03 0.  1.
        -12    1    3    3    0    0 -0.16696861169E+02 -0.14801394215E+02  0.10832045608E+02  0.24803218655E+02  0.00000000000E+00 0.  1.
</event>
<event>
 7    1  0.3758561E-013  0.7246149E+02  0.7816164E-02  0.1226708E+00
        -11   -1    0    0    0    0  0.00000000000E+00  0.00000000000E+00  0.45593999997E+02  0.45594000000E+02  0.51100000000E-03 0. -1.
         11   -1    0    0    0    0 -0.00000000000E+00 -0.00000000000E+00 -0.45593999997E+02  0.45594000000E+02  0.51100000000E-03 0.  1.
    9900012    2    1    2    0    0  0.45509719884E+01  0.12614490137E+02  0.13070788988E+02  0.72461488520E+02  0.69999893474E+02 0.  0.
        -12    1    1    2    0    0 -0.45509719884E+01 -0.12614490137E+02 -0.13070788988E+02  0.18726511480E+02  0.00000000000E+00 0.  1.
         11    1    3    3    0    0 -0.22524834491E+02  0.89859888192E+01  0.26153250834E+02  0.35666632772E+02  0.51100000000E-03 0. -1.
        -11    1    3    3    0    0  0.23253120392E+02  0.35784497345E+01 -0.38038235269E+00  0.23529929908E+02  0.51100000000E-03 0.  1.
        -12    1    3    3    0    0  0.38226860869E+01  0.50051582795E-01 -0.12702079493E+02  0.13264925840E+02  0.00000000000E+00 0.  1.
</event>
<event>
 7    1  0.3758561E-013  0.7246156E+02  0.7816164E-02  0.1226708E+00
        -11   -1    0    0    0    0  0.00000000000E+00  0.00000000000E+00  0.45593999997E+02  0.45594000000E+02  0.51100000000E-03 0.  1.
         11   -1    0    0    0    0 -0.00000000000E+00 -0.00000000000E+00 -0.45593999997E+02  0.45594000000E+02  0.51100000000E-03 0. -1.
    9900012    2    1    2    0    0  0.42406239025E+01  0.59883797489E+01 -0.17228929882E+02  0.72461558588E+02  0.69999984750E+02 0.  0.
        -12    1    1    2    0    0 -0.42406239025E+01 -0.59883797489E+01  0.17228929882E+02  0.18726441412E+02  0.00000000000E+00 0.  1.
         11    1    3    3    0    0 -0.40223193567E+01  0.15742120914E+02 -0.17283374695E+02  0.23721476872E+02  0.51100000000E-03 0. -1.
        -11    1    3    3    0    0  0.26074819432E+01 -0.15678298154E+02 -0.20891323967E+02  0.26249864999E+02  0.51100000000E-03 0.  1.
        -12    1    3    3    0    0  0.56554613160E+01  0.59245569894E+01  0.20945768780E+02  0.22490216717E+02  0.00000000000E+00 0.  1.
</event>
<event>
 7    1  0.3758561E-013  0.7246158E+02  0.7816164E-02  0.1226708E+00
        -11   -1    0    0    0    0  0.00000000000E+00  0.00000000000E+00  0.45593999997E+02  0.45594000000E+02  0.51100000000E-03 0.  1.
         11   -1    0    0    0    0 -0.00000000000E+00 -0.00000000000E+00 -0.45593999997E+02  0.45594000000E+02  0.51100000000E-03 0. -1.
    9900012    2    1    2    0    0  0.69005609995E+01  0.98020013478E+00 -0.17381029960E+02  0.72461581846E+02  0.70000015048E+02 0.  0.
        -12    1    1    2    0    0 -0.69005609995E+01 -0.98020013478E+00  0.17381029960E+02  0.18726418154E+02  0.00000000000E+00 0.  1.
         11    1    3    3    0    0 -0.14790792055E+02  0.57456477655E+01 -0.19656496139E+02  0.25261786132E+02  0.51100000000E-03 0. -1.
        -11    1    3    3    0    0  0.61961320683E+01 -0.76548308658E+01 -0.18597359216E+02  0.21044007657E+02  0.51100000000E-03 0.  1.
         12    1    3    3    0    0  0.15495220986E+02  0.28893832351E+01  0.20872825395E+02  0.26155788056E+02  0.00000000000E+00 0. -1.
</event>
<event>
 7    1  0.3758561E-013  0.7246158E+02  0.7816164E-02  0.1226708E+00
        -11   -1    0    0    0    0  0.00000000000E+00  0.00000000000E+00  0.45593999997E+02  0.45594000000E+02  0.51100000000E-03 0. -1.
         11   -1    0    0    0    0 -0.00000000000E+00 -0.00000000000E+00 -0.45593999997E+02  0.45594000000E+02  0.51100000000E-03 0.  1.
    9900012    2    1    2    0    0  0.10019575632E+02 -0.15450882658E+01  0.15744824977E+02  0.72461582640E+02  0.70000016082E+02 0.  0.
        -12    1    1    2    0    0 -0.10019575632E+02  0.15450882658E+01 -0.15744824977E+02  0.18726417360E+02  0.00000000000E+00 0.  1.
         11    1    3    3    0    0  0.28901191978E+02  0.96525207296E+01  0.29882668616E+01  0.30616658755E+02  0.51100000000E-03 0. -1.
        -11    1    3    3    0    0  0.48906244464E+01  0.46226886964E+01 -0.48525974402E+01  0.82966957542E+01  0.51100000000E-03 0.  1.
        -12    1    3    3    0    0 -0.23772240792E+02 -0.15820297692E+02  0.17609155555E+02  0.33548228131E+02  0.00000000000E+00 0.  1.
</event>
<event>
 7    1  0.3758561E-013  0.7246156E+02  0.7816164E-02  0.1226708E+00
        -11   -1    0    0    0    0  0.00000000000E+00  0.00000000000E+00  0.45593999997E+02  0.45594000000E+02  0.51100000000E-03 0.  1.
         11   -1    0    0    0    0 -0.00000000000E+00 -0.00000000000E+00 -0.45593999997E+02  0.45594000000E+02  0.51100000000E-03 0. -1.
    9900012    2    1    2    0    0 -0.12929528239E+02 -0.13394162350E+02 -0.20256826687E+01  0.72461556776E+02  0.69999982390E+02 0.  0.
        -12    1    1    2    0    0  0.12929528239E+02  0.13394162350E+02  0.20256826687E+01  0.18726443224E+02  0.00000000000E+00 0.  1.
         11    1    3    3    0    0 -0.30285797016E+01 -0.76053286536E+00 -0.79725772627E+00  0.32227822439E+01  0.51100000000E-03 0. -1.
        -11    1    3    3    0    0 -0.19046599907E+02  0.18371489042E+02  0.17645448700E+02  0.31806389888E+02  0.51100000000E-03 0.  1.
         12    1    3    3    0    0  0.91456513699E+01 -0.31005118527E+02 -0.18873873643E+02  0.37432384644E+02  0.00000000000E+00 0. -1.
</event>
<event>
 7    1  0.3758561E-013  0.7246159E+02  0.7816164E-02  0.1226708E+00
        -11   -1    0    0    0    0  0.00000000000E+00  0.00000000000E+00  0.45593999997E+02  0.45594000000E+02  0.51100000000E-03 0. -1.
         11   -1    0    0    0    0 -0.00000000000E+00 -0.00000000000E+00 -0.45593999997E+02  0.45594000000E+02  0.51100000000E-03 0.  1.
    9900012    2    1    2    0    0 -0.48989691110E+01  0.92164775188E+01  0.15547827952E+02  0.72461593238E+02  0.70000029888E+02 0.  0.
        -12    1    1    2    0    0  0.48989691110E+01 -0.92164775188E+01 -0.15547827952E+02  0.18726406762E+02  0.00000000000E+00 0.  1.
         11    1    3    3    0    0  0.11965327050E+02  0.94432011813E+01 -0.88913519092E+01  0.17646507841E+02  0.51100000000E-03 0. -1.
        -11    1    3    3    0    0  0.80300942951E+01 -0.64204761234E+01 -0.83063687291E+01  0.13217438850E+02  0.51100000000E-03 0.  1.
         12    1    3    3    0    0 -0.24894390456E+02  0.61937524609E+01  0.32745548590E+02  0.41597646546E+02  0.00000000000E+00 0. -1.
</event>
<event>
 7    1  0.3758561E-013  0.7246159E+02  0.7816164E-02  0.1226708E+00
        -11   -1    0    0    0    0  0.00000000000E+00  0.00000000000E+00  0.45593999997E+02  0.45594000000E+02  0.51100000000E-03 0. -1.
         11   -1    0    0    0    0 -0.00000000000E+00 -0.00000000000E+00 -0.45593999997E+02  0.45594000000E+02  0.51100000000E-03 0.  1.
    9900012    2    1    2    0    0  0.49956034665E+01  0.14680985254E+02  0.10497201229E+02  0.72461585082E+02  0.70000019264E+02 0.  0.
        -12    1    1    2    0    0 -0.49956034665E+01 -0.14680985254E+02 -0.10497201229E+02  0.18726414918E+02  0.00000000000E+00 0.  1.
         11    1    3    3    0    0  0.25848589141E+02  0.26163121748E+02  0.19132785150E+02  0.41457471799E+02  0.51100000000E-03 0. -1.
        -11    1    3    3    0    0 -0.38573353681E+01 -0.24108182547E+00  0.51229584034E+01  0.64173093779E+01  0.51100000000E-03 0.  1.
        -12    1    3    3    0    0 -0.16995650306E+02 -0.11241054668E+02 -0.13758542324E+02  0.24586803905E+02  0.00000000000E+00 0.  1.
</event>
<event>
 7    1  0.3758561E-013  0.7246156E+02  0.7816164E-02  0.1226708E+00
        -11   -1    0    0    0    0  0.00000000000E+00  0.00000000000E+00  0.45593999997E+02  0.45594000000E+02  0.51100000000E-03 0. -1.
         11   -1    0    0    0    0 -0.00000000000E+00 -0.00000000000E+00 -0.45593999997E+02  0.45594000000E+02  0.51100000000E-03 0.  1.
    9900012    2    1    2    0    0 -0.15442755255E+02  0.72560158993E+01 -0.77169432227E+01  0.72461556950E+02  0.69999982617E+02 0.  0.
        -12    1    1    2    0    0  0.15442755255E+02 -0.72560158993E+01  0.77169432227E+01  0.18726443050E+02  0.00000000000E+00 0.  1.
         11    1    3    3    0    0  0.11028026199E+01 -0.19958483279E+01  0.90012478955E+01  0.92855828091E+01  0.51100000000E-03 0. -1.
        -11    1    3    3    0    0  0.97136796225E+01  0.25986895540E+02  0.18864313428E+00  0.27743646086E+02  0.51100000000E-03 0.  1.
        -12    1    3    3    0    0 -0.26259237497E+02 -0.16735031313E+02 -0.16906834253E+02  0.35432328056E+02  0.00000000000E+00 0.  1.
</event>
<event>
 7    1  0.3758561E-013  0.7246158E+02  0.7816164E-02  0.1226708E+00
        -11   -1    0    0    0    0  0.00000000000E+00  0.00000000000E+00  0.45593999997E+02  0.45594000000E+02  0.51100000000E-03 0. -1.
         11   -1    0    0    0    0 -0.00000000000E+00 -0.00000000000E+00 -0.45593999997E+02  0.45594000000E+02  0.51100000000E-03 0.  1.
    9900012    2    1    2    0    0 -0.58124891380E+01  0.54133090770E-01  0.17801428048E+02  0.72461580136E+02  0.70000012821E+02 0.  0.
        -12    1    1    2    0    0  0.58124891380E+01 -0.54133090770E-01 -0.17801428048E+02  0.18726419864E+02  0.00000000000E+00 0.  1.
         11    1    3    3    0    0 -0.29991682706E+02 -0.11844365115E+02  0.11857993786E+02  0.34356979399E+02  0.51100000000E-03 0. -1.
        -11    1    3    3    0    0 -0.93229633336E+00  0.56626509223E+01 -0.70994662469E+01  0.91289217968E+01  0.51100000000E-03 0.  1.
        -12    1    3    3    0    0  0.25111489901E+02  0.62358472831E+01  0.13042900508E+02  0.28975678941E+02  0.00000000000E+00 0.  1.
</event>
<event>
 7    1  0.3758561E-013  0.7246149E+02  0.7816164E-02  0.1226708E+00
        -11   -1    0    0    0    0  0.00000000000E+00  0.00000000000E+00  0.45593999997E+02  0.45594000000E+02  0.51100000000E-03 0.  1.
         11   -1    0    0    0    0 -0.00000000000E+00 -0.00000000000E+00 -0.45593999997E+02  0.45594000000E+02  0.51100000000E-03 0. -1.
    9900012    2    1    2    0    0 -0.69256523334E+00  0.30918168300E+01 -0.18456519946E+02  0.72461491879E+02  0.69999897849E+02 0.  0.
        -12    1    1    2    0    0  0.69256523334E+00 -0.30918168300E+01  0.18456519946E+02  0.18726508121E+02  0.00000000000E+00 0.  1.
         11    1    3    3    0    0  0.44297836408E+00 -0.23912180586E+01  0.10803928597E+01  0.26610904959E+01  0.51100000000E-03 0. -1.
        -11    1    3    3    0    0  0.14494026346E+02  0.10931643037E+02  0.19956603395E+02  0.26978577400E+02  0.51100000000E-03 0.  1.
         12    1    3    3    0    0 -0.15629569943E+02 -0.54486081485E+01 -0.39493516200E+02  0.42821823983E+02  0.00000000000E+00 0. -1.
</event>
<event>
 7    1  0.3758561E-013  0.7246155E+02  0.7816164E-02  0.1226708E+00
        -11   -1    0    0    0    0  0.00000000000E+00  0.00000000000E+00  0.45593999997E+02  0.45594000000E+02  0.51100000000E-03 0. -1.
         11   -1    0    0    0    0 -0.00000000000E+00 -0.00000000000E+00 -0.45593999997E+02  0.45594000000E+02  0.51100000000E-03 0.  1.
    9900012    2    1    2    0    0 -0.45947428903E+01 -0.15076867752E+02 -0.10112179448E+02  0.72461554084E+02  0.69999978884E+02 0.  0.
        -12    1    1    2    0    0  0.45947428903E+01  0.15076867752E+02  0.10112179448E+02  0.18726445916E+02  0.00000000000E+00 0.  1.
         11    1    3    3    0    0  0.23976644471E+02 -0.43558232518E+01  0.82507460462E+01  0.25727951470E+02  0.51100000000E-03 0. -1.
        -11    1    3    3    0    0 -0.96842575786E+01 -0.12410366849E+02  0.51172086441E+01  0.16552579097E+02  0.51100000000E-03 0.  1.
        -12    1    3    3    0    0 -0.18887129782E+02  0.16893223493E+01 -0.23480134138E+02  0.30181023518E+02  0.00000000000E+00 0.  1.
</event>
<event>
 7    1  0.3758561E-013  0.7246172E+02  0.7816164E-02  0.1226708E+00
        -11   -1    0    0    0    0  0.00000000000E+00  0.00000000000E+00  0.45593999997E+02  0.45594000000E+02  0.51100000000E-03 0. -1.
         11   -1    0    0    0    0 -0.00000000000E+00 -0.00000000000E+00 -0.45593999997E+02  0.45594000000E+02  0.51100000000E-03 0.  1.
    9900012    2    1    2    0    0  0.44821030371E+01  0.48552567351E+01  0.17521721721E+02  0.72461721735E+02  0.70000197279E+02 0.  0.
        -12    1    1    2    0    0 -0.44821030371E+01 -0.48552567351E+01 -0.17521721721E+02  0.18726278265E+02  0.00000000000E+00 0.  1.
         11    1    3    3    0    0  0.27090495690E+02  0.15745050234E+02  0.28467642766E+02  0.42334480610E+02  0.51100000000E-03 0. -1.
        -11    1    3    3    0    0 -0.14054965161E+01 -0.44940043457E+01  0.12131156722E+01  0.48624217640E+01  0.51100000000E-03 0.  1.
        -12    1    3    3    0    0 -0.21202896136E+02 -0.63957891530E+01 -0.12159036717E+02  0.25264819361E+02  0.00000000000E+00 0.  1.
</event>
<event>
 7    1  0.3758561E-013  0.7246158E+02  0.7816164E-02  0.1226708E+00
        -11   -1    0    0    0    0  0.00000000000E+00  0.00000000000E+00  0.45593999997E+02  0.45594000000E+02  0.51100000000E-03 0. -1.
         11   -1    0    0    0    0 -0.00000000000E+00 -0.00000000000E+00 -0.45593999997E+02  0.45594000000E+02  0.51100000000E-03 0.  1.
    9900012    2    1    2    0    0 -0.16117827793E+02 -0.29307089402E+01  0.90722305575E+01  0.72461580296E+02  0.70000013029E+02 0.  0.
        -12    1    1    2    0    0  0.16117827793E+02  0.29307089402E+01 -0.90722305575E+01  0.18726419704E+02  0.00000000000E+00 0.  1.
         11    1    3    3    0    0  0.29420198041E+01  0.14080000673E+02 -0.41969096169E+01  0.14983856316E+02  0.51100000000E-03 0. -1.
        -11    1    3    3    0    0 -0.20518933443E+02  0.12438626671E+02  0.14375648634E+02  0.27971509380E+02  0.51100000000E-03 0.  1.
        -12    1    3    3    0    0  0.14590858461E+01 -0.29449336284E+02 -0.11065084593E+01  0.29506214601E+02  0.00000000000E+00 0.  1.
</event>
<event>
 7    1  0.3758561E-013  0.7246158E+02  0.7816164E-02  0.1226708E+00
        -11   -1    0    0    0    0  0.00000000000E+00  0.00000000000E+00  0.45593999997E+02  0.45594000000E+02  0.51100000000E-03 0.  1.
         11   -1    0    0    0    0 -0.00000000000E+00 -0.00000000000E+00 -0.45593999997E+02  0.45594000000E+02  0.51100000000E-03 0. -1.
    9900012    2    1    2    0    0 -0.16939540196E+01  0.17648220883E+02  0.60290688182E+01  0.72461578789E+02  0.70000011066E+02 0.  0.
        -12    1    1    2    0    0  0.16939540196E+01 -0.17648220883E+02 -0.60290688182E+01  0.18726421211E+02  0.00000000000E+00 0.  1.
         11    1    3    3    0    0 -0.22032681918E+01  0.16045233749E+02 -0.15894073378E+02  0.22691969628E+02  0.51100000000E-03 0. -1.
        -11    1    3    3    0    0 -0.11662440983E+02 -0.90940807114E+01 -0.71949272210E+01  0.16446331252E+02  0.51100000000E-03 0.  1.
         12    1    3    3    0    0  0.12171755155E+02  0.10697067846E+02  0.29118069417E+02  0.33323277910E+02  0.00000000000E+00 0. -1.
</event>
<event>
 7    1  0.3758561E-013  0.7246161E+02  0.7816164E-02  0.1226708E+00
        -11   -1    0    0    0    0  0.00000000000E+00  0.00000000000E+00  0.45593999997E+02  0.45594000000E+02  0.51100000000E-03 0. -1.
         11   -1    0    0    0    0 -0.00000000000E+00 -0.00000000000E+00 -0.45593999997E+02  0.45594000000E+02  0.51100000000E-03 0.  1.
    9900012    2    1    2    0    0  0.90307686634E+01 -0.33150808362E+01  0.16066519762E+02  0.72461612178E+02  0.70000054561E+02 0.  0.
        -12    1    1    2    0    0 -0.90307686634E+01  0.33150808362E+01 -0.16066519762E+02  0.18726387822E+02  0.00000000000E+00 0.  1.
         11    1    3    3    0    0  0.11096538790E+02 -0.11100100274E+02  0.17916648519E+02  0.23819145527E+02  0.51100000000E-03 0. -1.
        -11    1    3    3    0    0  0.14049018667E+02  0.14758481585E+02  0.14213900177E+02  0.24843966324E+02  0.51100000000E-03 0.  1.
         12    1    3    3    0    0 -0.16114788793E+02 -0.69734621475E+01 -0.16064028934E+02  0.23798500326E+02  0.00000000000E+00 0. -1.
</event>
<event>
 7    1  0.3758561E-013  0.7246158E+02  0.7816164E-02  0.1226708E+00
        -11   -1    0    0    0    0  0.00000000000E+00  0.00000000000E+00  0.45593999997E+02  0.45594000000E+02  0.51100000000E-03 0.  1.
         11   -1    0    0    0    0 -0.00000000000E+00 -0.00000000000E+00 -0.45593999997E+02  0.45594000000E+02  0.51100000000E-03 0. -1.
    9900012    2    1    2    0    0 -0.14070709858E+02  0.11065770867E+02 -0.54993225916E+01  0.72461582570E+02  0.70000015992E+02 0.  0.
        -12    1    1    2    0    0  0.14070709858E+02 -0.11065770867E+02  0.54993225916E+01  0.18726417430E+02  0.00000000000E+00 0.  1.
         11    1    3    3    0    0 -0.19951931087E+02  0.23652787933E+01  0.26901486505E+02  0.33576242707E+02  0.51100000000E-03 0. -1.
        -11    1    3    3    0    0 -0.12748567926E+01 -0.45277808789E+01 -0.22993352936E+01  0.52357427919E+01  0.51100000000E-03 0.  1.
        -12    1    3    3    0    0  0.71560780214E+01  0.13228272953E+02 -0.30101473803E+02  0.33649597072E+02  0.00000000000E+00 0.  1.
</event>
<event>
 7    1  0.3758561E-013  0.7246151E+02  0.7816164E-02  0.1226708E+00
        -11   -1    0    0    0    0  0.00000000000E+00  0.00000000000E+00  0.45593999997E+02  0.45594000000E+02  0.51100000000E-03 0.  1.
         11   -1    0    0    0    0 -0.00000000000E+00 -0.00000000000E+00 -0.45593999997E+02  0.45594000000E+02  0.51100000000E-03 0. -1.
    9900012    2    1    2    0    0 -0.17900803229E+02  0.61982620675E+00 -0.54642921568E+01  0.72461509952E+02  0.69999921392E+02 0.  0.
        -12    1    1    2    0    0  0.17900803229E+02 -0.61982620675E+00  0.54642921568E+01  0.18726490048E+02  0.00000000000E+00 0.  1.
         11    1    3    3    0    0  0.87441019991E+01 -0.85848540340E+01  0.17313996159E+02  0.21211636000E+02  0.51100000000E-03 0. -1.
        -11    1    3    3    0    0 -0.28463214072E+02 -0.60273308132E+01 -0.85440326739E+01  0.30322990727E+02  0.51100000000E-03 0.  1.
         12    1    3    3    0    0  0.18183088441E+01  0.15232011054E+02 -0.14234255642E+02  0.20926883224E+02  0.00000000000E+00 0. -1.
</event>
<event>
 7    1  0.3758561E-013  0.7246158E+02  0.7816164E-02  0.1226708E+00
        -11   -1    0    0    0    0  0.00000000000E+00  0.00000000000E+00  0.45593999997E+02  0.45594000000E+02  0.51100000000E-03 0.  1.
         11   -1    0    0    0    0 -0.00000000000E+00 -0.00000000000E+00 -0.45593999997E+02  0.45594000000E+02  0.51100000000E-03 0. -1.
    9900012    2    1    2    0    0  0.14972021565E+02  0.73420668991E+01 -0.85212308896E+01  0.72461581443E+02  0.70000014523E+02 0.  0.
        -12    1    1    2    0    0 -0.14972021565E+02 -0.73420668991E+01  0.85212308896E+01  0.18726418557E+02  0.00000000000E+00 0.  1.
         11    1    3    3    0    0  0.63343993028E+01 -0.82091619973E+01 -0.14199998740E+01  0.10465722867E+02  0.51100000000E-03 0. -1.
        -11    1    3    3    0    0 -0.74572153608E+00  0.23565449261E+02  0.20829663663E+02  0.31460473424E+02  0.51100000000E-03 0.  1.
         12    1    3    3    0    0  0.93833437983E+01 -0.80142203643E+01 -0.27930894678E+02  0.30535385153E+02  0.00000000000E+00 0. -1.
</event>
<event>
 7    1  0.3758561E-013  0.7246155E+02  0.7816164E-02  0.1226708E+00
        -11   -1    0    0    0    0  0.00000000000E+00  0.00000000000E+00  0.45593999997E+02  0.45594000000E+02  0.51100000000E-03 0.  1.
         11   -1    0    0    0    0 -0.00000000000E+00 -0.00000000000E+00 -0.45593999997E+02  0.45594000000E+02  0.51100000000E-03 0. -1.
    9900012    2    1    2    0    0  0.14491389989E+01 -0.62472884558E+01 -0.17594072750E+02  0.72461547778E+02  0.69999970669E+02 0.  0.
        -12    1    1    2    0    0 -0.14491389989E+01  0.62472884558E+01  0.17594072750E+02  0.18726452222E+02  0.00000000000E+00 0.  1.
         11    1    3    3    0    0 -0.10970422760E+01  0.71163709062E+01 -0.25534572248E+02  0.26530371591E+02  0.51100000000E-03 0. -1.
        -11    1    3    3    0    0  0.15769878837E+01 -0.86644932709E+01 -0.17740286009E+02  0.19806011268E+02  0.51100000000E-03 0.  1.
        -12    1    3    3    0    0  0.96919339121E+00 -0.46991660910E+01  0.25680785507E+02  0.26125164919E+02  0.00000000000E+00 0.  1.
</event>
<event>
 7    1  0.3758561E-013  0.7246174E+02  0.7816164E-02  0.1226708E+00
        -11   -1    0    0    0    0  0.00000000000E+00  0.00000000000E+00  0.45593999997E+02  0.45594000000E+02  0.51100000000E-03 0.  1.
         11   -1    0    0    0    0 -0.00000000000E+00 -0.00000000000E+00 -0.45593999997E+02  0.45594000000E+02  0.51100000000E-03 0. -1.
    9900012    2    1    2    0    0  0.10279294643E+01  0.13415054640E+02 -0.13025069255E+02  0.72461741455E+02  0.70000222968E+02 0.  0.
        -12    1    1    2    0    0 -0.10279294643E+01 -0.13415054640E+02  0.13025069255E+02  0.18726258545E+02  0.00000000000E+00 0.  1.
         11    1    3    3    0    0  0.80778088519E+01  0.75023338007E+01  0.10546576772E+02  0.15256680182E+02  0.51100000000E-03 0. -1.
        -11    1    3    3    0    0 -0.93748787647E+01  0.12314039233E+02  0.12872389089E+02  0.20130134506E+02  0.51100000000E-03 0.  1.
         12    1    3    3    0    0  0.23249993771E+01 -0.64013183934E+01 -0.36444035116E+02  0.37074926768E+02  0.00000000000E+00 0. -1.
</event>
<event>
 7    1  0.3758561E-013  0.7246159E+02  0.7816164E-02  0.1226708E+00
        -11   -1    0    0    0    0  0.00000000000E+00  0.00000000000E+00  0.45593999997E+02  0.45594000000E+02  0.51100000000E-03 0. -1.
         11   -1    0    0    0    0 -0.00000000000E+00 -0.00000000000E+00 -0.45593999997E+02  0.45594000000E+02  0.51100000000E-03 0.  1.
    9900012    2    1    2    0    0 -0.67482340601E+01  0.17467580097E+02  0.15271089003E+00  0.72461592496E+02  0.70000028922E+02 0.  0.
        -12    1    1    2    0    0  0.67482340601E+01 -0.17467580097E+02 -0.15271089003E+00  0.18726407504E+02  0.00000000000E+00 0.  1.
         11    1    3    3    0    0  0.38486611614E+01  0.10855059464E+02  0.18307254510E+02  0.21628686429E+02  0.51100000000E-03 0. -1.
        -11    1    3    3    0    0  0.99535598031E-01  0.25625927487E+02 -0.10827867798E+02  0.27819791305E+02  0.51100000000E-03 0.  1.
         12    1    3    3    0    0 -0.10696430819E+02 -0.19013406854E+02 -0.73266758217E+01  0.23013114762E+02  0.00000000000E+00 0. -1.
</event>
<event>
 7    1  0.3758561E-013  0.7246156E+02  0.7816164E-02  0.1226708E+00
        -11   -1    0    0    0    0  0.00000000000E+00  0.00000000000E+00  0.45593999997E+02  0.45594000000E+02  0.51100000000E-03 0. -1.
         11   -1    0    0    0    0 -0.00000000000E+00 -0.00000000000E+00 -0.45593999997E+02  0.45594000000E+02  0.51100000000E-03 0.  1.
    9900012    2    1    2    0    0  0.14051222948E+02  0.11206263120E+02  0.52594887458E+01  0.72461563572E+02  0.69999991243E+02 0.  0.
        -12    1    1    2    0    0 -0.14051222948E+02 -0.11206263120E+02 -0.52594887458E+01  0.18726436428E+02  0.00000000000E+00 0.  1.
         11    1    3    3    0    0 -0.17062891750E+02 -0.26087993141E+01  0.79171435223E+01  0.18990241455E+02  0.51100000000E-03 0. -1.
        -11    1    3    3    0    0 -0.62484477716E+00 -0.12123515601E+02 -0.28980004128E+01  0.12480723865E+02  0.51100000000E-03 0.  1.
         12    1    3    3    0    0  0.31738959475E+02  0.25938578035E+02  0.24034563627E+00  0.40990598252E+02  0.00000000000E+00 0. -1.
</event>
<event>
 7    1  0.3758561E-013  0.7246153E+02  0.7816164E-02  0.1226708E+00
        -11   -1    0    0    0    0  0.00000000000E+00  0.00000000000E+00  0.45593999997E+02  0.45594000000E+02  0.51100000000E-03 0.  1.
         11   -1    0    0    0    0 -0.00000000000E+00 -0.00000000000E+00 -0.45593999997E+02  0.45594000000E+02  0.51100000000E-03 0. -1.
    9900012    2    1    2    0    0  0.84956728895E+01 -0.70782657623E+01 -0.15112983839E+02  0.72461532513E+02  0.69999950782E+02 0.  0.
        -12    1    1    2    0    0 -0.84956728895E+01  0.70782657623E+01  0.15112983839E+02  0.18726467487E+02  0.00000000000E+00 0.  1.
         11    1    3    3    0    0  0.14813810819E+02 -0.13504014693E+00 -0.10727988401E+02  0.18290898343E+02  0.51100000000E-03 0. -1.
        -11    1    3    3    0    0  0.21962296527E+02 -0.40087269541E+01  0.72164718675E+01  0.23462519622E+02  0.51100000000E-03 0.  1.
         12    1    3    3    0    0 -0.28280434456E+02 -0.29344986613E+01 -0.11601467305E+02  0.30708114547E+02  0.00000000000E+00 0. -1.
</event>
<event>
 7    1  0.3758561E-013  0.7246171E+02  0.7816164E-02  0.1226708E+00
        -11   -1    0    0    0    0  0.00000000000E+00  0.00000000000E+00  0.45593999997E+02  0.45594000000E+02  0.51100000000E-03 0. -1.
         11   -1    0    0    0    0 -0.00000000000E+00 -0.00000000000E+00 -0.45593999997E+02  0.45594000000E+02  0.51100000000E-03 0.  1.
    9900012    2    1    2    0    0 -0.56515606385E+01 -0.16943685193E+01  0.17772532582E+02  0.72461710012E+02  0.70000182008E+02 0.  0.
        -12    1    1    2    0    0  0.56515606385E+01  0.16943685193E+01 -0.17772532582E+02  0.18726289988E+02  0.00000000000E+00 0.  1.
         11    1    3    3    0    0 -0.12770271391E+02  0.13879192173E+01  0.16481447412E+02  0.20896034557E+02  0.51100000000E-03 0. -1.
        -11    1    3    3    0    0 -0.10206290619E+02 -0.12960393617E+02  0.18810996345E+02  0.25019867199E+02  0.51100000000E-03 0.  1.
        -12    1    3    3    0    0  0.17325001372E+02  0.98781058805E+01 -0.17519911175E+02  0.26545808255E+02  0.00000000000E+00 0.  1.
</event>
<event>
 7    1  0.3758561E-013  0.7246157E+02  0.7816164E-02  0.1226708E+00
        -11   -1    0    0    0    0  0.00000000000E+00  0.00000000000E+00  0.45593999997E+02  0.45594000000E+02  0.51100000000E-03 0. -1.
         11   -1    0    0    0    0 -0.00000000000E+00 -0.00000000000E+00 -0.45593999997E+02  0.45594000000E+02  0.51100000000E-03 0.  1.
    9900012    2    1    2    0    0  0.29360576514E+01  0.13801919686E+02  0.12311202458E+02  0.72461571416E+02  0.70000001461E+02 0.  0.
        -12    1    1    2    0    0 -0.29360576514E+01 -0.13801919686E+02 -0.12311202458E+02  0.18726428584E+02  0.00000000000E+00 0.  1.
         11    1    3    3    0    0 -0.57439120398E+01 -0.57959919940E+01 -0.35249117875E+01  0.88888161240E+01  0.51100000000E-03 0. -1.
        -11    1    3    3    0    0  0.86906003398E+01  0.27980811124E+02 -0.14078157585E+02  0.32506104760E+02  0.51100000000E-03 0.  1.
         12    1    3    3    0    0 -0.10630648629E-01 -0.83828994435E+01  0.29914271831E+02  0.31066650532E+02  0.00000000000E+00 0. -1.
</event>
<event>
 7    1  0.3758561E-013  0.7246160E+02  0.7816164E-02  0.1226708E+00
        -11   -1    0    0    0    0  0.00000000000E+00  0.00000000000E+00  0.45593999997E+02  0.45594000000E+02  0.51100000000E-03 0. -1.
         11   -1    0    0    0    0 -0.00000000000E+00 -0.00000000000E+00 -0.45593999997E+02  0.45594000000E+02  0.51100000000E-03 0.  1.
    9900012    2    1    2    0    0 -0.10494116196E+02 -0.91566441297E+01  0.12518278306E+02  0.72461604239E+02  0.70000044219E+02 0.  0.
        -12    1    1    2    0    0  0.10494116196E+02  0.91566441297E+01 -0.12518278306E+02  0.18726395761E+02  0.00000000000E+00 0.  1.
         11    1    3    3    0    0  0.82148504144E+01  0.67344517909E+00  0.15993412500E+02  0.17992402269E+02  0.51100000000E-03 0. -1.
        -11    1    3    3    0    0 -0.24511514774E+02  0.16871277974E+01  0.17277275179E+02  0.30036061569E+02  0.51100000000E-03 0.  1.
         12    1    3    3    0    0  0.58025481631E+01 -0.11517217106E+02 -0.20752409374E+02  0.24433140401E+02  0.00000000000E+00 0. -1.
</event>
<event>
 7    1  0.3758561E-013  0.7246157E+02  0.7816164E-02  0.1226708E+00
        -11   -1    0    0    0    0  0.00000000000E+00  0.00000000000E+00  0.45593999997E+02  0.45594000000E+02  0.51100000000E-03 0. -1.
         11   -1    0    0    0    0 -0.00000000000E+00 -0.00000000000E+00 -0.45593999997E+02  0.45594000000E+02  0.51100000000E-03 0.  1.
    9900012    2    1    2    0    0 -0.92007969641E+01 -0.65938731821E+01  0.14917950690E+02  0.72461572655E+02  0.70000003075E+02 0.  0.
        -12    1    1    2    0    0  0.92007969641E+01  0.65938731821E+01 -0.14917950690E+02  0.18726427345E+02  0.00000000000E+00 0.  1.
         11    1    3    3    0    0 -0.78679718072E+01  0.16550281639E+02 -0.82864082682E+01  0.20111722078E+02  0.51100000000E-03 0. -1.
        -11    1    3    3    0    0 -0.16738534116E+02  0.10992450226E+01  0.25420567083E+01  0.16966110825E+02  0.51100000000E-03 0.  1.
        -12    1    3    3    0    0  0.15405708959E+02 -0.24243399844E+02  0.20662302250E+02  0.35383739752E+02  0.00000000000E+00 0.  1.
</event>
<event>
 7    1  0.3758561E-013  0.7246154E+02  0.7816164E-02  0.1226708E+00
        -11   -1    0    0    0    0  0.00000000000E+00  0.00000000000E+00  0.45593999997E+02  0.45594000000E+02  0.51100000000E-03 0. -1.
         11   -1    0    0    0    0 -0.00000000000E+00 -0.00000000000E+00 -0.45593999997E+02  0.45594000000E+02  0.51100000000E-03 0.  1.
    9900012    2    1    2    0    0  0.10989503659E+02 -0.13922474444E+01  0.15098768854E+02  0.72461538387E+02  0.69999958435E+02 0.  0.
        -12    1    1    2    0    0 -0.10989503659E+02  0.13922474444E+01 -0.15098768854E+02  0.18726461613E+02  0.00000000000E+00 0.  1.
         11    1    3    3    0    0 -0.34311813080E+01 -0.15350823371E+02  0.34253307932E+02  0.37692305420E+02  0.51100000000E-03 0. -1.
        -11    1    3    3    0    0  0.30681235130E+01 -0.52727760094E+01 -0.14497020286E+01  0.62703416947E+01  0.51100000000E-03 0.  1.
         12    1    3    3    0    0  0.11352561454E+02  0.19231351936E+02 -0.17704837049E+02  0.28498891273E+02  0.00000000000E+00 0. -1.
</event>
<event>
 7    1  0.3758561E-013  0.7246151E+02  0.7816164E-02  0.1226708E+00
        -11   -1    0    0    0    0  0.00000000000E+00  0.00000000000E+00  0.45593999997E+02  0.45594000000E+02  0.51100000000E-03 0.  1.
         11   -1    0    0    0    0 -0.00000000000E+00 -0.00000000000E+00 -0.45593999997E+02  0.45594000000E+02  0.51100000000E-03 0. -1.
    9900012    2    1    2    0    0  0.50337860602E+01 -0.10023214054E+02 -0.14995916101E+02  0.72461512828E+02  0.69999925140E+02 0.  0.
        -12    1    1    2    0    0 -0.50337860602E+01  0.10023214054E+02  0.14995916101E+02  0.18726487172E+02  0.00000000000E+00 0.  1.
         11    1    3    3    0    0  0.33901129113E+01  0.13270291965E+01 -0.54332929004E+01  0.65402250758E+01  0.51100000000E-03 0. -1.
        -11    1    3    3    0    0 -0.13053154919E+02  0.95078083642E+01 -0.29439054989E+02  0.33577391682E+02  0.51100000000E-03 0.  1.
         12    1    3    3    0    0  0.14696828068E+02 -0.20858051614E+02  0.19876431788E+02  0.32343896071E+02  0.00000000000E+00 0. -1.
</event>
<event>
 7    1  0.3758561E-013  0.7246147E+02  0.7816164E-02  0.1226708E+00
        -11   -1    0    0    0    0  0.00000000000E+00  0.00000000000E+00  0.45593999997E+02  0.45594000000E+02  0.51100000000E-03 0. -1.
         11   -1    0    0    0    0 -0.00000000000E+00 -0.00000000000E+00 -0.45593999997E+02  0.45594000000E+02  0.51100000000E-03 0.  1.
    9900012    2    1    2    0    0  0.41775707327E+01 -0.10907192978E+02  0.14637759959E+02  0.72461468754E+02  0.69999867725E+02 0.  0.
        -12    1    1    2    0    0 -0.41775707327E+01  0.10907192978E+02 -0.14637759959E+02  0.18726531246E+02  0.00000000000E+00 0.  1.
         11    1    3    3    0    0 -0.19527277651E+02 -0.77677052282E+01  0.28687426669E+01  0.21210410220E+02  0.51100000000E-03 0. -1.
        -11    1    3    3    0    0 -0.11744911151E+02  0.12236627792E+01  0.10027039488E+02  0.15491346284E+02  0.51100000000E-03 0.  1.
        -12    1    3    3    0    0  0.35449759534E+02 -0.43631505287E+01  0.17419778042E+01  0.35759712250E+02  0.00000000000E+00 0.  1.
</event>
<event>
 7    1  0.3758561E-013  0.7246118E+02  0.7816164E-02  0.1226709E+00
        -11   -1    0    0    0    0  0.00000000000E+00  0.00000000000E+00  0.45593999997E+02  0.45594000000E+02  0.51100000000E-03 0.  1.
         11   -1    0    0    0    0 -0.00000000000E+00 -0.00000000000E+00 -0.45593999997E+02  0.45594000000E+02  0.51100000000E-03 0. -1.
    9900012    2    1    2    0    0 -0.56623638388E+01  0.15179717840E+02 -0.93918868617E+01  0.72461181350E+02  0.69999493325E+02 0.  0.
        -12    1    1    2    0    0  0.56623638388E+01 -0.15179717840E+02  0.93918868617E+01  0.18726818650E+02  0.00000000000E+00 0.  1.
         11    1    3    3    0    0  0.39511676108E+01  0.36669967431E+02 -0.15394271293E+02  0.39966008379E+02  0.51100000000E-03 0. -1.
        -11    1    3    3    0    0  0.54487678291E+00  0.37599567465E+01 -0.17682914243E+01  0.41905871028E+01  0.51100000000E-03 0.  1.
        -12    1    3    3    0    0 -0.10158408232E+02 -0.25250206337E+02  0.77706758554E+01  0.28304585868E+02  0.00000000000E+00 0.  1.
</event>
<event>
 7    1  0.3758561E-013  0.7246156E+02  0.7816164E-02  0.1226708E+00
        -11   -1    0    0    0    0  0.00000000000E+00  0.00000000000E+00  0.45593999997E+02  0.45594000000E+02  0.51100000000E-03 0.  1.
         11   -1    0    0    0    0 -0.00000000000E+00 -0.00000000000E+00 -0.45593999997E+02  0.45594000000E+02  0.51100000000E-03 0. -1.
    9900012    2    1    2    0    0  0.60426228276E+01 -0.32895345435E+00 -0.17721679875E+02  0.72461563109E+02  0.69999990640E+02 0.  0.
        -12    1    1    2    0    0 -0.60426228276E+01  0.32895345435E+00  0.17721679875E+02  0.18726436891E+02  0.00000000000E+00 0.  1.
         11    1    3    3    0    0  0.18134144431E+02  0.12769210122E+02  0.52354250253E+01  0.22788365383E+02  0.51100000000E-03 0. -1.
        -11    1    3    3    0    0 -0.77863288467E+01  0.68689002181E+01  0.76354925645E+01  0.12888345669E+02  0.51100000000E-03 0.  1.
        -12    1    3    3    0    0 -0.43051927565E+01 -0.19967063794E+02 -0.30592597465E+02  0.36784852058E+02  0.00000000000E+00 0.  1.
</event>
<event>
 7    1  0.3758561E-013  0.7246157E+02  0.7816164E-02  0.1226708E+00
        -11   -1    0    0    0    0  0.00000000000E+00  0.00000000000E+00  0.45593999997E+02  0.45594000000E+02  0.51100000000E-03 0. -1.
         11   -1    0    0    0    0 -0.00000000000E+00 -0.00000000000E+00 -0.45593999997E+02  0.45594000000E+02  0.51100000000E-03 0.  1.
    9900012    2    1    2    0    0  0.15197967034E+02 -0.23202920750E+00  0.10938330668E+02  0.72461571688E+02  0.70000001816E+02 0.  0.
        -12    1    1    2    0    0 -0.15197967034E+02  0.23202920750E+00 -0.10938330668E+02  0.18726428312E+02  0.00000000000E+00 0.  1.
         11    1    3    3    0    0 -0.20484367654E+01  0.11389487107E+02  0.12256060762E+02  0.16856083038E+02  0.51100000000E-03 0. -1.
        -11    1    3    3    0    0  0.24037748711E+02  0.13486747081E+02 -0.80943007114E+01  0.28726702111E+02  0.51100000000E-03 0.  1.
         12    1    3    3    0    0 -0.67913449120E+01 -0.25108263395E+02  0.67765706178E+01  0.26878786538E+02  0.00000000000E+00 0. -1.
</event>
<event>
 7    1  0.3758561E-013  0.7246158E+02  0.7816164E-02  0.1226708E+00
        -11   -1    0    0    0    0  0.00000000000E+00  0.00000000000E+00  0.45593999997E+02  0.45594000000E+02  0.51100000000E-03 0.  1.
         11   -1    0    0    0    0 -0.00000000000E+00 -0.00000000000E+00 -0.45593999997E+02  0.45594000000E+02  0.51100000000E-03 0. -1.
    9900012    2    1    2    0    0  0.13636127791E+02 -0.10775910938E+02 -0.69724044233E+01  0.72461583869E+02  0.70000017683E+02 0.  0.
        -12    1    1    2    0    0 -0.13636127791E+02  0.10775910938E+02  0.69724044233E+01  0.18726416131E+02  0.00000000000E+00 0.  1.
         11    1    3    3    0    0  0.33480485779E+01 -0.12815828789E+02 -0.11102369572E+02  0.17283446046E+02  0.51100000000E-03 0. -1.
        -11    1    3    3    0    0 -0.10506042340E+02 -0.15740503293E+02  0.16541701872E+02  0.25135000908E+02  0.51100000000E-03 0.  1.
         12    1    3    3    0    0  0.20794121553E+02  0.17780421144E+02 -0.12411736723E+02  0.30043136915E+02  0.00000000000E+00 0. -1.
</event>
<event>
 7    1  0.3758561E-013  0.7246156E+02  0.7816164E-02  0.1226708E+00
        -11   -1    0    0    0    0  0.00000000000E+00  0.00000000000E+00  0.45593999997E+02  0.45594000000E+02  0.51100000000E-03 0.  1.
         11   -1    0    0    0    0 -0.00000000000E+00 -0.00000000000E+00 -0.45593999997E+02  0.45594000000E+02  0.51100000000E-03 0. -1.
    9900012    2    1    2    0    0  0.59372431494E+01  0.11723450550E+02 -0.13341267872E+02  0.72461559403E+02  0.69999985812E+02 0.  0.
        -12    1    1    2    0    0 -0.59372431494E+01 -0.11723450550E+02  0.13341267872E+02  0.18726440597E+02  0.00000000000E+00 0.  1.
         11    1    3    3    0    0 -0.10053702948E+02  0.66877365953E+01 -0.22186271748E+02  0.25259323389E+02  0.51100000000E-03 0. -1.
        -11    1    3    3    0    0 -0.21197575154E+01 -0.13159212085E+02 -0.88707431406E+01  0.16010881261E+02  0.51100000000E-03 0.  1.
        -12    1    3    3    0    0  0.18110703612E+02  0.18194926040E+02  0.17715747017E+02  0.31191354753E+02  0.00000000000E+00 0.  1.
</event>
<event>
 7    1  0.3758561E-013  0.7246160E+02  0.7816164E-02  0.1226708E+00
        -11   -1    0    0    0    0  0.00000000000E+00  0.00000000000E+00  0.45593999997E+02  0.45594000000E+02  0.51100000000E-03 0.  1.
         11   -1    0    0    0    0 -0.00000000000E+00 -0.00000000000E+00 -0.45593999997E+02  0.45594000000E+02  0.51100000000E-03 0. -1.
    9900012    2    1    2    0    0 -0.99367829906E+01 -0.83156404253E+01 -0.13519926219E+02  0.72461603207E+02  0.70000042875E+02 0.  0.
        -12    1    1    2    0    0  0.99367829906E+01  0.83156404253E+01  0.13519926219E+02  0.18726396793E+02  0.00000000000E+00 0.  1.
         11    1    3    3    0    0  0.24379250046E+01 -0.22653169128E+02 -0.46829413566E+01  0.23260255585E+02  0.51100000000E-03 0. -1.
        -11    1    3    3    0    0 -0.15522002501E+02 -0.13332341964E+02 -0.52371440003E+01  0.21121353684E+02  0.51100000000E-03 0.  1.
        -12    1    3    3    0    0  0.31472945063E+01  0.27669870666E+02 -0.35998408616E+01  0.28079993939E+02  0.00000000000E+00 0.  1.
</event>
<event>
 7    1  0.3758561E-013  0.7246156E+02  0.7816164E-02  0.1226708E+00
        -11   -1    0    0    0    0  0.00000000000E+00  0.00000000000E+00  0.45593999997E+02  0.45594000000E+02  0.51100000000E-03 0. -1.
         11   -1    0    0    0    0 -0.00000000000E+00 -0.00000000000E+00 -0.45593999997E+02  0.45594000000E+02  0.51100000000E-03 0.  1.
    9900012    2    1    2    0    0  0.33446258427E+01  0.18382820766E+02  0.12509428222E+01  0.72461562023E+02  0.69999989225E+02 0.  0.
        -12    1    1    2    0    0 -0.33446258427E+01 -0.18382820766E+02 -0.12509428222E+01  0.18726437977E+02  0.00000000000E+00 0.  1.
         11    1    3    3    0    0  0.24413738271E+02 -0.13248137998E+02 -0.57187706043E+01  0.28359268578E+02  0.51100000000E-03 0.  1.
        -11    1    3    3    0    0 -0.67286720897E+01 -0.15035966621E+01  0.37650993120E+01  0.78556861001E+01  0.51100000000E-03 0. -1.
        -12    1    3    3    0    0 -0.14340440339E+02  0.33134555426E+02  0.32046141146E+01  0.36246607345E+02  0.00000000000E+00 0.  1.
</event>
<event>
 7    1  0.3758561E-013  0.7246197E+02  0.7816164E-02  0.1226707E+00
        -11   -1    0    0    0    0  0.00000000000E+00  0.00000000000E+00  0.45593999997E+02  0.45594000000E+02  0.51100000000E-03 0. -1.
         11   -1    0    0    0    0 -0.00000000000E+00 -0.00000000000E+00 -0.45593999997E+02  0.45594000000E+02  0.51100000000E-03 0.  1.
    9900012    2    1    2    0    0 -0.14289193295E+02 -0.11331358390E+02 -0.42524755200E+01  0.72461967958E+02  0.70000518029E+02 0.  0.
        -12    1    1    2    0    0  0.14289193295E+02  0.11331358390E+02  0.42524755200E+01  0.18726032042E+02  0.00000000000E+00 0.  1.
         11    1    3    3    0    0 -0.93319295128E+01  0.47876217628E+01 -0.29905493484E+01  0.10906402534E+02  0.51100000000E-03 0. -1.
        -11    1    3    3    0    0 -0.33487457028E+00  0.20117792732E+02 -0.12065760425E+02  0.23461037920E+02  0.51100000000E-03 0.  1.
         12    1    3    3    0    0 -0.46223892114E+01 -0.36236772885E+02  0.10803834253E+02  0.38094527504E+02  0.00000000000E+00 0. -1.
</event>
<event>
 7    1  0.3758561E-013  0.7246163E+02  0.7816164E-02  0.1226708E+00
        -11   -1    0    0    0    0  0.00000000000E+00  0.00000000000E+00  0.45593999997E+02  0.45594000000E+02  0.51100000000E-03 0.  1.
         11   -1    0    0    0    0 -0.00000000000E+00 -0.00000000000E+00 -0.45593999997E+02  0.45594000000E+02  0.51100000000E-03 0. -1.
    9900012    2    1    2    0    0 -0.68781378235E+01 -0.17123464889E+02  0.31867255740E+01  0.72461626897E+02  0.70000073735E+02 0.  0.
        -12    1    1    2    0    0  0.68781378235E+01  0.17123464889E+02 -0.31867255740E+01  0.18726373103E+02  0.00000000000E+00 0.  1.
         11    1    3    3    0    0  0.14419097340E+02  0.85132473070E+01 -0.11219804457E+02  0.20156134554E+02  0.51100000000E-03 0. -1.
        -11    1    3    3    0    0  0.80073846965E+01 -0.18168756808E+02  0.79205709618E+01  0.21376561422E+02  0.51100000000E-03 0.  1.
         12    1    3    3    0    0 -0.29304619860E+02 -0.74679553880E+01  0.64859590695E+01  0.30928930921E+02  0.00000000000E+00 0. -1.
</event>
<event>
 7    1  0.3758561E-013  0.7246150E+02  0.7816164E-02  0.1226708E+00
        -11   -1    0    0    0    0  0.00000000000E+00  0.00000000000E+00  0.45593999997E+02  0.45594000000E+02  0.51100000000E-03 0. -1.
         11   -1    0    0    0    0 -0.00000000000E+00 -0.00000000000E+00 -0.45593999997E+02  0.45594000000E+02  0.51100000000E-03 0.  1.
    9900012    2    1    2    0    0 -0.83792394357E+00 -0.10145406432E+02 -0.15717833077E+02  0.72461503669E+02  0.69999913208E+02 0.  0.
        -12    1    1    2    0    0  0.83792394357E+00  0.10145406432E+02  0.15717833077E+02  0.18726496331E+02  0.00000000000E+00 0.  1.
         11    1    3    3    0    0  0.13009792886E+02 -0.31503475090E+02 -0.90611676068E+01  0.35267951632E+02  0.51100000000E-03 0. -1.
        -11    1    3    3    0    0  0.16138126362E+01  0.14260617121E+02  0.64334787307E+01  0.15727658463E+02  0.51100000000E-03 0.  1.
         12    1    3    3    0    0 -0.15461529465E+02  0.70974515370E+01 -0.13090144201E+02  0.21465893574E+02  0.00000000000E+00 0. -1.
</event>
<event>
 7    1  0.3758561E-013  0.7246159E+02  0.7816164E-02  0.1226708E+00
        -11   -1    0    0    0    0  0.00000000000E+00  0.00000000000E+00  0.45593999997E+02  0.45594000000E+02  0.51100000000E-03 0.  1.
         11   -1    0    0    0    0 -0.00000000000E+00 -0.00000000000E+00 -0.45593999997E+02  0.45594000000E+02  0.51100000000E-03 0. -1.
    9900012    2    1    2    0    0 -0.19277164254E+01 -0.24424000497E+01 -0.18466104796E+02  0.72461589907E+02  0.70000025549E+02 0.  0.
        -12    1    1    2    0    0  0.19277164254E+01  0.24424000497E+01  0.18466104796E+02  0.18726410093E+02  0.00000000000E+00 0.  1.
         11    1    3    3    0    0 -0.12037276165E+01 -0.71557313671E+01  0.17658981587E+02  0.19091701928E+02  0.51100000000E-03 0. -1.
        -11    1    3    3    0    0 -0.91446936051E+01 -0.79701002101E+01  0.20212959378E+01  0.12297705315E+02  0.51100000000E-03 0.  1.
         12    1    3    3    0    0  0.84207047962E+01  0.12683431528E+02 -0.38146382321E+02  0.41072182664E+02  0.00000000000E+00 0. -1.
</event>
<event>
 7    1  0.3758561E-013  0.7246154E+02  0.7816164E-02  0.1226708E+00
        -11   -1    0    0    0    0  0.00000000000E+00  0.00000000000E+00  0.45593999997E+02  0.45594000000E+02  0.51100000000E-03 0. -1.
         11   -1    0    0    0    0 -0.00000000000E+00 -0.00000000000E+00 -0.45593999997E+02  0.45594000000E+02  0.51100000000E-03 0.  1.
    9900012    2    1    2    0    0 -0.14461489391E+02 -0.41842858212E+01  0.11137208215E+02  0.72461539307E+02  0.69999959634E+02 0.  0.
        -12    1    1    2    0    0  0.14461489391E+02  0.41842858212E+01 -0.11137208215E+02  0.18726460693E+02  0.00000000000E+00 0.  1.
         11    1    3    3    0    0 -0.35964165659E+02 -0.85845612498E+01  0.22601749172E+02  0.43335377803E+02  0.51100000000E-03 0. -1.
        -11    1    3    3    0    0  0.68750533566E+01  0.45177362496E+01  0.28042662167E+01  0.86913870442E+01  0.51100000000E-03 0.  1.
        -12    1    3    3    0    0  0.14627622912E+02 -0.11746082105E+00 -0.14268807174E+02  0.20434774460E+02  0.00000000000E+00 0.  1.
</event>
<event>
 7    1  0.3758561E-013  0.7246156E+02  0.7816164E-02  0.1226708E+00
        -11   -1    0    0    0    0  0.00000000000E+00  0.00000000000E+00  0.45593999997E+02  0.45594000000E+02  0.51100000000E-03 0. -1.
         11   -1    0    0    0    0 -0.00000000000E+00 -0.00000000000E+00 -0.45593999997E+02  0.45594000000E+02  0.51100000000E-03 0.  1.
    9900012    2    1    2    0    0 -0.90925843310E+01  0.13667438932E+02 -0.90114235203E+01  0.72461555312E+02  0.69999980483E+02 0.  0.
        -12    1    1    2    0    0  0.90925843310E+01 -0.13667438932E+02  0.90114235203E+01  0.18726444688E+02  0.00000000000E+00 0.  1.
         11    1    3    3    0    0 -0.64311091783E+01 -0.27634013155E+02  0.22855099403E+01  0.28464388352E+02  0.51100000000E-03 0. -1.
        -11    1    3    3    0    0 -0.26054459340E+01  0.28300003715E+01  0.17792823919E+00  0.38508322915E+01  0.51100000000E-03 0.  1.
        -12    1    3    3    0    0 -0.56029218655E-01  0.38471451715E+02 -0.11474861700E+02  0.40146334669E+02  0.00000000000E+00 0.  1.
</event>
<event>
 7    1  0.3758561E-013  0.7246158E+02  0.7816164E-02  0.1226708E+00
        -11   -1    0    0    0    0  0.00000000000E+00  0.00000000000E+00  0.45593999997E+02  0.45594000000E+02  0.51100000000E-03 0.  1.
         11   -1    0    0    0    0 -0.00000000000E+00 -0.00000000000E+00 -0.45593999997E+02  0.45594000000E+02  0.51100000000E-03 0. -1.
    9900012    2    1    2    0    0  0.16475200807E+02 -0.38648512326E+01 -0.80193234009E+01  0.72461578438E+02  0.70000010609E+02 0.  0.
        -12    1    1    2    0    0 -0.16475200807E+02  0.38648512326E+01  0.80193234009E+01  0.18726421562E+02  0.00000000000E+00 0.  1.
         11    1    3    3    0    0  0.48573907037E+01 -0.99560613307E+01 -0.13652542543E+02  0.17581505050E+02  0.51100000000E-03 0. -1.
        -11    1    3    3    0    0  0.20678994646E+02 -0.67811699301E+01  0.22847525446E+02  0.31553359638E+02  0.51100000000E-03 0.  1.
         12    1    3    3    0    0 -0.90611845424E+01  0.12872380028E+02 -0.17214306303E+02  0.23326713751E+02  0.00000000000E+00 0. -1.
</event>
<event>
 7    1  0.3758561E-013  0.7246079E+02  0.7816164E-02  0.1226710E+00
        -11   -1    0    0    0    0  0.00000000000E+00  0.00000000000E+00  0.45593999997E+02  0.45594000000E+02  0.51100000000E-03 0.  1.
         11   -1    0    0    0    0 -0.00000000000E+00 -0.00000000000E+00 -0.45593999997E+02  0.45594000000E+02  0.51100000000E-03 0. -1.
    9900012    2    1    2    0    0  0.20670755744E+00  0.17635199399E+02 -0.62980485943E+01  0.72460789798E+02  0.69998983251E+02 0.  0.
        -12    1    1    2    0    0 -0.20670755744E+00 -0.17635199399E+02  0.62980485943E+01  0.18727210202E+02  0.00000000000E+00 0.  1.
         11    1    3    3    0    0 -0.37308897199E+01  0.17040361869E+02 -0.99861722445E+01  0.20100176793E+02  0.51100000000E-03 0. -1.
        -11    1    3    3    0    0  0.16168121523E+02 -0.21526428504E+02  0.28086402292E+01  0.27068131408E+02  0.51100000000E-03 0.  1.
         12    1    3    3    0    0 -0.12230524246E+02  0.22121266034E+02  0.87948342100E+00  0.25292481597E+02  0.00000000000E+00 0. -1.
</event>
<event>
 7    1  0.3758561E-013  0.7246157E+02  0.7816164E-02  0.1226708E+00
        -11   -1    0    0    0    0  0.00000000000E+00  0.00000000000E+00  0.45593999997E+02  0.45594000000E+02  0.51100000000E-03 0.  1.
         11   -1    0    0    0    0 -0.00000000000E+00 -0.00000000000E+00 -0.45593999997E+02  0.45594000000E+02  0.51100000000E-03 0. -1.
    9900012    2    1    2    0    0  0.85435733661E+01 -0.16351405776E+02  0.32121622251E+01  0.72461572074E+02  0.70000002318E+02 0.  0.
        -12    1    1    2    0    0 -0.85435733661E+01  0.16351405776E+02 -0.32121622251E+01  0.18726427926E+02  0.00000000000E+00 0.  1.
         11    1    3    3    0    0 -0.12006415378E+02 -0.12874531451E+02 -0.13579216228E+01  0.17656486675E+02  0.51100000000E-03 0. -1.
        -11    1    3    3    0    0 -0.11565419855E+02  0.12807682363E+02  0.72054230539E+01  0.18700635967E+02  0.51100000000E-03 0.  1.
         12    1    3    3    0    0  0.32115408599E+02 -0.16284556688E+02 -0.26353392059E+01  0.36104449431E+02  0.00000000000E+00 0. -1.
</event>
<event>
 7    1  0.3758561E-013  0.7246135E+02  0.7816164E-02  0.1226709E+00
        -11   -1    0    0    0    0  0.00000000000E+00  0.00000000000E+00  0.45593999997E+02  0.45594000000E+02  0.51100000000E-03 0.  1.
         11   -1    0    0    0    0 -0.00000000000E+00 -0.00000000000E+00 -0.45593999997E+02  0.45594000000E+02  0.51100000000E-03 0. -1.
    9900012    2    1    2    0    0  0.20115286364E+01 -0.44085274805E+01 -0.18088833416E+02  0.72461354375E+02  0.69999718725E+02 0.  0.
        -12    1    1    2    0    0 -0.20115286364E+01  0.44085274805E+01  0.18088833416E+02  0.18726645625E+02  0.00000000000E+00 0.  1.
         11    1    3    3    0    0  0.18512492471E+02 -0.86940037978E+01 -0.29829273209E+02  0.36167438670E+02  0.51100000000E-03 0. -1.
        -11    1    3    3    0    0 -0.73018074517E+01 -0.15043868867E+01 -0.97128617279E+01  0.12244151876E+02  0.51100000000E-03 0.  1.
        -12    1    3    3    0    0 -0.91991563832E+01  0.57898632039E+01  0.21453301520E+02  0.24049763829E+02  0.00000000000E+00 0.  1.
</event>
<event>
 7    1  0.3758561E-013  0.7246165E+02  0.7816164E-02  0.1226708E+00
        -11   -1    0    0    0    0  0.00000000000E+00  0.00000000000E+00  0.45593999997E+02  0.45594000000E+02  0.51100000000E-03 0. -1.
         11   -1    0    0    0    0 -0.00000000000E+00 -0.00000000000E+00 -0.45593999997E+02  0.45594000000E+02  0.51100000000E-03 0.  1.
    9900012    2    1    2    0    0 -0.72739079352E+01 -0.10305151495E+02  0.13840896343E+02  0.72461647030E+02  0.70000099962E+02 0.  0.
        -12    1    1    2    0    0  0.72739079352E+01  0.10305151495E+02 -0.13840896343E+02  0.18726352970E+02  0.00000000000E+00 0.  1.
         11    1    3    3    0    0 -0.17788202476E+02 -0.77810648720E+01 -0.12677937373E+01  0.19456937557E+02  0.51100000000E-03 0. -1.
        -11    1    3    3    0    0 -0.79404540515E+01  0.45785463545E+01  0.27958093640E+02  0.29422251741E+02  0.51100000000E-03 0.  1.
         12    1    3    3    0    0  0.18454748592E+02 -0.71026329776E+01 -0.12849403560E+02  0.23582457732E+02  0.00000000000E+00 0. -1.
</event>
<event>
 7    1  0.3758561E-013  0.7246154E+02  0.7816164E-02  0.1226708E+00
        -11   -1    0    0    0    0  0.00000000000E+00  0.00000000000E+00  0.45593999997E+02  0.45594000000E+02  0.51100000000E-03 0. -1.
         11   -1    0    0    0    0 -0.00000000000E+00 -0.00000000000E+00 -0.45593999997E+02  0.45594000000E+02  0.51100000000E-03 0.  1.
    9900012    2    1    2    0    0 -0.14196515266E+01  0.16868869947E+02 -0.80066321021E+01  0.72461539006E+02  0.69999959241E+02 0.  0.
        -12    1    1    2    0    0  0.14196515266E+01 -0.16868869947E+02  0.80066321021E+01  0.18726460994E+02  0.00000000000E+00 0.  1.
         11    1    3    3    0    0  0.24218128372E+02 -0.36323738689E+01 -0.58599180289E+01  0.25180359833E+02  0.51100000000E-03 0. -1.
        -11    1    3    3    0    0 -0.46482927341E+01 -0.64152359521E+01 -0.94952920195E+01  0.12366181644E+02  0.51100000000E-03 0.  1.
         12    1    3    3    0    0 -0.20989487164E+02  0.26916479768E+02  0.73485779463E+01  0.34914997528E+02  0.00000000000E+00 0. -1.
</event>
<event>
 7    1  0.3758561E-013  0.7246162E+02  0.7816164E-02  0.1226708E+00
        -11   -1    0    0    0    0  0.00000000000E+00  0.00000000000E+00  0.45593999997E+02  0.45594000000E+02  0.51100000000E-03 0.  1.
         11   -1    0    0    0    0 -0.00000000000E+00 -0.00000000000E+00 -0.45593999997E+02  0.45594000000E+02  0.51100000000E-03 0. -1.
    9900012    2    1    2    0    0  0.13512640198E+02  0.97259358531E+01  0.85727511848E+01  0.72461619244E+02  0.70000063767E+02 0.  0.
        -12    1    1    2    0    0 -0.13512640198E+02 -0.97259358531E+01 -0.85727511848E+01  0.18726380756E+02  0.00000000000E+00 0.  1.
         11    1    3    3    0    0  0.31061272808E+02  0.71217028146E+01 -0.15349808082E+02  0.35371428128E+02  0.51100000000E-03 0. -1.
        -11    1    3    3    0    0  0.13207817191E+01 -0.21555017641E+01 -0.29667020627E+01  0.38976882372E+01  0.51100000000E-03 0.  1.
        -12    1    3    3    0    0 -0.18869414329E+02  0.47597348026E+01  0.26889261329E+02  0.33192502879E+02  0.00000000000E+00 0.  1.
</event>
<event>
 7    1  0.3758561E-013  0.7246155E+02  0.7816164E-02  0.1226708E+00
        -11   -1    0    0    0    0  0.00000000000E+00  0.00000000000E+00  0.45593999997E+02  0.45594000000E+02  0.51100000000E-03 0.  1.
         11   -1    0    0    0    0 -0.00000000000E+00 -0.00000000000E+00 -0.45593999997E+02  0.45594000000E+02  0.51100000000E-03 0. -1.
    9900012    2    1    2    0    0 -0.93681673879E+01 -0.49517416776E+01 -0.15440131038E+02  0.72461549393E+02  0.69999972773E+02 0.  0.
        -12    1    1    2    0    0  0.93681673879E+01  0.49517416776E+01  0.15440131038E+02  0.18726450607E+02  0.00000000000E+00 0.  1.
         11    1    3    3    0    0  0.17025773788E+02 -0.26916784259E+01 -0.13469713733E+02  0.21875906705E+02  0.51100000000E-03 0. -1.
        -11    1    3    3    0    0 -0.78315868199E+01  0.18698299978E+02 -0.82613588381E+01  0.21890870798E+02  0.51100000000E-03 0.  1.
         12    1    3    3    0    0 -0.18562354356E+02 -0.20958363229E+02  0.62909415334E+01  0.28694771891E+02  0.00000000000E+00 0. -1.
</event>
<event>
 7    1  0.3758561E-013  0.7246160E+02  0.7816164E-02  0.1226708E+00
        -11   -1    0    0    0    0  0.00000000000E+00  0.00000000000E+00  0.45593999997E+02  0.45594000000E+02  0.51100000000E-03 0. -1.
         11   -1    0    0    0    0 -0.00000000000E+00 -0.00000000000E+00 -0.45593999997E+02  0.45594000000E+02  0.51100000000E-03 0.  1.
    9900012    2    1    2    0    0  0.44393306224E+01 -0.13357004401E+02  0.12351556681E+02  0.72461596838E+02  0.70000034579E+02 0.  0.
        -12    1    1    2    0    0 -0.44393306224E+01  0.13357004401E+02 -0.12351556681E+02  0.18726403162E+02  0.00000000000E+00 0.  1.
         11    1    3    3    0    0 -0.12604119699E+02 -0.22532208769E+02  0.12691576787E+02  0.28768739753E+02  0.51100000000E-03 0. -1.
        -11    1    3    3    0    0  0.54833291973E+01 -0.14494318541E+02 -0.62274437352E+01  0.16701294105E+02  0.51100000000E-03 0.  1.
        -12    1    3    3    0    0  0.11560121124E+02  0.23669522909E+02  0.58874236291E+01  0.26991562980E+02  0.00000000000E+00 0.  1.
</event>
<event>
 7    1  0.3758561E-013  0.7246156E+02  0.7816164E-02  0.1226708E+00
        -11   -1    0    0    0    0  0.00000000000E+00  0.00000000000E+00  0.45593999997E+02  0.45594000000E+02  0.51100000000E-03 0. -1.
         11   -1    0    0    0    0 -0.00000000000E+00 -0.00000000000E+00 -0.45593999997E+02  0.45594000000E+02  0.51100000000E-03 0.  1.
    9900012    2    1    2    0    0  0.86357413609E+01  0.12959270858E+02  0.10400039517E+02  0.72461560083E+02  0.69999986698E+02 0.  0.
        -12    1    1    2    0    0 -0.86357413609E+01 -0.12959270858E+02 -0.10400039517E+02  0.18726439917E+02  0.00000000000E+00 0.  1.
         11    1    3    3    0    0  0.20268343699E+02 -0.14714590003E+02 -0.20615032939E+01  0.25131150219E+02  0.51100000000E-03 0. -1.
        -11    1    3    3    0    0  0.33676445873E+00 -0.77167648735E+01  0.50894509232E+01  0.92501016953E+01  0.51100000000E-03 0.  1.
        -12    1    3    3    0    0 -0.11969366797E+02  0.35390625734E+02  0.73720918877E+01  0.38080308168E+02  0.00000000000E+00 0.  1.
</event>
<event>
 7    1  0.3758561E-013  0.7246174E+02  0.7816164E-02  0.1226708E+00
        -11   -1    0    0    0    0  0.00000000000E+00  0.00000000000E+00  0.45593999997E+02  0.45594000000E+02  0.51100000000E-03 0.  1.
         11   -1    0    0    0    0 -0.00000000000E+00 -0.00000000000E+00 -0.45593999997E+02  0.45594000000E+02  0.51100000000E-03 0. -1.
    9900012    2    1    2    0    0  0.29289578614E+01  0.10183677317E+02 -0.15439782125E+02  0.72461736360E+02  0.70000216331E+02 0.  0.
        -12    1    1    2    0    0 -0.29289578614E+01 -0.10183677317E+02  0.15439782125E+02  0.18726263640E+02  0.00000000000E+00 0.  1.
         11    1    3    3    0    0 -0.57810698917E+01  0.11420295062E+02  0.62787279097E+01  0.14257150235E+02  0.51100000000E-03 0. -1.
        -11    1    3    3    0    0  0.37262587257E+01  0.23075548647E+02  0.25252761672E+01  0.23510486371E+02  0.51100000000E-03 0.  1.
         12    1    3    3    0    0  0.49837690273E+01 -0.24312166391E+02 -0.24243786202E+02  0.34694099754E+02  0.00000000000E+00 0. -1.
</event>
<event>
 7    1  0.3758561E-013  0.7246121E+02  0.7816164E-02  0.1226709E+00
        -11   -1    0    0    0    0  0.00000000000E+00  0.00000000000E+00  0.45593999997E+02  0.45594000000E+02  0.51100000000E-03 0.  1.
         11   -1    0    0    0    0 -0.00000000000E+00 -0.00000000000E+00 -0.45593999997E+02  0.45594000000E+02  0.51100000000E-03 0. -1.
    9900012    2    1    2    0    0 -0.25545422223E+01 -0.17363331519E+02  0.65331283912E+01  0.72461208124E+02  0.69999528204E+02 0.  0.
        -12    1    1    2    0    0  0.25545422223E+01  0.17363331519E+02 -0.65331283912E+01  0.18726791876E+02  0.00000000000E+00 0.  1.
         11    1    3    3    0    0 -0.41588831903E+01  0.71611529770E+01 -0.54043077829E+01  0.98886280254E+01  0.51100000000E-03 0. -1.
        -11    1    3    3    0    0 -0.13136402502E+02 -0.31236602818E+01  0.28652493461E+02  0.31674717143E+02  0.51100000000E-03 0.  1.
         12    1    3    3    0    0  0.14740743470E+02 -0.21400824214E+02 -0.16715057287E+02  0.30897862956E+02  0.00000000000E+00 0. -1.
</event>
<event>
 7    1  0.3758561E-013  0.7246158E+02  0.7816164E-02  0.1226708E+00
        -11   -1    0    0    0    0  0.00000000000E+00  0.00000000000E+00  0.45593999997E+02  0.45594000000E+02  0.51100000000E-03 0. -1.
         11   -1    0    0    0    0 -0.00000000000E+00 -0.00000000000E+00 -0.45593999997E+02  0.45594000000E+02  0.51100000000E-03 0.  1.
    9900012    2    1    2    0    0  0.18130760408E+02  0.41787050382E+01 -0.21195830515E+01  0.72461583336E+02  0.70000016990E+02 0.  0.
        -12    1    1    2    0    0 -0.18130760408E+02 -0.41787050382E+01  0.21195830515E+01  0.18726416664E+02  0.00000000000E+00 0.  1.
         11    1    3    3    0    0  0.22354523012E+02  0.23547403471E+02  0.22874710435E-01  0.32468529884E+02  0.51100000000E-03 0. -1.
        -11    1    3    3    0    0 -0.62476476734E+01  0.91803784341E+01  0.12378817878E+01  0.11173397032E+02  0.51100000000E-03 0.  1.
        -12    1    3    3    0    0  0.20238850692E+01 -0.28549076867E+02 -0.33803395497E+01  0.28819656421E+02  0.00000000000E+00 0.  1.
</event>
<event>
 7    1  0.3758561E-013  0.7246155E+02  0.7816164E-02  0.1226708E+00
        -11   -1    0    0    0    0  0.00000000000E+00  0.00000000000E+00  0.45593999997E+02  0.45594000000E+02  0.51100000000E-03 0. -1.
         11   -1    0    0    0    0 -0.00000000000E+00 -0.00000000000E+00 -0.45593999997E+02  0.45594000000E+02  0.51100000000E-03 0.  1.
    9900012    2    1    2    0    0 -0.14240873971E+02 -0.83568989023E+01  0.88340125416E+01  0.72461547365E+02  0.69999970130E+02 0.  0.
        -12    1    1    2    0    0  0.14240873971E+02  0.83568989023E+01 -0.88340125416E+01  0.18726452635E+02  0.00000000000E+00 0.  1.
         11    1    3    3    0    0  0.29040843199E+01  0.44999335292E+01 -0.55293531243E+01  0.76978473444E+01  0.51100000000E-03 0. -1.
        -11    1    3    3    0    0 -0.74333766889E+01 -0.25583795784E+02 -0.15541349963E+02  0.30843463727E+02  0.51100000000E-03 0.  1.
         12    1    3    3    0    0 -0.97115816015E+01  0.12726963352E+02  0.29904715629E+02  0.33920236294E+02  0.00000000000E+00 0. -1.
</event>
<event>
 7    1  0.3758561E-013  0.7246157E+02  0.7816164E-02  0.1226708E+00
        -11   -1    0    0    0    0  0.00000000000E+00  0.00000000000E+00  0.45593999997E+02  0.45594000000E+02  0.51100000000E-03 0.  1.
         11   -1    0    0    0    0 -0.00000000000E+00 -0.00000000000E+00 -0.45593999997E+02  0.45594000000E+02  0.51100000000E-03 0. -1.
    9900012    2    1    2    0    0  0.99602248906E+00 -0.18008526695E+02 -0.50378779420E+01  0.72461566579E+02  0.69999995160E+02 0.  0.
        -12    1    1    2    0    0 -0.99602248906E+00  0.18008526695E+02  0.50378779420E+01  0.18726433421E+02  0.00000000000E+00 0.  1.
         11    1    3    3    0    0 -0.11721395026E+02  0.12252558167E+02 -0.16103198856E+02  0.23384381468E+02  0.51100000000E-03 0. -1.
        -11    1    3    3    0    0 -0.93103834946E+01  0.10369749276E+01  0.53919143215E+00  0.93834580768E+01  0.51100000000E-03 0.  1.
        -12    1    3    3    0    0  0.22027801010E+02 -0.31298059790E+02  0.10526129482E+02  0.39693727034E+02  0.00000000000E+00 0.  1.
</event>
<event>
 7    1  0.3758561E-013  0.7246168E+02  0.7816164E-02  0.1226708E+00
        -11   -1    0    0    0    0  0.00000000000E+00  0.00000000000E+00  0.45593999997E+02  0.45594000000E+02  0.51100000000E-03 0. -1.
         11   -1    0    0    0    0 -0.00000000000E+00 -0.00000000000E+00 -0.45593999997E+02  0.45594000000E+02  0.51100000000E-03 0.  1.
    9900012    2    1    2    0    0  0.81280402587E+01  0.85453528024E+00  0.16848728556E+02  0.72461683679E+02  0.70000147705E+02 0.  0.
        -12    1    1    2    0    0 -0.81280402587E+01 -0.85453528024E+00 -0.16848728556E+02  0.18726316321E+02  0.00000000000E+00 0.  1.
         11    1    3    3    0    0  0.12179886989E+02  0.86829633062E+01  0.63183406579E+01  0.16237762400E+02  0.51100000000E-03 0. -1.
        -11    1    3    3    0    0 -0.56184791911E+01  0.11778597952E+02 -0.17592941636E+02  0.21904663289E+02  0.51100000000E-03 0.  1.
        -12    1    3    3    0    0  0.15666324608E+01 -0.19607025978E+02  0.28123329534E+02  0.34319257990E+02  0.00000000000E+00 0.  1.
</event>
<event>
 7    1  0.3758561E-013  0.7246157E+02  0.7816164E-02  0.1226708E+00
        -11   -1    0    0    0    0  0.00000000000E+00  0.00000000000E+00  0.45593999997E+02  0.45594000000E+02  0.51100000000E-03 0.  1.
         11   -1    0    0    0    0 -0.00000000000E+00 -0.00000000000E+00 -0.45593999997E+02  0.45594000000E+02  0.51100000000E-03 0. -1.
    9900012    2    1    2    0    0 -0.34655480748E+01 -0.14606807754E+02 -0.11194203211E+02  0.72461573706E+02  0.70000004444E+02 0.  0.
        -12    1    1    2    0    0  0.34655480748E+01  0.14606807754E+02  0.11194203211E+02  0.18726426294E+02  0.00000000000E+00 0.  1.
         11    1    3    3    0    0  0.25283550764E+02  0.40933518246E+01 -0.17620797926E+02  0.31088679422E+02  0.51100000000E-03 0. -1.
        -11    1    3    3    0    0  0.17003625452E+01 -0.53125760836E+01  0.58813743769E+01  0.81058782529E+01  0.51100000000E-03 0.  1.
        -12    1    3    3    0    0 -0.30449461384E+02 -0.13387583495E+02  0.54522033796E+00  0.33267016031E+02  0.00000000000E+00 0.  1.
</event>
<event>
 7    1  0.3758561E-013  0.7246156E+02  0.7816164E-02  0.1226708E+00
        -11   -1    0    0    0    0  0.00000000000E+00  0.00000000000E+00  0.45593999997E+02  0.45594000000E+02  0.51100000000E-03 0. -1.
         11   -1    0    0    0    0 -0.00000000000E+00 -0.00000000000E+00 -0.45593999997E+02  0.45594000000E+02  0.51100000000E-03 0.  1.
    9900012    2    1    2    0    0 -0.14244474689E+02 -0.30756551706E+01  0.11760727929E+02  0.72461563197E+02  0.69999990755E+02 0.  0.
        -12    1    1    2    0    0  0.14244474689E+02  0.30756551706E+01 -0.11760727929E+02  0.18726436803E+02  0.00000000000E+00 0.  1.
         11    1    3    3    0    0  0.13578165899E+02  0.53748294262E+01  0.16445772053E+02  0.21993608145E+02  0.51100000000E-03 0. -1.
        -11    1    3    3    0    0 -0.86588409727E+01  0.66815277412E+00  0.17642028684E+02  0.19663751714E+02  0.51100000000E-03 0.  1.
        -12    1    3    3    0    0 -0.19163799616E+02 -0.91186373709E+01 -0.22327072808E+02  0.30804203339E+02  0.00000000000E+00 0.  1.
</event>
<event>
 7    1  0.3758561E-013  0.7246155E+02  0.7816164E-02  0.1226708E+00
        -11   -1    0    0    0    0  0.00000000000E+00  0.00000000000E+00  0.45593999997E+02  0.45594000000E+02  0.51100000000E-03 0.  1.
         11   -1    0    0    0    0 -0.00000000000E+00 -0.00000000000E+00 -0.45593999997E+02  0.45594000000E+02  0.51100000000E-03 0. -1.
    9900012    2    1    2    0    0 -0.10314745477E+02 -0.12579042759E+02 -0.92765147979E+01  0.72461547646E+02  0.69999970496E+02 0.  0.
        -12    1    1    2    0    0  0.10314745477E+02  0.12579042759E+02  0.92765147979E+01  0.18726452354E+02  0.00000000000E+00 0.  1.
         11    1    3    3    0    0 -0.22760744333E+02 -0.86123714788E+01 -0.34034049381E+02  0.41839466328E+02  0.51100000000E-03 0. -1.
        -11    1    3    3    0    0  0.17815027828E+01  0.10824233934E+01 -0.98397349412E+00  0.23051240023E+01  0.51100000000E-03 0.  1.
        -12    1    3    3    0    0  0.10664496073E+02 -0.50490946733E+01  0.25741508078E+02  0.28316957316E+02  0.00000000000E+00 0.  1.
</event>
<event>
 7    1  0.3758561E-013  0.7246163E+02  0.7816164E-02  0.1226708E+00
        -11   -1    0    0    0    0  0.00000000000E+00  0.00000000000E+00  0.45593999997E+02  0.45594000000E+02  0.51100000000E-03 0. -1.
         11   -1    0    0    0    0 -0.00000000000E+00 -0.00000000000E+00 -0.45593999997E+02  0.45594000000E+02  0.51100000000E-03 0.  1.
    9900012    2    1    2    0    0  0.17450127530E+01 -0.10617345923E+02  0.15326570071E+02  0.72461632117E+02  0.70000080535E+02 0.  0.
        -12    1    1    2    0    0 -0.17450127530E+01  0.10617345923E+02 -0.15326570071E+02  0.18726367883E+02  0.00000000000E+00 0.  1.
         11    1    3    3    0    0 -0.18972318555E+02  0.35456388663E+01  0.28561797734E+02  0.34471679918E+02  0.51100000000E-03 0.  1.
        -11    1    3    3    0    0  0.75458836428E+01 -0.18952926704E+02 -0.29644337426E+01  0.20614113085E+02  0.51100000000E-03 0. -1.
        -12    1    3    3    0    0  0.13171447665E+02  0.47899419142E+01 -0.10270793921E+02  0.17375839114E+02  0.00000000000E+00 0.  1.
</event>
<event>
 7    1  0.3758561E-013  0.7246158E+02  0.7816164E-02  0.1226708E+00
        -11   -1    0    0    0    0  0.00000000000E+00  0.00000000000E+00  0.45593999997E+02  0.45594000000E+02  0.51100000000E-03 0. -1.
         11   -1    0    0    0    0 -0.00000000000E+00 -0.00000000000E+00 -0.45593999997E+02  0.45594000000E+02  0.51100000000E-03 0.  1.
    9900012    2    1    2    0    0  0.43924697518E+01 -0.17230546513E+02  0.58730950692E+01  0.72461580979E+02  0.70000013919E+02 0.  0.
        -12    1    1    2    0    0 -0.43924697518E+01  0.17230546513E+02 -0.58730950692E+01  0.18726419021E+02  0.00000000000E+00 0.  1.
         11    1    3    3    0    0 -0.96489347858E+01 -0.65923538082E+01  0.28575363384E+01  0.12030236299E+02  0.51100000000E-03 0. -1.
        -11    1    3    3    0    0 -0.13593288780E+02 -0.17580720997E+01 -0.19402624355E+02  0.23755634058E+02  0.51100000000E-03 0.  1.
        -12    1    3    3    0    0  0.27634693317E+02 -0.88801206053E+01  0.22418183086E+02  0.36675710622E+02  0.00000000000E+00 0.  1.
</event>
<event>
 7    1  0.3758561E-013  0.7246158E+02  0.7816164E-02  0.1226708E+00
        -11   -1    0    0    0    0  0.00000000000E+00  0.00000000000E+00  0.45593999997E+02  0.45594000000E+02  0.51100000000E-03 0.  1.
         11   -1    0    0    0    0 -0.00000000000E+00 -0.00000000000E+00 -0.45593999997E+02  0.45594000000E+02  0.51100000000E-03 0. -1.
    9900012    2    1    2    0    0 -0.10349467265E+02  0.10181899637E+01 -0.15573397139E+02  0.72461577974E+02  0.70000010004E+02 0.  0.
        -12    1    1    2    0    0  0.10349467265E+02 -0.10181899637E+01  0.15573397139E+02  0.18726422026E+02  0.00000000000E+00 0.  1.
         11    1    3    3    0    0 -0.31741629588E+02  0.80858048096E+01 -0.15018555489E+02  0.36034265604E+02  0.51100000000E-03 0. -1.
        -11    1    3    3    0    0 -0.68133264512E+01 -0.14951764114E+01  0.27277742000E+01  0.74898412653E+01  0.51100000000E-03 0.  1.
        -12    1    3    3    0    0  0.28205488775E+02 -0.55724384344E+01 -0.32826158498E+01  0.28937471105E+02  0.00000000000E+00 0.  1.
</event>
<event>
 7    1  0.3758561E-013  0.7246157E+02  0.7816164E-02  0.1226708E+00
        -11   -1    0    0    0    0  0.00000000000E+00  0.00000000000E+00  0.45593999997E+02  0.45594000000E+02  0.51100000000E-03 0.  1.
         11   -1    0    0    0    0 -0.00000000000E+00 -0.00000000000E+00 -0.45593999997E+02  0.45594000000E+02  0.51100000000E-03 0. -1.
    9900012    2    1    2    0    0 -0.47347079909E+01 -0.13099250323E+02 -0.12516840197E+02  0.72461571955E+02  0.70000002164E+02 0.  0.
        -12    1    1    2    0    0  0.47347079909E+01  0.13099250323E+02  0.12516840197E+02  0.18726428045E+02  0.00000000000E+00 0.  1.
         11    1    3    3    0    0 -0.22579480342E+02 -0.15572567933E+02 -0.11408355205E+02  0.29706705864E+02  0.51100000000E-03 0. -1.
        -11    1    3    3    0    0 -0.20389264158E+01  0.19570655222E+01  0.16165466579E+02  0.16410656183E+02  0.51100000000E-03 0.  1.
         12    1    3    3    0    0  0.19883698766E+02  0.51625208701E+00 -0.17273951571E+02  0.26344209909E+02  0.00000000000E+00 0. -1.
</event>
<event>
 7    1  0.3758561E-013  0.7246155E+02  0.7816164E-02  0.1226708E+00
        -11   -1    0    0    0    0  0.00000000000E+00  0.00000000000E+00  0.45593999997E+02  0.45594000000E+02  0.51100000000E-03 0. -1.
         11   -1    0    0    0    0 -0.00000000000E+00 -0.00000000000E+00 -0.45593999997E+02  0.45594000000E+02  0.51100000000E-03 0.  1.
    9900012    2    1    2    0    0 -0.65927020089E+01 -0.11526798489E+02  0.13204132057E+02  0.72461550615E+02  0.69999974364E+02 0.  0.
        -12    1    1    2    0    0  0.65927020089E+01  0.11526798489E+02 -0.13204132057E+02  0.18726449385E+02  0.00000000000E+00 0.  1.
         11    1    3    3    0    0 -0.83564020018E+01  0.10703689066E+02  0.10917593200E+02  0.17423898977E+02  0.51100000000E-03 0. -1.
        -11    1    3    3    0    0  0.71631528821E+01  0.12722800994E+02 -0.98870627651E+01  0.17633333058E+02  0.51100000000E-03 0.  1.
        -12    1    3    3    0    0 -0.53994528892E+01 -0.34953288549E+02  0.12173601622E+02  0.37404318579E+02  0.00000000000E+00 0.  1.
</event>
<event>
 7    1  0.3758561E-013  0.7246157E+02  0.7816164E-02  0.1226708E+00
        -11   -1    0    0    0    0  0.00000000000E+00  0.00000000000E+00  0.45593999997E+02  0.45594000000E+02  0.51100000000E-03 0. -1.
         11   -1    0    0    0    0 -0.00000000000E+00 -0.00000000000E+00 -0.45593999997E+02  0.45594000000E+02  0.51100000000E-03 0.  1.
    9900012    2    1    2    0    0  0.95422940014E+01 -0.14983137348E+02  0.59270157521E+01  0.72461566935E+02  0.69999995624E+02 0.  0.
        -12    1    1    2    0    0 -0.95422940014E+01  0.14983137348E+02 -0.59270157521E+01  0.18726433065E+02  0.00000000000E+00 0.  1.
         11    1    3    3    0    0 -0.10196977585E+02  0.67796091110E+00  0.37982509991E+01  0.10902508600E+02  0.51100000000E-03 0. -1.
        -11    1    3    3    0    0 -0.10420459500E+02 -0.78840834526E+01  0.21297656697E+02  0.24986695042E+02  0.51100000000E-03 0.  1.
         12    1    3    3    0    0  0.30159731086E+02 -0.77770148070E+01 -0.19168891944E+02  0.36572363293E+02  0.00000000000E+00 0. -1.
</event>
<event>
 7    1  0.3758561E-013  0.7246154E+02  0.7816164E-02  0.1226708E+00
        -11   -1    0    0    0    0  0.00000000000E+00  0.00000000000E+00  0.45593999997E+02  0.45594000000E+02  0.51100000000E-03 0. -1.
         11   -1    0    0    0    0 -0.00000000000E+00 -0.00000000000E+00 -0.45593999997E+02  0.45594000000E+02  0.51100000000E-03 0.  1.
    9900012    2    1    2    0    0 -0.15485366443E+02  0.56391850400E+01  0.88928702723E+01  0.72461544823E+02  0.69999966819E+02 0.  0.
        -12    1    1    2    0    0  0.15485366443E+02 -0.56391850400E+01 -0.88928702723E+01  0.18726455177E+02  0.00000000000E+00 0.  1.
         11    1    3    3    0    0 -0.11693833220E+02  0.27168573010E+01 -0.17752212037E+02  0.21430540857E+02  0.51100000000E-03 0. -1.
        -11    1    3    3    0    0  0.16550942973E+02 -0.35010064996E+01  0.24100065357E-01  0.16917190691E+02  0.51100000000E-03 0.  1.
         12    1    3    3    0    0 -0.20342476196E+02  0.64233342387E+01  0.26620982244E+02  0.34113813275E+02  0.00000000000E+00 0. -1.
</event>
<event>
 7    1  0.3758561E-013  0.7246166E+02  0.7816164E-02  0.1226708E+00
        -11   -1    0    0    0    0  0.00000000000E+00  0.00000000000E+00  0.45593999997E+02  0.45594000000E+02  0.51100000000E-03 0.  1.
         11   -1    0    0    0    0 -0.00000000000E+00 -0.00000000000E+00 -0.45593999997E+02  0.45594000000E+02  0.51100000000E-03 0. -1.
    9900012    2    1    2    0    0 -0.25443031051E+01 -0.15500140084E+02  0.10195481393E+02  0.72461663953E+02  0.70000122008E+02 0.  0.
        -12    1    1    2    0    0  0.25443031051E+01  0.15500140084E+02 -0.10195481393E+02  0.18726336047E+02  0.00000000000E+00 0.  1.
         11    1    3    3    0    0 -0.14859268810E+02 -0.98140822834E+01 -0.41641403451E+01  0.18288087535E+02  0.51100000000E-03 0.  1.
        -11    1    3    3    0    0 -0.11995739888E+02  0.11775934624E+02  0.17270030655E+02  0.24100298148E+02  0.51100000000E-03 0. -1.
         12    1    3    3    0    0  0.24310705593E+02 -0.17461992424E+02 -0.29104089165E+01  0.30073278270E+02  0.00000000000E+00 0. -1.
</event>
<event>
 7    1  0.3758561E-013  0.7246104E+02  0.7816164E-02  0.1226709E+00
        -11   -1    0    0    0    0  0.00000000000E+00  0.00000000000E+00  0.45593999997E+02  0.45594000000E+02  0.51100000000E-03 0. -1.
         11   -1    0    0    0    0 -0.00000000000E+00 -0.00000000000E+00 -0.45593999997E+02  0.45594000000E+02  0.51100000000E-03 0.  1.
    9900012    2    1    2    0    0  0.17689058179E+02  0.42873760684E+01  0.44062200203E+01  0.72461036880E+02  0.69999305126E+02 0.  0.
        -12    1    1    2    0    0 -0.17689058179E+02 -0.42873760684E+01 -0.44062200203E+01  0.18726963120E+02  0.00000000000E+00 0.  1.
         11    1    3    3    0    0  0.51983012175E+01  0.15385440284E+02  0.10467296376E+02  0.19320931705E+02  0.51100000000E-03 0. -1.
        -11    1    3    3    0    0 -0.11199496817E+02  0.10604231497E+02 -0.13116360128E+02  0.20246415926E+02  0.51100000000E-03 0.  1.
        -12    1    3    3    0    0  0.23690253779E+02 -0.21702295712E+02  0.70552837729E+01  0.32893689249E+02  0.00000000000E+00 0.  1.
</event>
<event>
 7    1  0.3758561E-013  0.7246149E+02  0.7816164E-02  0.1226708E+00
        -11   -1    0    0    0    0  0.00000000000E+00  0.00000000000E+00  0.45593999997E+02  0.45594000000E+02  0.51100000000E-03 0.  1.
         11   -1    0    0    0    0 -0.00000000000E+00 -0.00000000000E+00 -0.45593999997E+02  0.45594000000E+02  0.51100000000E-03 0. -1.
    9900012    2    1    2    0    0 -0.10384805557E+02  0.55958999103E+01 -0.14543864642E+02  0.72461487218E+02  0.69999891777E+02 0.  0.
        -12    1    1    2    0    0  0.10384805557E+02 -0.55958999103E+01  0.14543864642E+02  0.18726512782E+02  0.00000000000E+00 0.  1.
         11    1    3    3    0    0  0.46556112259E+01  0.17318567352E+02 -0.27706918186E+02  0.33004254371E+02  0.51100000000E-03 0. -1.
        -11    1    3    3    0    0  0.55180765585E+01  0.36921676226E+01  0.12025233881E+02  0.13736357626E+02  0.51100000000E-03 0.  1.
        -12    1    3    3    0    0 -0.20558493342E+02 -0.15414835064E+02  0.11378196628E+01  0.25720875221E+02  0.00000000000E+00 0.  1.
</event>
<event>
 7    1  0.3758561E-013  0.7246231E+02  0.7816164E-02  0.1226706E+00
        -11   -1    0    0    0    0  0.00000000000E+00  0.00000000000E+00  0.45593999997E+02  0.45594000000E+02  0.51100000000E-03 0.  1.
         11   -1    0    0    0    0 -0.00000000000E+00 -0.00000000000E+00 -0.45593999997E+02  0.45594000000E+02  0.51100000000E-03 0. -1.
    9900012    2    1    2    0    0 -0.15585264787E+02  0.83499758424E+01 -0.61667489267E+01  0.72462312633E+02  0.70000967027E+02 0.  0.
        -12    1    1    2    0    0  0.15585264787E+02 -0.83499758424E+01  0.61667489267E+01  0.18725687367E+02  0.00000000000E+00 0.  1.
         11    1    3    3    0    0 -0.17080182171E+02 -0.89942240101E+01 -0.30162980308E+02  0.35811088644E+02  0.51100000000E-03 0. -1.
        -11    1    3    3    0    0 -0.33641664273E+01 -0.40615324318E+01  0.21899563986E+01  0.57104790284E+01  0.51100000000E-03 0.  1.
        -12    1    3    3    0    0  0.48590838111E+01  0.21405732284E+02  0.21806274982E+02  0.30940744961E+02  0.00000000000E+00 0.  1.
</event>
<event>
 7    1  0.3758561E-013  0.7246160E+02  0.7816164E-02  0.1226708E+00
        -11   -1    0    0    0    0  0.00000000000E+00  0.00000000000E+00  0.45593999997E+02  0.45594000000E+02  0.51100000000E-03 0.  1.
         11   -1    0    0    0    0 -0.00000000000E+00 -0.00000000000E+00 -0.45593999997E+02  0.45594000000E+02  0.51100000000E-03 0. -1.
    9900012    2    1    2    0    0  0.18211899450E+01  0.89173720415E+01 -0.16365871061E+02  0.72461601720E+02  0.70000040938E+02 0.  0.
        -12    1    1    2    0    0 -0.18211899450E+01 -0.89173720415E+01  0.16365871061E+02  0.18726398280E+02  0.00000000000E+00 0.  1.
         11    1    3    3    0    0 -0.10306389667E+02  0.90399027108E+01  0.28732263593E+01  0.14007031769E+02  0.51100000000E-03 0. -1.
        -11    1    3    3    0    0 -0.10737686012E+02 -0.43668333984E+00  0.14283784718E+02  0.17874985297E+02  0.51100000000E-03 0.  1.
         12    1    3    3    0    0  0.22865265624E+02  0.31415267049E+00 -0.33522882138E+02  0.40579584655E+02  0.00000000000E+00 0. -1.
</event>
<event>
 7    1  0.3758561E-013  0.7246155E+02  0.7816164E-02  0.1226708E+00
        -11   -1    0    0    0    0  0.00000000000E+00  0.00000000000E+00  0.45593999997E+02  0.45594000000E+02  0.51100000000E-03 0. -1.
         11   -1    0    0    0    0 -0.00000000000E+00 -0.00000000000E+00 -0.45593999997E+02  0.45594000000E+02  0.51100000000E-03 0.  1.
    9900012    2    1    2    0    0 -0.18802797346E+01  0.12711566349E+02  0.13622059807E+02  0.72461551210E+02  0.69999975139E+02 0.  0.
        -12    1    1    2    0    0  0.18802797346E+01 -0.12711566349E+02 -0.13622059807E+02  0.18726448790E+02  0.00000000000E+00 0.  1.
         11    1    3    3    0    0  0.15822425837E+02 -0.70502583132E+01 -0.12334953337E+02  0.21265144621E+02  0.51100000000E-03 0. -1.
        -11    1    3    3    0    0  0.28844262886E+01 -0.78307897463E+01  0.46288884867E+00  0.83579572512E+01  0.51100000000E-03 0.  1.
        -12    1    3    3    0    0 -0.20587131860E+02  0.27592614408E+02  0.25494124295E+02  0.42838449338E+02  0.00000000000E+00 0.  1.
</event>
<event>
 7    1  0.3758561E-013  0.7246143E+02  0.7816164E-02  0.1226708E+00
        -11   -1    0    0    0    0  0.00000000000E+00  0.00000000000E+00  0.45593999997E+02  0.45594000000E+02  0.51100000000E-03 0.  1.
         11   -1    0    0    0    0 -0.00000000000E+00 -0.00000000000E+00 -0.45593999997E+02  0.45594000000E+02  0.51100000000E-03 0. -1.
    9900012    2    1    2    0    0 -0.10613002944E+02  0.15327255203E+02 -0.17674370841E+01  0.72461430176E+02  0.69999817469E+02 0.  0.
        -12    1    1    2    0    0  0.10613002944E+02 -0.15327255203E+02  0.17674370841E+01  0.18726569824E+02  0.00000000000E+00 0.  1.
         11    1    3    3    0    0 -0.37150671076E+01 -0.97838094877E+00  0.47812698051E+01  0.61334732497E+01  0.51100000000E-03 0. -1.
        -11    1    3    3    0    0  0.12437754883E+02  0.11376448713E+02  0.24308659997E+02  0.29580944592E+02  0.51100000000E-03 0.  1.
         12    1    3    3    0    0 -0.19335690719E+02  0.49291874384E+01 -0.30857366886E+02  0.36747012335E+02  0.00000000000E+00 0. -1.
</event>
<event>
 7    1  0.3758561E-013  0.7246157E+02  0.7816164E-02  0.1226708E+00
        -11   -1    0    0    0    0  0.00000000000E+00  0.00000000000E+00  0.45593999997E+02  0.45594000000E+02  0.51100000000E-03 0. -1.
         11   -1    0    0    0    0 -0.00000000000E+00 -0.00000000000E+00 -0.45593999997E+02  0.45594000000E+02  0.51100000000E-03 0.  1.
    9900012    2    1    2    0    0 -0.25427145256E+01 -0.15427882144E+02  0.10305067581E+02  0.72461565143E+02  0.69999993289E+02 0.  0.
        -12    1    1    2    0    0  0.25427145256E+01  0.15427882144E+02 -0.10305067581E+02  0.18726434857E+02  0.00000000000E+00 0.  1.
         11    1    3    3    0    0  0.25664680593E+01  0.18467703604E+00  0.44718672030E+01  0.51593081367E+01  0.51100000000E-03 0. -1.
        -11    1    3    3    0    0  0.24013662598E+01  0.23434053925E+02 -0.84882208741E+01  0.25039395702E+02  0.51100000000E-03 0.  1.
         12    1    3    3    0    0 -0.75105488447E+01 -0.39046613105E+02  0.14321421252E+02  0.42262861304E+02  0.00000000000E+00 0. -1.
</event>
<event>
 7    1  0.3758561E-013  0.7246157E+02  0.7816164E-02  0.1226708E+00
        -11   -1    0    0    0    0  0.00000000000E+00  0.00000000000E+00  0.45593999997E+02  0.45594000000E+02  0.51100000000E-03 0. -1.
         11   -1    0    0    0    0 -0.00000000000E+00 -0.00000000000E+00 -0.45593999997E+02  0.45594000000E+02  0.51100000000E-03 0.  1.
    9900012    2    1    2    0    0  0.48254367609E+01 -0.16648557966E+02 -0.70866030632E+01  0.72461567738E+02  0.69999996670E+02 0.  0.
        -12    1    1    2    0    0 -0.48254367609E+01  0.16648557966E+02  0.70866030632E+01  0.18726432262E+02  0.00000000000E+00 0.  1.
         11    1    3    3    0    0 -0.91747943440E+01  0.10749368686E+02  0.14885300414E+00  0.14133221002E+02  0.51100000000E-03 0. -1.
        -11    1    3    3    0    0 -0.51697870766E+01 -0.10533521936E+02 -0.24733371873E+02  0.27375563323E+02  0.51100000000E-03 0.  1.
        -12    1    3    3    0    0  0.19170018181E+02 -0.16864404716E+02  0.17497915805E+02  0.30952783413E+02  0.00000000000E+00 0.  1.
</event>
<event>
 7    1  0.3758561E-013  0.7246156E+02  0.7816164E-02  0.1226708E+00
        -11   -1    0    0    0    0  0.00000000000E+00  0.00000000000E+00  0.45593999997E+02  0.45594000000E+02  0.51100000000E-03 0.  1.
         11   -1    0    0    0    0 -0.00000000000E+00 -0.00000000000E+00 -0.45593999997E+02  0.45594000000E+02  0.51100000000E-03 0. -1.
    9900012    2    1    2    0    0 -0.29405182729E+01  0.18489755688E+02 -0.40229948436E+00  0.72461559922E+02  0.69999986488E+02 0.  0.
        -12    1    1    2    0    0  0.29405182729E+01 -0.18489755688E+02  0.40229948436E+00  0.18726440078E+02  0.00000000000E+00 0.  1.
         11    1    3    3    0    0 -0.99457961722E+01  0.15084074948E+02  0.16503484508E+02  0.24470659568E+02  0.51100000000E-03 0.  1.
        -11    1    3    3    0    0 -0.59620363958E+01 -0.13257144657E+02 -0.21908611487E+02  0.26292299634E+02  0.51100000000E-03 0. -1.
         12    1    3    3    0    0  0.12967314295E+02  0.16662825398E+02  0.50028274952E+01  0.21698600720E+02  0.00000000000E+00 0. -1.
</event>
<event>
 7    1  0.3758561E-013  0.7246161E+02  0.7816164E-02  0.1226708E+00
        -11   -1    0    0    0    0  0.00000000000E+00  0.00000000000E+00  0.45593999997E+02  0.45594000000E+02  0.51100000000E-03 0.  1.
         11   -1    0    0    0    0 -0.00000000000E+00 -0.00000000000E+00 -0.45593999997E+02  0.45594000000E+02  0.51100000000E-03 0. -1.
    9900012    2    1    2    0    0 -0.75891750677E+01 -0.10337196929E+02 -0.13646404131E+02  0.72461613155E+02  0.70000055834E+02 0.  0.
        -12    1    1    2    0    0  0.75891750677E+01  0.10337196929E+02  0.13646404131E+02  0.18726386845E+02  0.00000000000E+00 0.  1.
         11    1    3    3    0    0 -0.10083328946E+02 -0.88644781630E+01 -0.21243032357E+02  0.25130040186E+02  0.51100000000E-03 0. -1.
        -11    1    3    3    0    0  0.22353043525E+02  0.30099643819E+01 -0.53819008779E+01  0.23187999002E+02  0.51100000000E-03 0.  1.
         12    1    3    3    0    0 -0.19858889647E+02 -0.44826831482E+01  0.12978529105E+02  0.24143573967E+02  0.00000000000E+00 0. -1.
</event>
<event>
 7    1  0.3758561E-013  0.7246159E+02  0.7816164E-02  0.1226708E+00
        -11   -1    0    0    0    0  0.00000000000E+00  0.00000000000E+00  0.45593999997E+02  0.45594000000E+02  0.51100000000E-03 0.  1.
         11   -1    0    0    0    0 -0.00000000000E+00 -0.00000000000E+00 -0.45593999997E+02  0.45594000000E+02  0.51100000000E-03 0. -1.
    9900012    2    1    2    0    0 -0.97732619215E+01  0.15701613358E+02 -0.29361529538E+01  0.72461593383E+02  0.70000030077E+02 0.  0.
        -12    1    1    2    0    0  0.97732619215E+01 -0.15701613358E+02  0.29361529538E+01  0.18726406617E+02  0.00000000000E+00 0.  1.
         11    1    3    3    0    0 -0.50872160374E+01 -0.11867880633E+02 -0.82267192358E+01  0.15310299389E+02  0.51100000000E-03 0. -1.
        -11    1    3    3    0    0  0.16009554629E+02  0.22304171640E+02  0.17494530561E+02  0.32555191779E+02  0.51100000000E-03 0.  1.
         12    1    3    3    0    0 -0.20695600513E+02  0.52653223505E+01 -0.12203964279E+02  0.24596102215E+02  0.00000000000E+00 0. -1.
</event>
<event>
 7    1  0.5054095E-013  0.7246152E+02  0.7816164E-02  0.1226708E+00
        -11   -1    0    0    0    0  0.00000000000E+00  0.00000000000E+00  0.45593999997E+02  0.45594000000E+02  0.51100000000E-03 0. -1.
         11   -1    0    0    0    0 -0.00000000000E+00 -0.00000000000E+00 -0.45593999997E+02  0.45594000000E+02  0.51100000000E-03 0.  1.
    9900012    2    1    2    0    0 -0.14825901766E+02 -0.63884588763E+00  0.11422146428E+02  0.72461523657E+02  0.69999939246E+02 0.  0.
        -12    1    1    2    0    0  0.14825901766E+02  0.63884588763E+00 -0.11422146428E+02  0.18726476343E+02  0.00000000000E+00 0.  1.
         11    1    3    3    0    0 -0.20312526022E+02  0.58944426446E+01  0.30641602578E+02  0.37232391493E+02  0.51100000000E-03 0. -1.
        -11    1    3    3    0    0  0.30876533426E+01  0.96428576476E+01 -0.17444114989E+00  0.10126635016E+02  0.51100000000E-03 0.  1.
        -12    1    3    3    0    0  0.23989709134E+01 -0.16176146180E+02 -0.19045015000E+02  0.25102497148E+02  0.00000000000E+00 0.  1.
</event>
<event>
 7    1  0.3758561E-013  0.7246159E+02  0.7816164E-02  0.1226708E+00
        -11   -1    0    0    0    0  0.00000000000E+00  0.00000000000E+00  0.45593999997E+02  0.45594000000E+02  0.51100000000E-03 0. -1.
         11   -1    0    0    0    0 -0.00000000000E+00 -0.00000000000E+00 -0.45593999997E+02  0.45594000000E+02  0.51100000000E-03 0.  1.
    9900012    2    1    2    0    0 -0.69838987037E+01  0.43554162833E+01  0.16820638936E+02  0.72461591206E+02  0.70000027242E+02 0.  0.
        -12    1    1    2    0    0  0.69838987037E+01 -0.43554162833E+01 -0.16820638936E+02  0.18726408794E+02  0.00000000000E+00 0.  1.
         11    1    3    3    0    0 -0.24339287918E+02  0.10631714296E+02 -0.86478939027E+01  0.27932424786E+02  0.51100000000E-03 0. -1.
        -11    1    3    3    0    0  0.35412977841E+01 -0.88080070987E+01 -0.51811228436E+01  0.10815073427E+02  0.51100000000E-03 0.  1.
        -12    1    3    3    0    0  0.13814091430E+02  0.25317090860E+01  0.30649655682E+02  0.33714092993E+02  0.00000000000E+00 0.  1.
</event>
<event>
 7    1  0.3758561E-013  0.7246150E+02  0.7816164E-02  0.1226708E+00
        -11   -1    0    0    0    0  0.00000000000E+00  0.00000000000E+00  0.45593999997E+02  0.45594000000E+02  0.51100000000E-03 0. -1.
         11   -1    0    0    0    0 -0.00000000000E+00 -0.00000000000E+00 -0.45593999997E+02  0.45594000000E+02  0.51100000000E-03 0.  1.
    9900012    2    1    2    0    0 -0.18109531728E+02 -0.39916501054E+01 -0.26064133451E+01  0.72461500047E+02  0.69999908490E+02 0.  0.
        -12    1    1    2    0    0  0.18109531728E+02  0.39916501054E+01  0.26064133451E+01  0.18726499953E+02  0.00000000000E+00 0.  1.
         11    1    3    3    0    0  0.14297826610E+02  0.69303091392E+01 -0.30892119210E+01  0.16186422121E+02  0.51100000000E-03 0. -1.
        -11    1    3    3    0    0  0.33645400621E+00  0.12793712367E+02 -0.78243162109E+01  0.15000406723E+02  0.51100000000E-03 0.  1.
         12    1    3    3    0    0 -0.32743812344E+02 -0.23715671612E+02  0.83071147868E+01  0.41274671203E+02  0.00000000000E+00 0. -1.
</event>
<event>
 7    1  0.3758561E-013  0.7246146E+02  0.7816164E-02  0.1226708E+00
        -11   -1    0    0    0    0  0.00000000000E+00  0.00000000000E+00  0.45593999997E+02  0.45594000000E+02  0.51100000000E-03 0. -1.
         11   -1    0    0    0    0 -0.00000000000E+00 -0.00000000000E+00 -0.45593999997E+02  0.45594000000E+02  0.51100000000E-03 0.  1.
    9900012    2    1    2    0    0 -0.11456077785E+02  0.13922771119E+02 -0.50594419118E+01  0.72461461977E+02  0.69999858897E+02 0.  0.
        -12    1    1    2    0    0  0.11456077785E+02 -0.13922771119E+02  0.50594419118E+01  0.18726538023E+02  0.00000000000E+00 0.  1.
         11    1    3    3    0    0  0.10052319052E+02  0.15148152346E+01 -0.19795936445E+02  0.22253603832E+02  0.51100000000E-03 0. -1.
        -11    1    3    3    0    0 -0.26335972605E+02  0.12119222750E+02 -0.54081723439E+01  0.29490800964E+02  0.51100000000E-03 0.  1.
         12    1    3    3    0    0  0.48275757684E+01  0.28873313450E+00  0.20144666878E+02  0.20717057181E+02  0.00000000000E+00 0. -1.
</event>
<event>
 7    1  0.3758561E-013  0.7246157E+02  0.7816164E-02  0.1226708E+00
        -11   -1    0    0    0    0  0.00000000000E+00  0.00000000000E+00  0.45593999997E+02  0.45594000000E+02  0.51100000000E-03 0. -1.
         11   -1    0    0    0    0 -0.00000000000E+00 -0.00000000000E+00 -0.45593999997E+02  0.45594000000E+02  0.51100000000E-03 0.  1.
    9900012    2    1    2    0    0 -0.52877004764E+01 -0.16950235840E+02 -0.59505306693E+01  0.72461572508E+02  0.70000002884E+02 0.  0.
        -12    1    1    2    0    0  0.52877004764E+01  0.16950235840E+02  0.59505306693E+01  0.18726427492E+02  0.00000000000E+00 0.  1.
         11    1    3    3    0    0 -0.32234666727E+01 -0.14319279337E+02  0.18046327186E+02  0.23261608356E+02  0.51100000000E-03 0. -1.
        -11    1    3    3    0    0 -0.19595516943E+02  0.63113961461E+01 -0.20793582912E+02  0.29260743260E+02  0.51100000000E-03 0.  1.
         12    1    3    3    0    0  0.17531283140E+02 -0.89423526488E+01 -0.32032749436E+01  0.19939220892E+02  0.00000000000E+00 0. -1.
</event>
<event>
 7    1  0.3758561E-013  0.7246180E+02  0.7816164E-02  0.1226707E+00
        -11   -1    0    0    0    0  0.00000000000E+00  0.00000000000E+00  0.45593999997E+02  0.45594000000E+02  0.51100000000E-03 0.  1.
         11   -1    0    0    0    0 -0.00000000000E+00 -0.00000000000E+00 -0.45593999997E+02  0.45594000000E+02  0.51100000000E-03 0. -1.
    9900012    2    1    2    0    0  0.15580067272E+01 -0.63610467011E-01 -0.18661168820E+02  0.72461797690E+02  0.70000296224E+02 0.  0.
        -12    1    1    2    0    0 -0.15580067272E+01  0.63610467011E-01  0.18661168820E+02  0.18726202310E+02  0.00000000000E+00 0.  1.
         11    1    3    3    0    0  0.58355709515E+01  0.18613868120E+02 -0.12393558432E+02  0.23111258417E+02  0.51100000000E-03 0. -1.
        -11    1    3    3    0    0 -0.72476506833E+00  0.14811530979E+02  0.11246084291E+01  0.14871835083E+02  0.51100000000E-03 0.  1.
        -12    1    3    3    0    0 -0.35527991559E+01 -0.33489009567E+02 -0.73922188171E+01  0.34478704190E+02  0.00000000000E+00 0.  1.
</event>
<event>
 7    1  0.3758561E-013  0.7246159E+02  0.7816164E-02  0.1226708E+00
        -11   -1    0    0    0    0  0.00000000000E+00  0.00000000000E+00  0.45593999997E+02  0.45594000000E+02  0.51100000000E-03 0.  1.
         11   -1    0    0    0    0 -0.00000000000E+00 -0.00000000000E+00 -0.45593999997E+02  0.45594000000E+02  0.51100000000E-03 0. -1.
    9900012    2    1    2    0    0  0.15857097926E+02 -0.95422308539E+01  0.28594814405E+01  0.72461591951E+02  0.70000028212E+02 0.  0.
        -12    1    1    2    0    0 -0.15857097926E+02  0.95422308539E+01 -0.28594814405E+01  0.18726408049E+02  0.00000000000E+00 0.  1.
         11    1    3    3    0    0  0.14780136791E+02  0.24339593307E+01  0.18565806553E+01  0.15093823027E+02  0.51100000000E-03 0. -1.
        -11    1    3    3    0    0  0.24007026029E+02 -0.16871733234E+02 -0.10610823946E+02  0.31202279823E+02  0.51100000000E-03 0.  1.
         12    1    3    3    0    0 -0.22930064893E+02  0.48955430497E+01  0.11613724731E+02  0.26165489101E+02  0.00000000000E+00 0. -1.
</event>
<event>
 7    1  0.3758561E-013  0.7246152E+02  0.7816164E-02  0.1226708E+00
        -11   -1    0    0    0    0  0.00000000000E+00  0.00000000000E+00  0.45593999997E+02  0.45594000000E+02  0.51100000000E-03 0.  1.
         11   -1    0    0    0    0 -0.00000000000E+00 -0.00000000000E+00 -0.45593999997E+02  0.45594000000E+02  0.51100000000E-03 0. -1.
    9900012    2    1    2    0    0 -0.13721331373E+02 -0.12094315105E+02 -0.40166706954E+01  0.72461520459E+02  0.69999935081E+02 0.  0.
        -12    1    1    2    0    0  0.13721331373E+02  0.12094315105E+02  0.40166706954E+01  0.18726479541E+02  0.00000000000E+00 0.  1.
         11    1    3    3    0    0 -0.30660098352E+02  0.14942778814E+01 -0.23032427141E+02  0.38376649119E+02  0.51100000000E-03 0. -1.
        -11    1    3    3    0    0  0.12885672751E+02  0.12084831915E+01  0.89524344875E+01  0.15736806454E+02  0.51100000000E-03 0.  1.
        -12    1    3    3    0    0  0.40530942277E+01 -0.14797076178E+02  0.10063321958E+02  0.18348064886E+02  0.00000000000E+00 0.  1.
</event>
<event>
 7    1  0.3758561E-013  0.7246157E+02  0.7816164E-02  0.1226708E+00
        -11   -1    0    0    0    0  0.00000000000E+00  0.00000000000E+00  0.45593999997E+02  0.45594000000E+02  0.51100000000E-03 0.  1.
         11   -1    0    0    0    0 -0.00000000000E+00 -0.00000000000E+00 -0.45593999997E+02  0.45594000000E+02  0.51100000000E-03 0. -1.
    9900012    2    1    2    0    0  0.71529738193E+01  0.14452826520E+02 -0.95199740204E+01  0.72461571237E+02  0.70000001228E+02 0.  0.
        -12    1    1    2    0    0 -0.71529738193E+01 -0.14452826520E+02  0.95199740204E+01  0.18726428763E+02  0.00000000000E+00 0.  1.
         11    1    3    3    0    0  0.11057952827E+02 -0.80275726980E+01  0.12694850933E+02  0.18651527675E+02  0.51100000000E-03 0. -1.
        -11    1    3    3    0    0  0.12161262378E+01  0.18155420095E+02  0.10097321560E+02  0.20809953022E+02  0.51100000000E-03 0.  1.
         12    1    3    3    0    0 -0.51211052455E+01  0.43249791233E+01 -0.32312146513E+02  0.33000090540E+02  0.00000000000E+00 0. -1.
</event>
<event>
 7    1  0.3758561E-013  0.7246172E+02  0.7816164E-02  0.1226708E+00
        -11   -1    0    0    0    0  0.00000000000E+00  0.00000000000E+00  0.45593999997E+02  0.45594000000E+02  0.51100000000E-03 0. -1.
         11   -1    0    0    0    0 -0.00000000000E+00 -0.00000000000E+00 -0.45593999997E+02  0.45594000000E+02  0.51100000000E-03 0.  1.
    9900012    2    1    2    0    0 -0.14960774890E+02  0.41118156239E+01  0.10485308511E+02  0.72461721470E+02  0.70000196933E+02 0.  0.
        -12    1    1    2    0    0  0.14960774890E+02 -0.41118156239E+01 -0.10485308511E+02  0.18726278530E+02  0.00000000000E+00 0.  1.
         11    1    3    3    0    0 -0.17559041867E+01  0.37410386652E+01 -0.40207483801E+01  0.57658466511E+01  0.51100000000E-03 0. -1.
        -11    1    3    3    0    0 -0.34245165758E+02  0.79043908498E+01 -0.68242852331E+01  0.35801978182E+02  0.51100000000E-03 0.  1.
         12    1    3    3    0    0  0.21040295055E+02 -0.75336138911E+01  0.21330342124E+02  0.30893896637E+02  0.00000000000E+00 0. -1.
</event>
<event>
 7    1  0.3758561E-013  0.7246160E+02  0.7816164E-02  0.1226708E+00
        -11   -1    0    0    0    0  0.00000000000E+00  0.00000000000E+00  0.45593999997E+02  0.45594000000E+02  0.51100000000E-03 0.  1.
         11   -1    0    0    0    0 -0.00000000000E+00 -0.00000000000E+00 -0.45593999997E+02  0.45594000000E+02  0.51100000000E-03 0. -1.
    9900012    2    1    2    0    0 -0.15929784926E+02 -0.11085910573E+01  0.97821704412E+01  0.72461604713E+02  0.70000044836E+02 0.  0.
        -12    1    1    2    0    0  0.15929784926E+02  0.11085910573E+01 -0.97821704412E+01  0.18726395287E+02  0.00000000000E+00 0.  1.
         11    1    3    3    0    0  0.45895019507E+01  0.59037211950E+01 -0.15478034493E+02  0.17189735430E+02  0.51100000000E-03 0. -1.
        -11    1    3    3    0    0  0.76916570836E+00 -0.69029097316E+01 -0.11125657525E+02  0.13115717071E+02  0.51100000000E-03 0.  1.
         12    1    3    3    0    0 -0.21288452585E+02 -0.10940252066E+00  0.36385862460E+02  0.42156152212E+02  0.00000000000E+00 0. -1.
</event>
<event>
 7    1  0.3758561E-013  0.7246164E+02  0.7816164E-02  0.1226708E+00
        -11   -1    0    0    0    0  0.00000000000E+00  0.00000000000E+00  0.45593999997E+02  0.45594000000E+02  0.51100000000E-03 0.  1.
         11   -1    0    0    0    0 -0.00000000000E+00 -0.00000000000E+00 -0.45593999997E+02  0.45594000000E+02  0.51100000000E-03 0. -1.
    9900012    2    1    2    0    0  0.55981811381E+01 -0.17730365570E+02 -0.22296047611E+01  0.72461638029E+02  0.70000088236E+02 0.  0.
        -12    1    1    2    0    0 -0.55981811381E+01  0.17730365570E+02  0.22296047611E+01  0.18726361971E+02  0.00000000000E+00 0.  1.
         11    1    3    3    0    0  0.12279878510E+02 -0.14024790012E+02 -0.33855717802E+01  0.18946035143E+02  0.51100000000E-03 0. -1.
        -11    1    3    3    0    0 -0.62997508411E+01 -0.18413859729E+02  0.21117421775E+02  0.28717635583E+02  0.51100000000E-03 0.  1.
        -12    1    3    3    0    0 -0.38194653077E+00  0.14708284170E+02 -0.19961454756E+02  0.24797967303E+02  0.00000000000E+00 0.  1.
</event>
<event>
 7    1  0.3758561E-013  0.7246160E+02  0.7816164E-02  0.1226708E+00
        -11   -1    0    0    0    0  0.00000000000E+00  0.00000000000E+00  0.45593999997E+02  0.45594000000E+02  0.51100000000E-03 0. -1.
         11   -1    0    0    0    0 -0.00000000000E+00 -0.00000000000E+00 -0.45593999997E+02  0.45594000000E+02  0.51100000000E-03 0.  1.
    9900012    2    1    2    0    0 -0.18319409497E+02  0.35678079057E+01 -0.15323276063E+01  0.72461600307E+02  0.70000039097E+02 0.  0.
        -12    1    1    2    0    0  0.18319409497E+02 -0.35678079057E+01  0.15323276063E+01  0.18726399693E+02  0.00000000000E+00 0.  1.
         11    1    3    3    0    0  0.51746788024E+01  0.58470683783E+00  0.24428260476E+01  0.57520937191E+01  0.51100000000E-03 0. -1.
        -11    1    3    3    0    0 -0.10344370016E+02  0.24223460351E+02 -0.23268329475E+02  0.35145372088E+02  0.51100000000E-03 0.  1.
         12    1    3    3    0    0 -0.13149718284E+02 -0.21240359283E+02  0.19293175821E+02  0.31564134499E+02  0.00000000000E+00 0. -1.
</event>
<event>
 7    1  0.3758561E-013  0.7246142E+02  0.7816164E-02  0.1226708E+00
        -11   -1    0    0    0    0  0.00000000000E+00  0.00000000000E+00  0.45593999997E+02  0.45594000000E+02  0.51100000000E-03 0. -1.
         11   -1    0    0    0    0 -0.00000000000E+00 -0.00000000000E+00 -0.45593999997E+02  0.45594000000E+02  0.51100000000E-03 0.  1.
    9900012    2    1    2    0    0 -0.33725159249E+01  0.82616756323E+01  0.16463767424E+02  0.72461420341E+02  0.69999804658E+02 0.  0.
        -12    1    1    2    0    0  0.33725159249E+01 -0.82616756323E+01 -0.16463767424E+02  0.18726579659E+02  0.00000000000E+00 0.  1.
         11    1    3    3    0    0  0.69924856111E+01 -0.37011594308E+00  0.12172857658E+02  0.14043158642E+02  0.51100000000E-03 0. -1.
        -11    1    3    3    0    0  0.16769596365E+02  0.21465446186E+02  0.74396315889E+01  0.28237083076E+02  0.51100000000E-03 0.  1.
         12    1    3    3    0    0 -0.27134597901E+02 -0.12833654611E+02 -0.31487218223E+01  0.30181178622E+02  0.00000000000E+00 0. -1.
</event>
<event>
 7    1  0.3758561E-013  0.7246162E+02  0.7816164E-02  0.1226708E+00
        -11   -1    0    0    0    0  0.00000000000E+00  0.00000000000E+00  0.45593999997E+02  0.45594000000E+02  0.51100000000E-03 0. -1.
         11   -1    0    0    0    0 -0.00000000000E+00 -0.00000000000E+00 -0.45593999997E+02  0.45594000000E+02  0.51100000000E-03 0.  1.
    9900012    2    1    2    0    0  0.51905262098E+01 -0.14307852439E+02  0.10909675849E+02  0.72461622057E+02  0.70000067430E+02 0.  0.
        -12    1    1    2    0    0 -0.51905262098E+01  0.14307852439E+02 -0.10909675849E+02  0.18726377943E+02  0.00000000000E+00 0.  1.
         11    1    3    3    0    0 -0.19834441525E+01 -0.12871682945E+02 -0.98658776831E+01  0.16338598938E+02  0.51100000000E-03 0. -1.
        -11    1    3    3    0    0 -0.21831213726E+02  0.50102763564E+01  0.80814010179E+01  0.23812051667E+02  0.51100000000E-03 0.  1.
         12    1    3    3    0    0  0.29005184088E+02 -0.64464458503E+01  0.12694152514E+02  0.32310971452E+02  0.00000000000E+00 0. -1.
</event>
<event>
 7    1  0.3758561E-013  0.7246156E+02  0.7816164E-02  0.1226708E+00
        -11   -1    0    0    0    0  0.00000000000E+00  0.00000000000E+00  0.45593999997E+02  0.45594000000E+02  0.51100000000E-03 0. -1.
         11   -1    0    0    0    0 -0.00000000000E+00 -0.00000000000E+00 -0.45593999997E+02  0.45594000000E+02  0.51100000000E-03 0.  1.
    9900012    2    1    2    0    0 -0.38571267347E+01  0.18290313453E+02  0.11254878511E+01  0.72461555710E+02  0.69999981001E+02 0.  0.
        -12    1    1    2    0    0  0.38571267347E+01 -0.18290313453E+02 -0.11254878511E+01  0.18726444290E+02  0.00000000000E+00 0.  1.
         11    1    3    3    0    0 -0.56023042285E+01  0.17712926494E+02  0.17339024170E+02  0.25412110048E+02  0.51100000000E-03 0. -1.
        -11    1    3    3    0    0 -0.39626124599E+01  0.14483672883E+02  0.91368776422E+01  0.17577303860E+02  0.51100000000E-03 0.  1.
        -12    1    3    3    0    0  0.57077899536E+01 -0.13906285924E+02 -0.25350413961E+02  0.29472141801E+02  0.00000000000E+00 0.  1.
</event>
<event>
 7    1  0.3758561E-013  0.7246151E+02  0.7816164E-02  0.1226708E+00
        -11   -1    0    0    0    0  0.00000000000E+00  0.00000000000E+00  0.45593999997E+02  0.45594000000E+02  0.51100000000E-03 0.  1.
         11   -1    0    0    0    0 -0.00000000000E+00 -0.00000000000E+00 -0.45593999997E+02  0.45594000000E+02  0.51100000000E-03 0. -1.
    9900012    2    1    2    0    0 -0.10189700001E+02 -0.79308693518E+00  0.15691480445E+02  0.72461507227E+02  0.69999917843E+02 0.  0.
        -12    1    1    2    0    0  0.10189700001E+02  0.79308693518E+00 -0.15691480445E+02  0.18726492773E+02  0.00000000000E+00 0.  1.
         11    1    3    3    0    0 -0.84222281939E+01  0.22399937543E+02 -0.20526666140E+01  0.24018837818E+02  0.51100000000E-03 0. -1.
        -11    1    3    3    0    0 -0.60625818131E+01 -0.61665308717E+01 -0.11465556488E+02  0.14361058006E+02  0.51100000000E-03 0.  1.
        -12    1    3    3    0    0  0.42951100057E+01 -0.17026493606E+02  0.29209703547E+02  0.34081611402E+02  0.00000000000E+00 0.  1.
</event>
<event>
 7    1  0.3758561E-013  0.7246154E+02  0.7816164E-02  0.1226708E+00
        -11   -1    0    0    0    0  0.00000000000E+00  0.00000000000E+00  0.45593999997E+02  0.45594000000E+02  0.51100000000E-03 0.  1.
         11   -1    0    0    0    0 -0.00000000000E+00 -0.00000000000E+00 -0.45593999997E+02  0.45594000000E+02  0.51100000000E-03 0. -1.
    9900012    2    1    2    0    0  0.14324372507E+02 -0.83098306650E+01 -0.87429676947E+01  0.72461536972E+02  0.69999956592E+02 0.  0.
        -12    1    1    2    0    0 -0.14324372507E+02  0.83098306650E+01  0.87429676947E+01  0.18726463028E+02  0.00000000000E+00 0.  1.
         11    1    3    3    0    0  0.28067360011E+02 -0.50106525346E+01 -0.60874507299E+01  0.29153737213E+02  0.51100000000E-03 0. -1.
        -11    1    3    3    0    0  0.11983127052E+02 -0.11098884347E+02 -0.14643634076E+01  0.16398930702E+02  0.51100000000E-03 0.  1.
        -12    1    3    3    0    0 -0.25726114556E+02  0.77997062169E+01 -0.11911535572E+01  0.26908869058E+02  0.00000000000E+00 0.  1.
</event>
<event>
 7    1  0.3758561E-013  0.7246157E+02  0.7816164E-02  0.1226708E+00
        -11   -1    0    0    0    0  0.00000000000E+00  0.00000000000E+00  0.45593999997E+02  0.45594000000E+02  0.51100000000E-03 0.  1.
         11   -1    0    0    0    0 -0.00000000000E+00 -0.00000000000E+00 -0.45593999997E+02  0.45594000000E+02  0.51100000000E-03 0. -1.
    9900012    2    1    2    0    0  0.26094941659E+01 -0.30823762969E+01 -0.18285755489E+02  0.72461565282E+02  0.69999993471E+02 0.  0.
        -12    1    1    2    0    0 -0.26094941659E+01  0.30823762969E+01  0.18285755489E+02  0.18726434718E+02  0.00000000000E+00 0.  1.
         11    1    3    3    0    0  0.82472368728E+01  0.40540953898E+00 -0.17100051358E+02  0.18989287234E+02  0.51100000000E-03 0. -1.
        -11    1    3    3    0    0 -0.27371432225E+02 -0.68472059647E+01 -0.97785645467E+01  0.29861343848E+02  0.51100000000E-03 0.  1.
         12    1    3    3    0    0  0.21733689518E+02  0.33594201288E+01  0.85928604160E+01  0.23610934200E+02  0.00000000000E+00 0. -1.
</event>
<event>
 7    1  0.3758561E-013  0.7246150E+02  0.7816164E-02  0.1226708E+00
        -11   -1    0    0    0    0  0.00000000000E+00  0.00000000000E+00  0.45593999997E+02  0.45594000000E+02  0.51100000000E-03 0.  1.
         11   -1    0    0    0    0 -0.00000000000E+00 -0.00000000000E+00 -0.45593999997E+02  0.45594000000E+02  0.51100000000E-03 0. -1.
    9900012    2    1    2    0    0  0.10023317515E+02  0.41383392717E+01 -0.15267254059E+02  0.72461500262E+02  0.69999908770E+02 0.  0.
        -12    1    1    2    0    0 -0.10023317515E+02 -0.41383392717E+01  0.15267254059E+02  0.18726499738E+02  0.00000000000E+00 0.  1.
         11    1    3    3    0    0 -0.67631334872E+01 -0.76632800667E+01  0.42103468954E+01  0.11054087804E+02  0.51100000000E-03 0. -1.
        -11    1    3    3    0    0 -0.16644875644E+02  0.37715080001E+01  0.65542617764E+01  0.18282081542E+02  0.51100000000E-03 0.  1.
        -12    1    3    3    0    0  0.33431326646E+02  0.80301113383E+01 -0.26031862730E+02  0.43125330916E+02  0.00000000000E+00 0.  1.
</event>
<event>
 7    1  0.3758561E-013  0.7246153E+02  0.7816164E-02  0.1226708E+00
        -11   -1    0    0    0    0  0.00000000000E+00  0.00000000000E+00  0.45593999997E+02  0.45594000000E+02  0.51100000000E-03 0.  1.
         11   -1    0    0    0    0 -0.00000000000E+00 -0.00000000000E+00 -0.45593999997E+02  0.45594000000E+02  0.51100000000E-03 0. -1.
    9900012    2    1    2    0    0  0.96174385809E+01  0.70660580749E+01 -0.14431086315E+02  0.72461533334E+02  0.69999951852E+02 0.  0.
        -12    1    1    2    0    0 -0.96174385809E+01 -0.70660580749E+01  0.14431086315E+02  0.18726466666E+02  0.00000000000E+00 0.  1.
         11    1    3    3    0    0 -0.66620892002E+01  0.17263157957E+02  0.66692248804E+01  0.19669230181E+02  0.51100000000E-03 0. -1.
        -11    1    3    3    0    0  0.44504678565E+01 -0.13848578755E+02  0.11097825960E+02  0.18296216521E+02  0.51100000000E-03 0.  1.
         12    1    3    3    0    0  0.11829059925E+02  0.36514788732E+01 -0.32198137155E+02  0.34496086632E+02  0.00000000000E+00 0. -1.
</event>
<event>
 7    1  0.3758561E-013  0.7246154E+02  0.7816164E-02  0.1226708E+00
        -11   -1    0    0    0    0  0.00000000000E+00  0.00000000000E+00  0.45593999997E+02  0.45594000000E+02  0.51100000000E-03 0.  1.
         11   -1    0    0    0    0 -0.00000000000E+00 -0.00000000000E+00 -0.45593999997E+02  0.45594000000E+02  0.51100000000E-03 0. -1.
    9900012    2    1    2    0    0 -0.11305527416E+02  0.13122279578E+02 -0.71183775702E+01  0.72461535552E+02  0.69999954742E+02 0.  0.
        -12    1    1    2    0    0  0.11305527416E+02 -0.13122279578E+02  0.71183775702E+01  0.18726464448E+02  0.00000000000E+00 0.  1.
         11    1    3    3    0    0  0.97258170318E+01  0.55339835412E+01  0.95826098628E+01  0.14732376007E+02  0.51100000000E-03 0. -1.
        -11    1    3    3    0    0  0.15218897870E+02 -0.60141939860E+01 -0.71012186589E+01  0.17838516990E+02  0.51100000000E-03 0.  1.
         12    1    3    3    0    0 -0.36250242319E+02  0.13602490022E+02 -0.95997687741E+01  0.39890642555E+02  0.00000000000E+00 0. -1.
</event>
<event>
 7    1  0.3758561E-013  0.7246149E+02  0.7816164E-02  0.1226708E+00
        -11   -1    0    0    0    0  0.00000000000E+00  0.00000000000E+00  0.45593999997E+02  0.45594000000E+02  0.51100000000E-03 0.  1.
         11   -1    0    0    0    0 -0.00000000000E+00 -0.00000000000E+00 -0.45593999997E+02  0.45594000000E+02  0.51100000000E-03 0. -1.
    9900012    2    1    2    0    0  0.35767084639E+01  0.10402395424E+02 -0.15155185776E+02  0.72461485911E+02  0.69999890075E+02 0.  0.
        -12    1    1    2    0    0 -0.35767084639E+01 -0.10402395424E+02  0.15155185776E+02  0.18726514089E+02  0.00000000000E+00 0.  1.
         11    1    3    3    0    0 -0.11340778814E+01  0.10943937327E+02  0.87004825166E+01  0.14026913172E+02  0.51100000000E-03 0.  1.
        -11    1    3    3    0    0  0.83012756075E+00  0.73466468630E+00 -0.40896198742E+02  0.40911219925E+02  0.51100000000E-03 0. -1.
         12    1    3    3    0    0  0.38806587845E+01 -0.12762065892E+01  0.17040530449E+02  0.17523352814E+02  0.00000000000E+00 0. -1.
</event>
<event>
 7    1  0.3758561E-013  0.7246160E+02  0.7816164E-02  0.1226708E+00
        -11   -1    0    0    0    0  0.00000000000E+00  0.00000000000E+00  0.45593999997E+02  0.45594000000E+02  0.51100000000E-03 0. -1.
         11   -1    0    0    0    0 -0.00000000000E+00 -0.00000000000E+00 -0.45593999997E+02  0.45594000000E+02  0.51100000000E-03 0.  1.
    9900012    2    1    2    0    0 -0.12581556423E+01  0.10155057797E+02  0.15683430361E+02  0.72461597720E+02  0.70000035727E+02 0.  0.
        -12    1    1    2    0    0  0.12581556423E+01 -0.10155057797E+02 -0.15683430361E+02  0.18726402280E+02  0.00000000000E+00 0.  1.
         11    1    3    3    0    0 -0.21917123636E+02 -0.35871125682E+01  0.21031147160E+02  0.30586546653E+02  0.51100000000E-03 0. -1.
        -11    1    3    3    0    0  0.71154233619E+01 -0.11110231741E+02 -0.25090316934E+01  0.13429882325E+02  0.51100000000E-03 0.  1.
        -12    1    3    3    0    0  0.13543544632E+02  0.24852402106E+02 -0.28386851053E+01  0.28445168742E+02  0.00000000000E+00 0.  1.
</event>
<event>
 7    1  0.3758561E-013  0.7246155E+02  0.7816164E-02  0.1226708E+00
        -11   -1    0    0    0    0  0.00000000000E+00  0.00000000000E+00  0.45593999997E+02  0.45594000000E+02  0.51100000000E-03 0.  1.
         11   -1    0    0    0    0 -0.00000000000E+00 -0.00000000000E+00 -0.45593999997E+02  0.45594000000E+02  0.51100000000E-03 0. -1.
    9900012    2    1    2    0    0 -0.48727768613E+01  0.17839379340E+02 -0.29483243782E+01  0.72461547421E+02  0.69999970203E+02 0.  0.
        -12    1    1    2    0    0  0.48727768613E+01 -0.17839379340E+02  0.29483243782E+01  0.18726452579E+02  0.00000000000E+00 0.  1.
         11    1    3    3    0    0 -0.80384800240E+01 -0.46218578458E+01 -0.24831115474E+01  0.95991965425E+01  0.51100000000E-03 0. -1.
        -11    1    3    3    0    0 -0.25564650655E+02  0.17092106788E+02 -0.96413009145E+01  0.32228033778E+02  0.51100000000E-03 0.  1.
        -12    1    3    3    0    0  0.28730353818E+02  0.53691303970E+01  0.91760880837E+01  0.30634317101E+02  0.00000000000E+00 0.  1.
</event>
<event>
 7    1  0.3758561E-013  0.7246157E+02  0.7816164E-02  0.1226708E+00
        -11   -1    0    0    0    0  0.00000000000E+00  0.00000000000E+00  0.45593999997E+02  0.45594000000E+02  0.51100000000E-03 0.  1.
         11   -1    0    0    0    0 -0.00000000000E+00 -0.00000000000E+00 -0.45593999997E+02  0.45594000000E+02  0.51100000000E-03 0. -1.
    9900012    2    1    2    0    0  0.18942925789E+01 -0.16893110658E+02 -0.78558109290E+01  0.72461566879E+02  0.69999995551E+02 0.  0.
        -12    1    1    2    0    0 -0.18942925789E+01  0.16893110658E+02  0.78558109290E+01  0.18726433121E+02  0.00000000000E+00 0.  1.
         11    1    3    3    0    0  0.47904898449E+01 -0.21464042839E+01 -0.12075147756E+02  0.13166815784E+02  0.51100000000E-03 0. -1.
        -11    1    3    3    0    0  0.13603994224E+02  0.15878505729E+02 -0.80526246285E+01  0.22406257311E+02  0.51100000000E-03 0.  1.
         12    1    3    3    0    0 -0.16500191490E+02 -0.30625212104E+02  0.12271961456E+02  0.36888493783E+02  0.00000000000E+00 0. -1.
</event>
<event>
 7    1  0.3758561E-013  0.7246127E+02  0.7816164E-02  0.1226709E+00
        -11   -1    0    0    0    0  0.00000000000E+00  0.00000000000E+00  0.45593999997E+02  0.45594000000E+02  0.51100000000E-03 0. -1.
         11   -1    0    0    0    0 -0.00000000000E+00 -0.00000000000E+00 -0.45593999997E+02  0.45594000000E+02  0.51100000000E-03 0.  1.
    9900012    2    1    2    0    0  0.69945420435E+01 -0.13688837037E+02  0.10694977318E+02  0.72461269969E+02  0.69999608770E+02 0.  0.
        -12    1    1    2    0    0 -0.69945420435E+01  0.13688837037E+02 -0.10694977318E+02  0.18726730031E+02  0.00000000000E+00 0.  1.
         11    1    3    3    0    0 -0.20919209902E+02 -0.16949396373E+02  0.17316581554E+02  0.32011863071E+02  0.51100000000E-03 0. -1.
        -11    1    3    3    0    0  0.51884394168E+01 -0.93266223857E+00  0.10459529553E+02  0.11712878432E+02  0.51100000000E-03 0.  1.
        -12    1    3    3    0    0  0.22725312529E+02  0.41932215748E+01 -0.17081133790E+02  0.28736528465E+02  0.00000000000E+00 0.  1.
</event>
<event>
 7    1  0.3758561E-013  0.7246163E+02  0.7816164E-02  0.1226708E+00
        -11   -1    0    0    0    0  0.00000000000E+00  0.00000000000E+00  0.45593999997E+02  0.45594000000E+02  0.51100000000E-03 0.  1.
         11   -1    0    0    0    0 -0.00000000000E+00 -0.00000000000E+00 -0.45593999997E+02  0.45594000000E+02  0.51100000000E-03 0. -1.
    9900012    2    1    2    0    0 -0.26288301238E+01  0.18498303964E+02 -0.12565398555E+01  0.72461631164E+02  0.70000079295E+02 0.  0.
        -12    1    1    2    0    0  0.26288301238E+01 -0.18498303964E+02  0.12565398555E+01  0.18726368836E+02  0.00000000000E+00 0.  1.
         11    1    3    3    0    0  0.37240271512E+01 -0.10407258331E+02 -0.13818983961E+02  0.17695867375E+02  0.51100000000E-03 0. -1.
        -11    1    3    3    0    0 -0.74816650637E+01  0.39494003204E+01  0.25333625131E+02  0.26708905585E+02  0.51100000000E-03 0.  1.
         12    1    3    3    0    0  0.11288077887E+01  0.24956161974E+02 -0.12771181025E+02  0.28056858204E+02  0.00000000000E+00 0. -1.
</event>
<event>
 7    1  0.3758561E-013  0.7246181E+02  0.7816164E-02  0.1226707E+00
        -11   -1    0    0    0    0  0.00000000000E+00  0.00000000000E+00  0.45593999997E+02  0.45594000000E+02  0.51100000000E-03 0.  1.
         11   -1    0    0    0    0 -0.00000000000E+00 -0.00000000000E+00 -0.45593999997E+02  0.45594000000E+02  0.51100000000E-03 0. -1.
    9900012    2    1    2    0    0  0.29334703169E+01 -0.72765872904E+00 -0.18480679964E+02  0.72461807988E+02  0.70000309640E+02 0.  0.
        -12    1    1    2    0    0 -0.29334703169E+01  0.72765872904E+00  0.18480679964E+02  0.18726192012E+02  0.00000000000E+00 0.  1.
         11    1    3    3    0    0  0.19288244465E+01 -0.43522489159E+00 -0.16874707115E+02  0.16990159650E+02  0.51100000000E-03 0. -1.
        -11    1    3    3    0    0 -0.11708476466E+02  0.24099502204E+02 -0.64095689563E+01  0.27549174255E+02  0.51100000000E-03 0.  1.
        -12    1    3    3    0    0  0.12713122336E+02 -0.24391936042E+02  0.48035961067E+01  0.27922474084E+02  0.00000000000E+00 0.  1.
</event>
<event>
 7    1  0.3758561E-013  0.7246153E+02  0.7816164E-02  0.1226708E+00
        -11   -1    0    0    0    0  0.00000000000E+00  0.00000000000E+00  0.45593999997E+02  0.45594000000E+02  0.51100000000E-03 0. -1.
         11   -1    0    0    0    0 -0.00000000000E+00 -0.00000000000E+00 -0.45593999997E+02  0.45594000000E+02  0.51100000000E-03 0.  1.
    9900012    2    1    2    0    0 -0.13921194072E+02 -0.10470893521E+02  0.68732284086E+01  0.72461534122E+02  0.69999952879E+02 0.  0.
        -12    1    1    2    0    0  0.13921194072E+02  0.10470893521E+02 -0.68732284086E+01  0.18726465878E+02  0.00000000000E+00 0.  1.
         11    1    3    3    0    0 -0.66439127356E+01 -0.94101333141E+01  0.63250948577E+01  0.13141499559E+02  0.51100000000E-03 0. -1.
        -11    1    3    3    0    0 -0.17988515240E+02 -0.14781666925E+02 -0.21182957313E+02  0.31477008092E+02  0.51100000000E-03 0.  1.
         12    1    3    3    0    0  0.10711233904E+02  0.13720906719E+02  0.21731090864E+02  0.27843026471E+02  0.00000000000E+00 0. -1.
</event>
<event>
 7    1  0.3758561E-013  0.7246204E+02  0.7816164E-02  0.1226707E+00
        -11   -1    0    0    0    0  0.00000000000E+00  0.00000000000E+00  0.45593999997E+02  0.45594000000E+02  0.51100000000E-03 0.  1.
         11   -1    0    0    0    0 -0.00000000000E+00 -0.00000000000E+00 -0.45593999997E+02  0.45594000000E+02  0.51100000000E-03 0. -1.
    9900012    2    1    2    0    0 -0.11357158973E+02 -0.14347627960E+02  0.39777214407E+01  0.72462035249E+02  0.70000605687E+02 0.  0.
        -12    1    1    2    0    0  0.11357158973E+02  0.14347627960E+02 -0.39777214407E+01  0.18725964751E+02  0.00000000000E+00 0.  1.
         11    1    3    3    0    0  0.25609274065E+01 -0.30629291564E+01  0.19271859798E+01  0.44332753422E+01  0.51100000000E-03 0. -1.
        -11    1    3    3    0    0  0.22431221094E+02 -0.11068665424E+02 -0.13578372794E+02  0.28461328887E+02  0.51100000000E-03 0.  1.
         12    1    3    3    0    0 -0.36349307474E+02 -0.21603337938E+00  0.15628908254E+02  0.39567431019E+02  0.00000000000E+00 0. -1.
</event>
<event>
 7    1  0.3758561E-013  0.7246163E+02  0.7816164E-02  0.1226708E+00
        -11   -1    0    0    0    0  0.00000000000E+00  0.00000000000E+00  0.45593999997E+02  0.45594000000E+02  0.51100000000E-03 0.  1.
         11   -1    0    0    0    0 -0.00000000000E+00 -0.00000000000E+00 -0.45593999997E+02  0.45594000000E+02  0.51100000000E-03 0. -1.
    9900012    2    1    2    0    0  0.93188342520E+01  0.16234447782E+02  0.52816355050E+00  0.72461630268E+02  0.70000078126E+02 0.  0.
        -12    1    1    2    0    0 -0.93188342520E+01 -0.16234447782E+02 -0.52816355050E+00  0.18726369732E+02  0.00000000000E+00 0.  1.
         11    1    3    3    0    0  0.23417200459E+02 -0.13754231988E+01  0.37799583418E+01  0.23760158914E+02  0.51100000000E-03 0. -1.
        -11    1    3    3    0    0  0.12162723311E+02  0.18092184130E+02  0.20827619773E+01  0.21899700058E+02  0.51100000000E-03 0.  1.
         12    1    3    3    0    0 -0.26261089518E+02 -0.48231314861E+00 -0.53345567686E+01  0.26801771295E+02  0.00000000000E+00 0. -1.
</event>
<event>
 7    1  0.3758561E-013  0.7246156E+02  0.7816164E-02  0.1226708E+00
        -11   -1    0    0    0    0  0.00000000000E+00  0.00000000000E+00  0.45593999997E+02  0.45594000000E+02  0.51100000000E-03 0. -1.
         11   -1    0    0    0    0 -0.00000000000E+00 -0.00000000000E+00 -0.45593999997E+02  0.45594000000E+02  0.51100000000E-03 0.  1.
    9900012    2    1    2    0    0 -0.12545673231E+02 -0.13857706221E+02 -0.11179235181E+01  0.72461556357E+02  0.69999981845E+02 0.  0.
        -12    1    1    2    0    0  0.12545673231E+02  0.13857706221E+02  0.11179235181E+01  0.18726443643E+02  0.00000000000E+00 0.  1.
         11    1    3    3    0    0  0.12927823506E+02  0.78400411235E+01 -0.30479158415E+00  0.15122425850E+02  0.51100000000E-03 0. -1.
        -11    1    3    3    0    0 -0.17731651840E+02 -0.98392037714E+01 -0.23222244853E+02  0.30830083751E+02  0.51100000000E-03 0.  1.
         12    1    3    3    0    0 -0.77418448970E+01 -0.11858543573E+02  0.22409112919E+02  0.26509046756E+02  0.00000000000E+00 0. -1.
</event>
<event>
 7    1  0.3758561E-013  0.7246159E+02  0.7816164E-02  0.1226708E+00
        -11   -1    0    0    0    0  0.00000000000E+00  0.00000000000E+00  0.45593999997E+02  0.45594000000E+02  0.51100000000E-03 0. -1.
         11   -1    0    0    0    0 -0.00000000000E+00 -0.00000000000E+00 -0.45593999997E+02  0.45594000000E+02  0.51100000000E-03 0.  1.
    9900012    2    1    2    0    0  0.23190731189E+01  0.16353954605E+02  0.88231813807E+01  0.72461589212E+02  0.70000024643E+02 0.  0.
        -12    1    1    2    0    0 -0.23190731189E+01 -0.16353954605E+02 -0.88231813807E+01  0.18726410788E+02  0.00000000000E+00 0.  1.
         11    1    3    3    0    0 -0.16883568208E+02  0.97118928679E+01  0.83724938073E+01  0.21200811101E+02  0.51100000000E-03 0. -1.
        -11    1    3    3    0    0 -0.11581514085E+02  0.37286866950E+01 -0.12763830785E+02  0.17633772981E+02  0.51100000000E-03 0.  1.
        -12    1    3    3    0    0  0.30784155412E+02  0.29133750416E+01  0.13214518358E+02  0.33627005130E+02  0.00000000000E+00 0.  1.
</event>
<event>
 7    1  0.3758561E-013  0.7246157E+02  0.7816164E-02  0.1226708E+00
        -11   -1    0    0    0    0  0.00000000000E+00  0.00000000000E+00  0.45593999997E+02  0.45594000000E+02  0.51100000000E-03 0.  1.
         11   -1    0    0    0    0 -0.00000000000E+00 -0.00000000000E+00 -0.45593999997E+02  0.45594000000E+02  0.51100000000E-03 0. -1.
    9900012    2    1    2    0    0 -0.16027156347E+02  0.80624844049E+01 -0.53671185871E+01  0.72461565281E+02  0.69999993469E+02 0.  0.
        -12    1    1    2    0    0  0.16027156347E+02 -0.80624844049E+01  0.53671185871E+01  0.18726434719E+02  0.00000000000E+00 0.  1.
         11    1    3    3    0    0 -0.12330482718E+02 -0.28527028533E+01  0.25891476932E+00  0.12658821223E+02  0.51100000000E-03 0. -1.
        -11    1    3    3    0    0  0.11051512506E+02  0.60891053218E+01  0.23572313498E+02  0.26736998638E+02  0.51100000000E-03 0.  1.
         12    1    3    3    0    0 -0.14748186136E+02  0.48260819364E+01 -0.29198346854E+02  0.33065745420E+02  0.00000000000E+00 0. -1.
</event>
<event>
 7    1  0.3758561E-013  0.7246158E+02  0.7816164E-02  0.1226708E+00
        -11   -1    0    0    0    0  0.00000000000E+00  0.00000000000E+00  0.45593999997E+02  0.45594000000E+02  0.51100000000E-03 0.  1.
         11   -1    0    0    0    0 -0.00000000000E+00 -0.00000000000E+00 -0.45593999997E+02  0.45594000000E+02  0.51100000000E-03 0. -1.
    9900012    2    1    2    0    0 -0.16107900870E+02  0.95506003417E+01 -0.20269580192E-01  0.72461578874E+02  0.70000011177E+02 0.  0.
        -12    1    1    2    0    0  0.16107900870E+02 -0.95506003417E+01  0.20269580192E-01  0.18726421126E+02  0.00000000000E+00 0.  1.
         11    1    3    3    0    0 -0.12721339733E+02  0.65488687901E+01 -0.19337904496E+02  0.24055658744E+02  0.51100000000E-03 0. -1.
        -11    1    3    3    0    0 -0.21778758981E+02  0.42113320595E+01  0.67887939117E+00  0.22192578443E+02  0.51100000000E-03 0.  1.
         12    1    3    3    0    0  0.18392197843E+02 -0.12096005078E+01  0.18638755525E+02  0.26213341687E+02  0.00000000000E+00 0. -1.
</event>
<event>
 7    1  0.3758561E-013  0.7246158E+02  0.7816164E-02  0.1226708E+00
        -11   -1    0    0    0    0  0.00000000000E+00  0.00000000000E+00  0.45593999997E+02  0.45594000000E+02  0.51100000000E-03 0.  1.
         11   -1    0    0    0    0 -0.00000000000E+00 -0.00000000000E+00 -0.45593999997E+02  0.45594000000E+02  0.51100000000E-03 0. -1.
    9900012    2    1    2    0    0 -0.16526511095E+02 -0.86121808784E+01 -0.18394297246E+01  0.72461582025E+02  0.70000015281E+02 0.  0.
        -12    1    1    2    0    0  0.16526511095E+02  0.86121808784E+01  0.18394297246E+01  0.18726417975E+02  0.00000000000E+00 0.  1.
         11    1    3    3    0    0  0.49967692517E+01  0.93468429567E+01 -0.19592757361E+01  0.10778215895E+02  0.51100000000E-03 0.  1.
        -11    1    3    3    0    0 -0.14216605492E+02 -0.37861471715E+02  0.11253305351E+01  0.40458241203E+02  0.51100000000E-03 0. -1.
         12    1    3    3    0    0 -0.73066748551E+01  0.19902447880E+02 -0.10054845236E+01  0.21225124927E+02  0.00000000000E+00 0. -1.
</event>
<event>
 7    1  0.3758561E-013  0.7246150E+02  0.7816164E-02  0.1226708E+00
        -11   -1    0    0    0    0  0.00000000000E+00  0.00000000000E+00  0.45593999997E+02  0.45594000000E+02  0.51100000000E-03 0.  1.
         11   -1    0    0    0    0 -0.00000000000E+00 -0.00000000000E+00 -0.45593999997E+02  0.45594000000E+02  0.51100000000E-03 0. -1.
    9900012    2    1    2    0    0  0.14513088672E+02  0.28314544792E+01 -0.11490650251E+02  0.72461496844E+02  0.69999904317E+02 0.  0.
        -12    1    1    2    0    0 -0.14513088672E+02 -0.28314544792E+01  0.11490650251E+02  0.18726503156E+02  0.00000000000E+00 0.  1.
         11    1    3    3    0    0  0.29757080022E+02  0.33242486396E+01 -0.23747666847E+02  0.38216307008E+02  0.51100000000E-03 0. -1.
        -11    1    3    3    0    0  0.19558686874E+01  0.37640661047E+01 -0.69318976042E+01  0.81267964549E+01  0.51100000000E-03 0.  1.
        -12    1    3    3    0    0 -0.17199860037E+02 -0.42568602651E+01  0.19188914200E+02  0.26118393381E+02  0.00000000000E+00 0.  1.
</event>
<event>
 7    1  0.3758561E-013  0.7246148E+02  0.7816164E-02  0.1226708E+00
        -11   -1    0    0    0    0  0.00000000000E+00  0.00000000000E+00  0.45593999997E+02  0.45594000000E+02  0.51100000000E-03 0.  1.
         11   -1    0    0    0    0 -0.00000000000E+00 -0.00000000000E+00 -0.45593999997E+02  0.45594000000E+02  0.51100000000E-03 0. -1.
    9900012    2    1    2    0    0 -0.40102459396E+01 -0.11129892063E+02 -0.14516410312E+02  0.72461475011E+02  0.69999875875E+02 0.  0.
        -12    1    1    2    0    0  0.40102459396E+01  0.11129892063E+02  0.14516410312E+02  0.18726524989E+02  0.00000000000E+00 0.  1.
         11    1    3    3    0    0 -0.53873716407E+01  0.46927522915E+01 -0.36353151755E+01  0.80163092474E+01  0.51100000000E-03 0. -1.
        -11    1    3    3    0    0 -0.75497653691E+01  0.19622079991E+02 -0.17432032486E+02  0.27311183372E+02  0.51100000000E-03 0.  1.
         12    1    3    3    0    0  0.89268910701E+01 -0.35444724345E+02  0.65509373490E+01  0.37133982392E+02  0.00000000000E+00 0. -1.
</event>
<event>
 7    1  0.3758561E-013  0.7246152E+02  0.7816164E-02  0.1226708E+00
        -11   -1    0    0    0    0  0.00000000000E+00  0.00000000000E+00  0.45593999997E+02  0.45594000000E+02  0.51100000000E-03 0.  1.
         11   -1    0    0    0    0 -0.00000000000E+00 -0.00000000000E+00 -0.45593999997E+02  0.45594000000E+02  0.51100000000E-03 0. -1.
    9900012    2    1    2    0    0  0.58185431444E+01  0.35600798603E+01 -0.17439939811E+02  0.72461518388E+02  0.69999932383E+02 0.  0.
        -12    1    1    2    0    0 -0.58185431444E+01 -0.35600798603E+01  0.17439939811E+02  0.18726481612E+02  0.00000000000E+00 0.  1.
         11    1    3    3    0    0 -0.99311007765E+00 -0.64065642141E+01 -0.88322743673E+01  0.10956249514E+02  0.51100000000E-03 0. -1.
        -11    1    3    3    0    0  0.35974488415E+01 -0.23861228418E+02  0.54388893717E+01  0.24736236125E+02  0.51100000000E-03 0.  1.
         12    1    3    3    0    0  0.32142043805E+01  0.33827872492E+02 -0.14046554816E+02  0.36769032749E+02  0.00000000000E+00 0. -1.
</event>
<event>
 7    1  0.3758561E-013  0.7246156E+02  0.7816164E-02  0.1226708E+00
        -11   -1    0    0    0    0  0.00000000000E+00  0.00000000000E+00  0.45593999997E+02  0.45594000000E+02  0.51100000000E-03 0. -1.
         11   -1    0    0    0    0 -0.00000000000E+00 -0.00000000000E+00 -0.45593999997E+02  0.45594000000E+02  0.51100000000E-03 0.  1.
    9900012    2    1    2    0    0 -0.30285876554E+01  0.18454955486E+02 -0.96015580401E+00  0.72461558150E+02  0.69999984180E+02 0.  0.
        -12    1    1    2    0    0  0.30285876554E+01 -0.18454955486E+02  0.96015580401E+00  0.18726441850E+02  0.00000000000E+00 0.  1.
         11    1    3    3    0    0 -0.10174858266E+02  0.27710784256E+01 -0.50446296141E+01  0.11689948870E+02  0.51100000000E-03 0. -1.
        -11    1    3    3    0    0 -0.19884373370E+02 -0.48963369471E+01  0.14665957010E+02  0.25188344826E+02  0.51100000000E-03 0.  1.
         12    1    3    3    0    0  0.27030643980E+02  0.20580214008E+02 -0.10581483200E+02  0.35583264455E+02  0.00000000000E+00 0. -1.
</event>
<event>
 7    1  0.3758561E-013  0.7246155E+02  0.7816164E-02  0.1226708E+00
        -11   -1    0    0    0    0  0.00000000000E+00  0.00000000000E+00  0.45593999997E+02  0.45594000000E+02  0.51100000000E-03 0. -1.
         11   -1    0    0    0    0 -0.00000000000E+00 -0.00000000000E+00 -0.45593999997E+02  0.45594000000E+02  0.51100000000E-03 0.  1.
    9900012    2    1    2    0    0 -0.84727910163E-01  0.17964571585E+02 -0.52864936712E+01  0.72461547416E+02  0.69999970197E+02 0.  0.
        -12    1    1    2    0    0  0.84727910163E-01 -0.17964571585E+02  0.52864936712E+01  0.18726452584E+02  0.00000000000E+00 0.  1.
         11    1    3    3    0    0 -0.10654801383E+02 -0.25490569543E+01  0.72530972288E+01  0.13138869949E+02  0.51100000000E-03 0. -1.
        -11    1    3    3    0    0 -0.59771110216E+01  0.13892970465E+01  0.18380445982E+02  0.19377739734E+02  0.51100000000E-03 0.  1.
        -12    1    3    3    0    0  0.16547184494E+02  0.19124331493E+02 -0.30920036882E+02  0.39944937733E+02  0.00000000000E+00 0.  1.
</event>
<event>
 7    1  0.3758561E-013  0.7246158E+02  0.7816164E-02  0.1226708E+00
        -11   -1    0    0    0    0  0.00000000000E+00  0.00000000000E+00  0.45593999997E+02  0.45594000000E+02  0.51100000000E-03 0. -1.
         11   -1    0    0    0    0 -0.00000000000E+00 -0.00000000000E+00 -0.45593999997E+02  0.45594000000E+02  0.51100000000E-03 0.  1.
    9900012    2    1    2    0    0  0.33002896162E+01  0.18345411893E+02 -0.17979371040E+01  0.72461584783E+02  0.70000018874E+02 0.  0.
        -12    1    1    2    0    0 -0.33002896162E+01 -0.18345411893E+02  0.17979371040E+01  0.18726415217E+02  0.00000000000E+00 0.  1.
         11    1    3    3    0    0 -0.67727906677E+01 -0.11783491719E+02  0.13915458894E+01  0.13662275460E+02  0.51100000000E-03 0. -1.
        -11    1    3    3    0    0 -0.18686005429E+02  0.20785194716E+02  0.23832302068E+01  0.28051219310E+02  0.51100000000E-03 0.  1.
         12    1    3    3    0    0  0.28759085713E+02  0.93437088955E+01 -0.55727132001E+01  0.30748090012E+02  0.00000000000E+00 0. -1.
</event>
<event>
 7    1  0.3758561E-013  0.7246157E+02  0.7816164E-02  0.1226708E+00
        -11   -1    0    0    0    0  0.00000000000E+00  0.00000000000E+00  0.45593999997E+02  0.45594000000E+02  0.51100000000E-03 0.  1.
         11   -1    0    0    0    0 -0.00000000000E+00 -0.00000000000E+00 -0.45593999997E+02  0.45594000000E+02  0.51100000000E-03 0. -1.
    9900012    2    1    2    0    0  0.17307706952E+02  0.67183469225E+00 -0.71183711210E+01  0.72461567099E+02  0.69999995837E+02 0.  0.
        -12    1    1    2    0    0 -0.17307706952E+02 -0.67183469225E+00  0.71183711210E+01  0.18726432901E+02  0.00000000000E+00 0.  1.
         11    1    3    3    0    0  0.59849903751E+01  0.21320854033E+02  0.12135243218E+01  0.22178177743E+02  0.51100000000E-03 0. -1.
        -11    1    3    3    0    0 -0.24736737341E+01  0.73977956178E+01  0.11034754900E+02  0.13513410291E+02  0.51100000000E-03 0.  1.
         12    1    3    3    0    0  0.13796390311E+02 -0.28046814958E+02 -0.19366650342E+02  0.36769979064E+02  0.00000000000E+00 0. -1.
</event>
<event>
 7    1  0.3758561E-013  0.7246155E+02  0.7816164E-02  0.1226708E+00
        -11   -1    0    0    0    0  0.00000000000E+00  0.00000000000E+00  0.45593999997E+02  0.45594000000E+02  0.51100000000E-03 0.  1.
         11   -1    0    0    0    0 -0.00000000000E+00 -0.00000000000E+00 -0.45593999997E+02  0.45594000000E+02  0.51100000000E-03 0. -1.
    9900012    2    1    2    0    0 -0.24388320243E+01  0.21076494251E+01 -0.18446949070E+02  0.72461547647E+02  0.69999970498E+02 0.  0.
        -12    1    1    2    0    0  0.24388320243E+01 -0.21076494251E+01  0.18446949070E+02  0.18726452353E+02  0.00000000000E+00 0.  1.
         11    1    3    3    0    0 -0.78239428133E+00  0.12110259078E+02  0.46692695836E+01  0.13002791795E+02  0.51100000000E-03 0. -1.
        -11    1    3    3    0    0  0.15908934042E+02  0.11900690835E+02  0.41775820973E+01  0.20302039729E+02  0.51100000000E-03 0.  1.
        -12    1    3    3    0    0 -0.17565371785E+02 -0.21903300488E+02 -0.27293800750E+02  0.39156716124E+02  0.00000000000E+00 0.  1.
</event>
<event>
 7    1  0.3758561E-013  0.7246157E+02  0.7816164E-02  0.1226708E+00
        -11   -1    0    0    0    0  0.00000000000E+00  0.00000000000E+00  0.45593999997E+02  0.45594000000E+02  0.51100000000E-03 0.  1.
         11   -1    0    0    0    0 -0.00000000000E+00 -0.00000000000E+00 -0.45593999997E+02  0.45594000000E+02  0.51100000000E-03 0. -1.
    9900012    2    1    2    0    0 -0.11991319976E+02  0.11959550206E+02 -0.79910266255E+01  0.72461572086E+02  0.70000002333E+02 0.  0.
        -12    1    1    2    0    0  0.11991319976E+02 -0.11959550206E+02  0.79910266255E+01  0.18726427914E+02  0.00000000000E+00 0.  1.
         11    1    3    3    0    0  0.16328660354E+02  0.22801571674E+02  0.12501968940E+02  0.30705635434E+02  0.51100000000E-03 0. -1.
        -11    1    3    3    0    0 -0.29716338024E+01 -0.10549973373E+02 -0.50066156764E+01  0.12049844249E+02  0.51100000000E-03 0.  1.
        -12    1    3    3    0    0 -0.25348346528E+02 -0.29204809509E+00 -0.15486379889E+02  0.29706092403E+02  0.00000000000E+00 0.  1.
</event>
<event>
 7    1  0.3758561E-013  0.7246156E+02  0.7816164E-02  0.1226708E+00
        -11   -1    0    0    0    0  0.00000000000E+00  0.00000000000E+00  0.45593999997E+02  0.45594000000E+02  0.51100000000E-03 0. -1.
         11   -1    0    0    0    0 -0.00000000000E+00 -0.00000000000E+00 -0.45593999997E+02  0.45594000000E+02  0.51100000000E-03 0.  1.
    9900012    2    1    2    0    0  0.15255253765E+02 -0.10602612507E+02  0.23539871421E+01  0.72461563743E+02  0.69999991466E+02 0.  0.
        -12    1    1    2    0    0 -0.15255253765E+02  0.10602612507E+02 -0.23539871421E+01  0.18726436257E+02  0.00000000000E+00 0.  1.
         11    1    3    3    0    0 -0.23193080452E+01 -0.24511372304E+02  0.68464971644E+01  0.25555059885E+02  0.51100000000E-03 0. -1.
        -11    1    3    3    0    0 -0.54133686689E+01 -0.81293989936E+01  0.80733370747E+01  0.12671639993E+02  0.51100000000E-03 0.  1.
        -12    1    3    3    0    0  0.22987930479E+02  0.22038158791E+02 -0.12565847097E+02  0.34234863865E+02  0.00000000000E+00 0.  1.
</event>
<event>
 7    1  0.3758561E-013  0.7246158E+02  0.7816164E-02  0.1226708E+00
        -11   -1    0    0    0    0  0.00000000000E+00  0.00000000000E+00  0.45593999997E+02  0.45594000000E+02  0.51100000000E-03 0.  1.
         11   -1    0    0    0    0 -0.00000000000E+00 -0.00000000000E+00 -0.45593999997E+02  0.45594000000E+02  0.51100000000E-03 0. -1.
    9900012    2    1    2    0    0 -0.68750991897E+01 -0.62943773297E+01 -0.16241695841E+02  0.72461578595E+02  0.70000010813E+02 0.  0.
        -12    1    1    2    0    0  0.68750991897E+01  0.62943773297E+01  0.16241695841E+02  0.18726421405E+02  0.00000000000E+00 0.  1.
         11    1    3    3    0    0  0.62653350074E+01  0.11582673498E+02 -0.24212564131E+02  0.27561948592E+02  0.51100000000E-03 0. -1.
        -11    1    3    3    0    0 -0.93999308393E+01  0.10977649643E+02  0.62702384559E+01  0.15753837057E+02  0.51100000000E-03 0.  1.
        -12    1    3    3    0    0 -0.37405033579E+01 -0.28854700471E+02  0.17006298340E+01  0.29145792946E+02  0.00000000000E+00 0.  1.
</event>
<event>
 7    1  0.3758561E-013  0.7246161E+02  0.7816164E-02  0.1226708E+00
        -11   -1    0    0    0    0  0.00000000000E+00  0.00000000000E+00  0.45593999997E+02  0.45594000000E+02  0.51100000000E-03 0.  1.
         11   -1    0    0    0    0 -0.00000000000E+00 -0.00000000000E+00 -0.45593999997E+02  0.45594000000E+02  0.51100000000E-03 0. -1.
    9900012    2    1    2    0    0  0.16093997890E+02  0.59606822879E+01  0.74920823143E+01  0.72461606893E+02  0.70000047676E+02 0.  0.
        -12    1    1    2    0    0 -0.16093997890E+02 -0.59606822879E+01 -0.74920823143E+01  0.18726393107E+02  0.00000000000E+00 0.  1.
         11    1    3    3    0    0  0.11625145764E+02  0.27835769241E+02  0.35792296326E+01  0.30377375599E+02  0.51100000000E-03 0. -1.
        -11    1    3    3    0    0  0.83880503588E+01  0.45449776007E+01 -0.83650527935E+01  0.12688196038E+02  0.51100000000E-03 0.  1.
        -12    1    3    3    0    0 -0.39191982331E+01 -0.26420064554E+02  0.12277905475E+02  0.29396035255E+02  0.00000000000E+00 0.  1.
</event>
<event>
 7    1  0.3758561E-013  0.7246157E+02  0.7816164E-02  0.1226708E+00
        -11   -1    0    0    0    0  0.00000000000E+00  0.00000000000E+00  0.45593999997E+02  0.45594000000E+02  0.51100000000E-03 0.  1.
         11   -1    0    0    0    0 -0.00000000000E+00 -0.00000000000E+00 -0.45593999997E+02  0.45594000000E+02  0.51100000000E-03 0. -1.
    9900012    2    1    2    0    0 -0.83839738374E+01 -0.13543209946E+02 -0.98473151568E+01  0.72461570315E+02  0.70000000027E+02 0.  0.
        -12    1    1    2    0    0  0.83839738374E+01  0.13543209946E+02  0.98473151568E+01  0.18726429685E+02  0.00000000000E+00 0.  1.
         11    1    3    3    0    0 -0.40856135564E+01 -0.23789006993E+01 -0.32562928136E+00  0.47389282922E+01  0.51100000000E-03 0. -1.
        -11    1    3    3    0    0 -0.24373242859E+02  0.11997896639E+02 -0.21671461051E+02  0.34751355593E+02  0.51100000000E-03 0.  1.
        -12    1    3    3    0    0  0.20074882577E+02 -0.23162205886E+02  0.12149775175E+02  0.32971286430E+02  0.00000000000E+00 0.  1.
</event>
<event>
 7    1  0.3758561E-013  0.7246158E+02  0.7816164E-02  0.1226708E+00
        -11   -1    0    0    0    0  0.00000000000E+00  0.00000000000E+00  0.45593999997E+02  0.45594000000E+02  0.51100000000E-03 0.  1.
         11   -1    0    0    0    0 -0.00000000000E+00 -0.00000000000E+00 -0.45593999997E+02  0.45594000000E+02  0.51100000000E-03 0. -1.
    9900012    2    1    2    0    0 -0.86637858233E+01 -0.75731596342E+01 -0.14773795129E+02  0.72461576045E+02  0.70000007491E+02 0.  0.
        -12    1    1    2    0    0  0.86637858233E+01  0.75731596342E+01  0.14773795129E+02  0.18726423955E+02  0.00000000000E+00 0.  1.
         11    1    3    3    0    0 -0.11863329151E+02  0.90973739285E+01  0.27397938836E+00  0.14952453174E+02  0.51100000000E-03 0. -1.
        -11    1    3    3    0    0 -0.13723352596E+02 -0.35118531544E+01  0.14978420170E+02  0.20615930493E+02  0.51100000000E-03 0.  1.
         12    1    3    3    0    0  0.16922895924E+02 -0.13158680408E+02 -0.30026194687E+02  0.36893192379E+02  0.00000000000E+00 0. -1.
</event>
<event>
 7    1  0.3758561E-013  0.7246159E+02  0.7816164E-02  0.1226708E+00
        -11   -1    0    0    0    0  0.00000000000E+00  0.00000000000E+00  0.45593999997E+02  0.45594000000E+02  0.51100000000E-03 0. -1.
         11   -1    0    0    0    0 -0.00000000000E+00 -0.00000000000E+00 -0.45593999997E+02  0.45594000000E+02  0.51100000000E-03 0.  1.
    9900012    2    1    2    0    0  0.10512528951E+02 -0.93253406882E+01  0.12377530181E+02  0.72461588243E+02  0.70000023382E+02 0.  0.
        -12    1    1    2    0    0 -0.10512528951E+02  0.93253406882E+01 -0.12377530181E+02  0.18726411757E+02  0.00000000000E+00 0.  1.
         11    1    3    3    0    0  0.11039897713E+02 -0.10206699899E+02 -0.69765862771E+01  0.16574945571E+02  0.51100000000E-03 0. -1.
        -11    1    3    3    0    0  0.28327785489E+00 -0.14666291336E+02 -0.13242940899E+02  0.19762485467E+02  0.51100000000E-03 0.  1.
         12    1    3    3    0    0 -0.81064661637E+00  0.15547650547E+02  0.32597057357E+02  0.36124157206E+02  0.00000000000E+00 0. -1.
</event>
<event>
 7    1  0.3758561E-013  0.7246157E+02  0.7816164E-02  0.1226708E+00
        -11   -1    0    0    0    0  0.00000000000E+00  0.00000000000E+00  0.45593999997E+02  0.45594000000E+02  0.51100000000E-03 0. -1.
         11   -1    0    0    0    0 -0.00000000000E+00 -0.00000000000E+00 -0.45593999997E+02  0.45594000000E+02  0.51100000000E-03 0.  1.
    9900012    2    1    2    0    0 -0.73922369425E+01 -0.16447287021E+01  0.17126844027E+02  0.72461572528E+02  0.70000002910E+02 0.  0.
        -12    1    1    2    0    0  0.73922369425E+01  0.16447287021E+01 -0.17126844027E+02  0.18726427472E+02  0.00000000000E+00 0.  1.
         11    1    3    3    0    0 -0.34870282949E+02 -0.32836841700E+01  0.23567946014E+01  0.35103756148E+02  0.51100000000E-03 0. -1.
        -11    1    3    3    0    0  0.48213094958E+01 -0.27316108637E+01  0.13099075777E+02  0.14222957134E+02  0.51100000000E-03 0.  1.
        -12    1    3    3    0    0  0.22656736511E+02  0.43705663316E+01  0.16709736484E+01  0.23134859245E+02  0.00000000000E+00 0.  1.
</event>
<event>
 7    1  0.3758561E-013  0.7246154E+02  0.7816164E-02  0.1226708E+00
        -11   -1    0    0    0    0  0.00000000000E+00  0.00000000000E+00  0.45593999997E+02  0.45594000000E+02  0.51100000000E-03 0. -1.
         11   -1    0    0    0    0 -0.00000000000E+00 -0.00000000000E+00 -0.45593999997E+02  0.45594000000E+02  0.51100000000E-03 0.  1.
    9900012    2    1    2    0    0  0.95349836519E+01  0.90592494082E+01  0.13330202219E+02  0.72461542666E+02  0.69999964009E+02 0.  0.
        -12    1    1    2    0    0 -0.95349836519E+01 -0.90592494082E+01 -0.13330202219E+02  0.18726457334E+02  0.00000000000E+00 0.  1.
         11    1    3    3    0    0 -0.19953173460E+01  0.80640457069E+01  0.23043219741E+01  0.86209062456E+01  0.51100000000E-03 0. -1.
        -11    1    3    3    0    0  0.29530289957E+02  0.65018886216E+01  0.25928441910E+02  0.39832106155E+02  0.51100000000E-03 0.  1.
         12    1    3    3    0    0 -0.17999988959E+02 -0.55066849203E+01 -0.14902561665E+02  0.24008530266E+02  0.00000000000E+00 0. -1.
</event>
<event>
 7    1  0.3758561E-013  0.7246160E+02  0.7816164E-02  0.1226708E+00
        -11   -1    0    0    0    0  0.00000000000E+00  0.00000000000E+00  0.45593999997E+02  0.45594000000E+02  0.51100000000E-03 0.  1.
         11   -1    0    0    0    0 -0.00000000000E+00 -0.00000000000E+00 -0.45593999997E+02  0.45594000000E+02  0.51100000000E-03 0. -1.
    9900012    2    1    2    0    0  0.48097110865E+01 -0.17735919691E+02 -0.36030161187E+01  0.72461604373E+02  0.70000044394E+02 0.  0.
        -12    1    1    2    0    0 -0.48097110865E+01  0.17735919691E+02  0.36030161187E+01  0.18726395627E+02  0.00000000000E+00 0.  1.
         11    1    3    3    0    0 -0.95253977411E+01 -0.18527225956E+01 -0.12266842226E+02  0.15641010249E+02  0.51100000000E-03 0. -1.
        -11    1    3    3    0    0 -0.39320744854E+01  0.14729801099E+02  0.14091912047E+02  0.20760786005E+02  0.51100000000E-03 0.  1.
         12    1    3    3    0    0  0.18267183313E+02 -0.30612998194E+02 -0.54280859396E+01  0.36059808119E+02  0.00000000000E+00 0. -1.
</event>
<event>
 7    1  0.3758561E-013  0.7246158E+02  0.7816164E-02  0.1226708E+00
        -11   -1    0    0    0    0  0.00000000000E+00  0.00000000000E+00  0.45593999997E+02  0.45594000000E+02  0.51100000000E-03 0.  1.
         11   -1    0    0    0    0 -0.00000000000E+00 -0.00000000000E+00 -0.45593999997E+02  0.45594000000E+02  0.51100000000E-03 0. -1.
    9900012    2    1    2    0    0  0.12474950027E+02  0.84356031839E+01 -0.11130809779E+02  0.72461582682E+02  0.70000016137E+02 0.  0.
        -12    1    1    2    0    0 -0.12474950027E+02 -0.84356031839E+01  0.11130809779E+02  0.18726417318E+02  0.00000000000E+00 0.  1.
         11    1    3    3    0    0  0.24081533517E+02  0.11826620292E+02 -0.12935628644E+02  0.29784554600E+02  0.51100000000E-03 0. -1.
        -11    1    3    3    0    0  0.91692606336E+01  0.12290294785E+02 -0.43315835160E+01  0.15933904182E+02  0.51100000000E-03 0.  1.
         12    1    3    3    0    0 -0.20775844124E+02 -0.15681311893E+02  0.61364023815E+01  0.26743123900E+02  0.00000000000E+00 0. -1.
</event>
<event>
 7    1  0.3758561E-013  0.7246156E+02  0.7816164E-02  0.1226708E+00
        -11   -1    0    0    0    0  0.00000000000E+00  0.00000000000E+00  0.45593999997E+02  0.45594000000E+02  0.51100000000E-03 0.  1.
         11   -1    0    0    0    0 -0.00000000000E+00 -0.00000000000E+00 -0.45593999997E+02  0.45594000000E+02  0.51100000000E-03 0. -1.
    9900012    2    1    2    0    0 -0.83080283527E+01 -0.14463546184E+02  0.85124573918E+01  0.72461563228E+02  0.69999990795E+02 0.  0.
        -12    1    1    2    0    0  0.83080283527E+01  0.14463546184E+02 -0.85124573918E+01  0.18726436772E+02  0.00000000000E+00 0.  1.
         11    1    3    3    0    0 -0.60174319431E+01 -0.91287646934E+01  0.93184140541E+00  0.10973247499E+02  0.51100000000E-03 0. -1.
        -11    1    3    3    0    0 -0.21264871755E+02 -0.10817720440E+02 -0.17482788512E+02  0.29578129432E+02  0.51100000000E-03 0.  1.
         12    1    3    3    0    0  0.18974275346E+02  0.54829389493E+01  0.25063404499E+02  0.31910186297E+02  0.00000000000E+00 0. -1.
</event>
<event>
 7    1  0.3758561E-013  0.7246155E+02  0.7816164E-02  0.1226708E+00
        -11   -1    0    0    0    0  0.00000000000E+00  0.00000000000E+00  0.45593999997E+02  0.45594000000E+02  0.51100000000E-03 0.  1.
         11   -1    0    0    0    0 -0.00000000000E+00 -0.00000000000E+00 -0.45593999997E+02  0.45594000000E+02  0.51100000000E-03 0. -1.
    9900012    2    1    2    0    0  0.10410353096E+02 -0.12998370674E+01 -0.15511761276E+02  0.72461554372E+02  0.69999979258E+02 0.  0.
        -12    1    1    2    0    0 -0.10410353096E+02  0.12998370674E+01  0.15511761276E+02  0.18726445628E+02  0.00000000000E+00 0.  1.
         11    1    3    3    0    0  0.98937448414E+01  0.81784825075E+01  0.71344813506E+01  0.14685863526E+02  0.51100000000E-03 0. -1.
        -11    1    3    3    0    0  0.23832050275E+02  0.12529727676E+01 -0.49170910660E+00  0.23870030146E+02  0.51100000000E-03 0.  1.
         12    1    3    3    0    0 -0.23315442021E+02 -0.10731292342E+02 -0.22154533520E+02  0.33905660699E+02  0.00000000000E+00 0. -1.
</event>
<event>
 7    1  0.3758561E-013  0.7246158E+02  0.7816164E-02  0.1226708E+00
        -11   -1    0    0    0    0  0.00000000000E+00  0.00000000000E+00  0.45593999997E+02  0.45594000000E+02  0.51100000000E-03 0. -1.
         11   -1    0    0    0    0 -0.00000000000E+00 -0.00000000000E+00 -0.45593999997E+02  0.45594000000E+02  0.51100000000E-03 0.  1.
    9900012    2    1    2    0    0  0.11214477400E+02  0.10155692464E+02  0.11035233805E+02  0.72461575410E+02  0.70000006664E+02 0.  0.
        -12    1    1    2    0    0 -0.11214477400E+02 -0.10155692464E+02 -0.11035233805E+02  0.18726424590E+02  0.00000000000E+00 0.  1.
         11    1    3    3    0    0  0.17429172448E+02 -0.11617916649E+02  0.70360256323E+01  0.22096553949E+02  0.51100000000E-03 0. -1.
        -11    1    3    3    0    0 -0.33081713401E+01 -0.13650168666E+02 -0.24053066216E+01  0.14249793067E+02  0.51100000000E-03 0.  1.
         12    1    3    3    0    0 -0.29065237073E+01  0.35423777779E+02  0.64045147947E+01  0.36115228394E+02  0.00000000000E+00 0. -1.
</event>
<event>
 7    1  0.3758561E-013  0.7246157E+02  0.7816164E-02  0.1226708E+00
        -11   -1    0    0    0    0  0.00000000000E+00  0.00000000000E+00  0.45593999997E+02  0.45594000000E+02  0.51100000000E-03 0. -1.
         11   -1    0    0    0    0 -0.00000000000E+00 -0.00000000000E+00 -0.45593999997E+02  0.45594000000E+02  0.51100000000E-03 0.  1.
    9900012    2    1    2    0    0  0.13462021473E+01  0.18085260679E+02  0.46680223833E+01  0.72461565555E+02  0.69999993826E+02 0.  0.
        -12    1    1    2    0    0 -0.13462021473E+01 -0.18085260679E+02 -0.46680223833E+01  0.18726434445E+02  0.00000000000E+00 0.  1.
         11    1    3    3    0    0 -0.16884102524E+02  0.11527441366E+02  0.11009766805E+02  0.23220029885E+02  0.51100000000E-03 0. -1.
        -11    1    3    3    0    0  0.72339390059E+01  0.25685623284E+02 -0.49008333160E+01  0.27131149708E+02  0.51100000000E-03 0.  1.
        -12    1    3    3    0    0  0.10996365665E+02 -0.19127803971E+02 -0.14409111057E+01  0.22110385962E+02  0.00000000000E+00 0.  1.
</event>
<event>
 7    1  0.3758561E-013  0.7246160E+02  0.7816164E-02  0.1226708E+00
        -11   -1    0    0    0    0  0.00000000000E+00  0.00000000000E+00  0.45593999997E+02  0.45594000000E+02  0.51100000000E-03 0.  1.
         11   -1    0    0    0    0 -0.00000000000E+00 -0.00000000000E+00 -0.45593999997E+02  0.45594000000E+02  0.51100000000E-03 0. -1.
    9900012    2    1    2    0    0  0.16051040167E+02 -0.88141413296E+01 -0.39182825109E+01  0.72461603773E+02  0.70000043612E+02 0.  0.
        -12    1    1    2    0    0 -0.16051040167E+02  0.88141413296E+01  0.39182825109E+01  0.18726396227E+02  0.00000000000E+00 0.  1.
         11    1    3    3    0    0  0.29709786148E+00  0.84306719041E+01  0.99847380474E+01  0.13071323194E+02  0.51100000000E-03 0. -1.
        -11    1    3    3    0    0  0.56807566131E+01 -0.27440702586E+02  0.11445883694E+02  0.30269975354E+02  0.51100000000E-03 0.  1.
         12    1    3    3    0    0  0.10073185692E+02  0.10195889352E+02 -0.25348904252E+02  0.29120305226E+02  0.00000000000E+00 0. -1.
</event>
<event>
 7    1  0.3758561E-013  0.7246158E+02  0.7816164E-02  0.1226708E+00
        -11   -1    0    0    0    0  0.00000000000E+00  0.00000000000E+00  0.45593999997E+02  0.45594000000E+02  0.51100000000E-03 0. -1.
         11   -1    0    0    0    0 -0.00000000000E+00 -0.00000000000E+00 -0.45593999997E+02  0.45594000000E+02  0.51100000000E-03 0.  1.
    9900012    2    1    2    0    0 -0.46998282608E+00 -0.63482847503E+01  0.17611284156E+02  0.72461576616E+02  0.70000008236E+02 0.  0.
        -12    1    1    2    0    0  0.46998282608E+00  0.63482847503E+01 -0.17611284156E+02  0.18726423384E+02  0.00000000000E+00 0.  1.
         11    1    3    3    0    0  0.30814005832E+02  0.11528597977E+02  0.10027553972E+02  0.34394234483E+02  0.51100000000E-03 0. -1.
        -11    1    3    3    0    0 -0.31147676832E+00 -0.12710062487E+00 -0.12483932623E+01  0.12929262718E+01  0.51100000000E-03 0.  1.
        -12    1    3    3    0    0 -0.30972511889E+02 -0.17749782103E+02  0.88321234459E+01  0.36774415862E+02  0.00000000000E+00 0.  1.
</event>
<event>
 7    1  0.3758561E-013  0.7246162E+02  0.7816164E-02  0.1226708E+00
        -11   -1    0    0    0    0  0.00000000000E+00  0.00000000000E+00  0.45593999997E+02  0.45594000000E+02  0.51100000000E-03 0.  1.
         11   -1    0    0    0    0 -0.00000000000E+00 -0.00000000000E+00 -0.45593999997E+02  0.45594000000E+02  0.51100000000E-03 0. -1.
    9900012    2    1    2    0    0  0.56301252487E+01  0.21403305987E+01 -0.17731274106E+02  0.72461617359E+02  0.70000061310E+02 0.  0.
        -12    1    1    2    0    0 -0.56301252487E+01 -0.21403305987E+01  0.17731274106E+02  0.18726382641E+02  0.00000000000E+00 0.  1.
         11    1    3    3    0    0  0.30151604381E+02 -0.10710971697E+01 -0.20709417496E+02  0.36594350236E+02  0.51100000000E-03 0. -1.
        -11    1    3    3    0    0 -0.98328960987E+00 -0.78071042680E+01  0.57278173340E+01  0.97327091388E+01  0.51100000000E-03 0.  1.
         12    1    3    3    0    0 -0.23538189522E+02  0.11018532036E+02 -0.27496739437E+01  0.26134557984E+02  0.00000000000E+00 0. -1.
</event>
<event>
 7    1  0.3758561E-013  0.7246176E+02  0.7816164E-02  0.1226707E+00
        -11   -1    0    0    0    0  0.00000000000E+00  0.00000000000E+00  0.45593999997E+02  0.45594000000E+02  0.51100000000E-03 0.  1.
         11   -1    0    0    0    0 -0.00000000000E+00 -0.00000000000E+00 -0.45593999997E+02  0.45594000000E+02  0.51100000000E-03 0. -1.
    9900012    2    1    2    0    0  0.15889221859E+02  0.98379198247E+01 -0.11915732461E+01  0.72461764806E+02  0.70000253387E+02 0.  0.
        -12    1    1    2    0    0 -0.15889221859E+02 -0.98379198247E+01  0.11915732461E+01  0.18726235194E+02  0.00000000000E+00 0.  1.
         11    1    3    3    0    0 -0.20825801188E+02  0.46125990315E+00 -0.18489507654E+02  0.27852982773E+02  0.51100000000E-03 0. -1.
        -11    1    3    3    0    0  0.59613096177E+01  0.82374151474E+01  0.61139934565E+01  0.11864785582E+02  0.51100000000E-03 0.  1.
        -12    1    3    3    0    0  0.30753713429E+02  0.11392447741E+01  0.11183940951E+02  0.32743996450E+02  0.00000000000E+00 0.  1.
</event>
<event>
 7    1  0.3758561E-013  0.7246156E+02  0.7816164E-02  0.1226708E+00
        -11   -1    0    0    0    0  0.00000000000E+00  0.00000000000E+00  0.45593999997E+02  0.45594000000E+02  0.51100000000E-03 0. -1.
         11   -1    0    0    0    0 -0.00000000000E+00 -0.00000000000E+00 -0.45593999997E+02  0.45594000000E+02  0.51100000000E-03 0.  1.
    9900012    2    1    2    0    0  0.29071638208E+01  0.13550160022E+02  0.12594487636E+02  0.72461559951E+02  0.69999986526E+02 0.  0.
        -12    1    1    2    0    0 -0.29071638208E+01 -0.13550160022E+02 -0.12594487636E+02  0.18726440049E+02  0.00000000000E+00 0.  1.
         11    1    3    3    0    0  0.10338804714E+02  0.69551817139E+01  0.46374016477E+01  0.13295522926E+02  0.51100000000E-03 0. -1.
        -11    1    3    3    0    0 -0.13480225451E+02 -0.38798270666E+01 -0.22432760245E+02  0.26457480394E+02  0.51100000000E-03 0.  1.
         12    1    3    3    0    0  0.60485845584E+01  0.10474805374E+02  0.30389846234E+02  0.32708556631E+02  0.00000000000E+00 0. -1.
</event>
<event>
 7    1  0.3758561E-013  0.7246158E+02  0.7816164E-02  0.1226708E+00
        -11   -1    0    0    0    0  0.00000000000E+00  0.00000000000E+00  0.45593999997E+02  0.45594000000E+02  0.51100000000E-03 0. -1.
         11   -1    0    0    0    0 -0.00000000000E+00 -0.00000000000E+00 -0.45593999997E+02  0.45594000000E+02  0.51100000000E-03 0.  1.
    9900012    2    1    2    0    0 -0.16496451685E+02 -0.61339545229E+01  0.63969076262E+01  0.72461581671E+02  0.70000014820E+02 0.  0.
        -12    1    1    2    0    0  0.16496451685E+02  0.61339545229E+01 -0.63969076262E+01  0.18726418329E+02  0.00000000000E+00 0.  1.
         11    1    3    3    0    0 -0.30287210997E+02 -0.11697280847E+02 -0.74072048294E+00  0.32475994154E+02  0.51100000000E-03 0. -1.
        -11    1    3    3    0    0 -0.11425667637E+02  0.29263898608E+01 -0.37736461250E+01  0.12383458479E+02  0.51100000000E-03 0.  1.
        -12    1    3    3    0    0  0.25216426949E+02  0.26369364631E+01  0.10911274234E+02  0.27602129038E+02  0.00000000000E+00 0.  1.
</event>
<event>
 7    1  0.3758561E-013  0.7246172E+02  0.7816164E-02  0.1226708E+00
        -11   -1    0    0    0    0  0.00000000000E+00  0.00000000000E+00  0.45593999997E+02  0.45594000000E+02  0.51100000000E-03 0.  1.
         11   -1    0    0    0    0 -0.00000000000E+00 -0.00000000000E+00 -0.45593999997E+02  0.45594000000E+02  0.51100000000E-03 0. -1.
    9900012    2    1    2    0    0  0.15768274681E+02 -0.33831771613E+01  0.95178301639E+01  0.72461722603E+02  0.70000198410E+02 0.  0.
        -12    1    1    2    0    0 -0.15768274681E+02  0.33831771613E+01 -0.95178301639E+01  0.18726277397E+02  0.00000000000E+00 0.  1.
         11    1    3    3    0    0  0.52543605450E+01 -0.17367122391E+01  0.24362733308E+02  0.24983339421E+02  0.51100000000E-03 0. -1.
        -11    1    3    3    0    0  0.24396706405E+02  0.94347649970E+01 -0.34730546913E+01  0.26387045744E+02  0.51100000000E-03 0.  1.
         12    1    3    3    0    0 -0.13882792268E+02 -0.11081229919E+02 -0.11371848453E+02  0.21091337438E+02  0.00000000000E+00 0. -1.
</event>
<event>
 7    1  0.3758561E-013  0.7246175E+02  0.7816164E-02  0.1226708E+00
        -11   -1    0    0    0    0  0.00000000000E+00  0.00000000000E+00  0.45593999997E+02  0.45594000000E+02  0.51100000000E-03 0.  1.
         11   -1    0    0    0    0 -0.00000000000E+00 -0.00000000000E+00 -0.45593999997E+02  0.45594000000E+02  0.51100000000E-03 0. -1.
    9900012    2    1    2    0    0  0.11270415152E+02 -0.14273556315E+02 -0.44627197225E+01  0.72461747441E+02  0.70000230766E+02 0.  0.
        -12    1    1    2    0    0 -0.11270415152E+02  0.14273556315E+02  0.44627197225E+01  0.18726252559E+02  0.00000000000E+00 0.  1.
         11    1    3    3    0    0  0.40408437036E+01 -0.15473523305E+02  0.44014688169E+01  0.16587081398E+02  0.51100000000E-03 0. -1.
        -11    1    3    3    0    0 -0.15460083183E+02 -0.16041984211E+02  0.68800197610E+01  0.23317249015E+02  0.51100000000E-03 0.  1.
         12    1    3    3    0    0  0.22689654632E+02  0.17241951201E+02 -0.15744208300E+02  0.32557417028E+02  0.00000000000E+00 0. -1.
</event>
<event>
 7    1  0.3758561E-013  0.7246158E+02  0.7816164E-02  0.1226708E+00
        -11   -1    0    0    0    0  0.00000000000E+00  0.00000000000E+00  0.45593999997E+02  0.45594000000E+02  0.51100000000E-03 0.  1.
         11   -1    0    0    0    0 -0.00000000000E+00 -0.00000000000E+00 -0.45593999997E+02  0.45594000000E+02  0.51100000000E-03 0. -1.
    9900012    2    1    2    0    0 -0.78511273178E+01  0.11353781697E+02 -0.12654256940E+02  0.72461580757E+02  0.70000013629E+02 0.  0.
        -12    1    1    2    0    0  0.78511273178E+01 -0.11353781697E+02  0.12654256940E+02  0.18726419243E+02  0.00000000000E+00 0.  1.
         11    1    3    3    0    0 -0.24224632938E+01 -0.21557323832E+02  0.29192225842E+01  0.21888544948E+02  0.51100000000E-03 0. -1.
        -11    1    3    3    0    0 -0.67982059135E+01 -0.23974962407E+01  0.58212538317E+01  0.92655592547E+01  0.51100000000E-03 0.  1.
        -12    1    3    3    0    0  0.13695418896E+01  0.35308601769E+02 -0.21394733356E+02  0.41307476554E+02  0.00000000000E+00 0.  1.
</event>
<event>
 7    1  0.3758561E-013  0.7246160E+02  0.7816164E-02  0.1226708E+00
        -11   -1    0    0    0    0  0.00000000000E+00  0.00000000000E+00  0.45593999997E+02  0.45594000000E+02  0.51100000000E-03 0.  1.
         11   -1    0    0    0    0 -0.00000000000E+00 -0.00000000000E+00 -0.45593999997E+02  0.45594000000E+02  0.51100000000E-03 0. -1.
    9900012    2    1    2    0    0 -0.12717249147E+01 -0.12464962754E+02 -0.13917096989E+02  0.72461597000E+02  0.70000034789E+02 0.  0.
        -12    1    1    2    0    0  0.12717249147E+01  0.12464962754E+02  0.13917096989E+02  0.18726403000E+02  0.00000000000E+00 0.  1.
         11    1    3    3    0    0  0.48940140524E+01 -0.77128445406E+01  0.51889406142E+00  0.91492401740E+01  0.51100000000E-03 0. -1.
        -11    1    3    3    0    0  0.96098449979E+01  0.10477233602E+02  0.18753733964E+02  0.23533467290E+02  0.51100000000E-03 0.  1.
         12    1    3    3    0    0 -0.15775583965E+02 -0.15229351815E+02 -0.33189725015E+02  0.39778889536E+02  0.00000000000E+00 0. -1.
</event>
<event>
 7    1  0.3758561E-013  0.7246155E+02  0.7816164E-02  0.1226708E+00
        -11   -1    0    0    0    0  0.00000000000E+00  0.00000000000E+00  0.45593999997E+02  0.45594000000E+02  0.51100000000E-03 0.  1.
         11   -1    0    0    0    0 -0.00000000000E+00 -0.00000000000E+00 -0.45593999997E+02  0.45594000000E+02  0.51100000000E-03 0. -1.
    9900012    2    1    2    0    0 -0.22683628374E+01 -0.54648241510E+01 -0.17767108462E+02  0.72461550362E+02  0.69999974034E+02 0.  0.
        -12    1    1    2    0    0  0.22683628374E+01  0.54648241510E+01  0.17767108462E+02  0.18726449638E+02  0.00000000000E+00 0.  1.
         11    1    3    3    0    0 -0.12444963422E+02  0.12635136511E+00  0.14949008273E+02  0.19451630468E+02  0.51100000000E-03 0. -1.
        -11    1    3    3    0    0  0.33337949533E+01  0.34661372527E+00  0.93742952112E+01  0.99554879757E+01  0.51100000000E-03 0.  1.
         12    1    3    3    0    0  0.68428056316E+01 -0.59377892414E+01 -0.42090411946E+02  0.43054431918E+02  0.00000000000E+00 0. -1.
</event>
<event>
 7    1  0.3758561E-013  0.7246160E+02  0.7816164E-02  0.1226708E+00
        -11   -1    0    0    0    0  0.00000000000E+00  0.00000000000E+00  0.45593999997E+02  0.45594000000E+02  0.51100000000E-03 0. -1.
         11   -1    0    0    0    0 -0.00000000000E+00 -0.00000000000E+00 -0.45593999997E+02  0.45594000000E+02  0.51100000000E-03 0.  1.
    9900012    2    1    2    0    0 -0.77394935685E+01 -0.52092979235E+01  0.16237040182E+02  0.72461601002E+02  0.70000040002E+02 0.  0.
        -12    1    1    2    0    0  0.77394935685E+01  0.52092979235E+01 -0.16237040182E+02  0.18726398998E+02  0.00000000000E+00 0.  1.
         11    1    3    3    0    0 -0.10101427453E+02  0.13432724716E+02  0.14601267287E+02  0.22263735907E+02  0.51100000000E-03 0. -1.
        -11    1    3    3    0    0  0.45930077494E+01 -0.22714301442E+02  0.20396191383E+02  0.30871343238E+02  0.51100000000E-03 0.  1.
         12    1    3    3    0    0 -0.22310738644E+01  0.40722788018E+01 -0.18760418488E+02  0.19326521856E+02  0.00000000000E+00 0. -1.
</event>
<event>
 7    1  0.3758561E-013  0.7246149E+02  0.7816164E-02  0.1226708E+00
        -11   -1    0    0    0    0  0.00000000000E+00  0.00000000000E+00  0.45593999997E+02  0.45594000000E+02  0.51100000000E-03 0. -1.
         11   -1    0    0    0    0 -0.00000000000E+00 -0.00000000000E+00 -0.45593999997E+02  0.45594000000E+02  0.51100000000E-03 0.  1.
    9900012    2    1    2    0    0  0.19898276232E+01  0.18549983103E+02  0.16188820091E+01  0.72461492957E+02  0.69999899253E+02 0.  0.
        -12    1    1    2    0    0 -0.19898276232E+01 -0.18549983103E+02 -0.16188820091E+01  0.18726507043E+02  0.00000000000E+00 0.  1.
         11    1    3    3    0    0  0.12165709774E+02  0.11251707953E+02  0.20818262603E+02  0.26608372446E+02  0.51100000000E-03 0. -1.
        -11    1    3    3    0    0  0.13000578527E+02  0.84263091393E+01 -0.16268053918E+02  0.22464801497E+02  0.51100000000E-03 0.  1.
         12    1    3    3    0    0 -0.23176460678E+02 -0.11280339892E+01 -0.29313266754E+01  0.23388319014E+02  0.00000000000E+00 0. -1.
</event>
<event>
 7    1  0.3758561E-013  0.7246123E+02  0.7816164E-02  0.1226709E+00
        -11   -1    0    0    0    0  0.00000000000E+00  0.00000000000E+00  0.45593999997E+02  0.45594000000E+02  0.51100000000E-03 0.  1.
         11   -1    0    0    0    0 -0.00000000000E+00 -0.00000000000E+00 -0.45593999997E+02  0.45594000000E+02  0.51100000000E-03 0. -1.
    9900012    2    1    2    0    0 -0.18630422877E+02 -0.15474671562E+01 -0.10974682850E+01  0.72461234454E+02  0.69999562504E+02 0.  0.
        -12    1    1    2    0    0  0.18630422877E+02  0.15474671562E+01  0.10974682850E+01  0.18726765546E+02  0.00000000000E+00 0.  1.
         11    1    3    3    0    0 -0.27914122454E+02 -0.17700502172E+02  0.49844199670E+01  0.33426792430E+02  0.51100000000E-03 0. -1.
        -11    1    3    3    0    0 -0.43486935130E+01 -0.44775102033E+01 -0.12073199111E+02  0.13591224004E+02  0.51100000000E-03 0.  1.
        -12    1    3    3    0    0  0.13632393089E+02  0.20630545219E+02  0.59913108589E+01  0.25443218020E+02  0.00000000000E+00 0.  1.
</event>
<event>
 7    1  0.3758561E-013  0.7246156E+02  0.7816164E-02  0.1226708E+00
        -11   -1    0    0    0    0  0.00000000000E+00  0.00000000000E+00  0.45593999997E+02  0.45594000000E+02  0.51100000000E-03 0.  1.
         11   -1    0    0    0    0 -0.00000000000E+00 -0.00000000000E+00 -0.45593999997E+02  0.45594000000E+02  0.51100000000E-03 0. -1.
    9900012    2    1    2    0    0  0.13976359572E+02  0.12410024681E+02  0.11542749971E+01  0.72461556392E+02  0.69999981889E+02 0.  0.
        -12    1    1    2    0    0 -0.13976359572E+02 -0.12410024681E+02 -0.11542749971E+01  0.18726443608E+02  0.00000000000E+00 0.  1.
         11    1    3    3    0    0 -0.66642991978E+00  0.96629428479E+00 -0.21951838988E+02  0.21983200146E+02  0.51100000000E-03 0. -1.
        -11    1    3    3    0    0 -0.12619591047E+02 -0.29655407869E+01  0.20143394330E+01  0.13118920457E+02  0.51100000000E-03 0.  1.
        -12    1    3    3    0    0  0.27262380539E+02  0.14409271183E+02  0.21091774552E+02  0.37359435788E+02  0.00000000000E+00 0.  1.
</event>
<event>
 7    1  0.3758561E-013  0.7246149E+02  0.7816164E-02  0.1226708E+00
        -11   -1    0    0    0    0  0.00000000000E+00  0.00000000000E+00  0.45593999997E+02  0.45594000000E+02  0.51100000000E-03 0.  1.
         11   -1    0    0    0    0 -0.00000000000E+00 -0.00000000000E+00 -0.45593999997E+02  0.45594000000E+02  0.51100000000E-03 0. -1.
    9900012    2    1    2    0    0  0.35531345141E+01 -0.14612081250E+02 -0.11159951479E+02  0.72461489370E+02  0.69999894581E+02 0.  0.
        -12    1    1    2    0    0 -0.35531345141E+01  0.14612081250E+02  0.11159951479E+02  0.18726510630E+02  0.00000000000E+00 0.  1.
         11    1    3    3    0    0 -0.15141097854E+02  0.47146698374E+01 -0.11387406777E+02  0.19523165452E+02  0.51100000000E-03 0. -1.
        -11    1    3    3    0    0  0.11740121768E+02  0.94653032435E+01  0.13722094619E+02  0.20389171283E+02  0.51100000000E-03 0.  1.
        -12    1    3    3    0    0  0.69541106000E+01 -0.28792054331E+02 -0.13494639321E+02  0.32549152635E+02  0.00000000000E+00 0.  1.
</event>
<event>
 7    1  0.3758561E-013  0.7246163E+02  0.7816164E-02  0.1226708E+00
        -11   -1    0    0    0    0  0.00000000000E+00  0.00000000000E+00  0.45593999997E+02  0.45594000000E+02  0.51100000000E-03 0. -1.
         11   -1    0    0    0    0 -0.00000000000E+00 -0.00000000000E+00 -0.45593999997E+02  0.45594000000E+02  0.51100000000E-03 0.  1.
    9900012    2    1    2    0    0 -0.40477768659E+01 -0.18076253784E+02 -0.27461963130E+01  0.72461627083E+02  0.70000073978E+02 0.  0.
        -12    1    1    2    0    0  0.40477768659E+01  0.18076253784E+02  0.27461963130E+01  0.18726372917E+02  0.00000000000E+00 0.  1.
         11    1    3    3    0    0 -0.36614586961E+01  0.80143259164E+01  0.34646349299E+01  0.94678083597E+01  0.51100000000E-03 0. -1.
        -11    1    3    3    0    0 -0.17176472288E+02  0.79170799156E+01 -0.14908474028E+02  0.24082648375E+02  0.51100000000E-03 0.  1.
         12    1    3    3    0    0  0.16790154118E+02 -0.34007659616E+02  0.86976427856E+01  0.38911170349E+02  0.00000000000E+00 0. -1.
</event>
<event>
 7    1  0.3758561E-013  0.7246160E+02  0.7816164E-02  0.1226708E+00
        -11   -1    0    0    0    0  0.00000000000E+00  0.00000000000E+00  0.45593999997E+02  0.45594000000E+02  0.51100000000E-03 0. -1.
         11   -1    0    0    0    0 -0.00000000000E+00 -0.00000000000E+00 -0.45593999997E+02  0.45594000000E+02  0.51100000000E-03 0.  1.
    9900012    2    1    2    0    0  0.18219523042E+02 -0.36040307682E+01 -0.23954313598E+01  0.72461597541E+02  0.70000035493E+02 0.  0.
        -12    1    1    2    0    0 -0.18219523042E+02  0.36040307682E+01  0.23954313598E+01  0.18726402459E+02  0.00000000000E+00 0.  1.
         11    1    3    3    0    0 -0.12754666656E+02 -0.19977433836E+02  0.73799575267E+01  0.24824245357E+02  0.51100000000E-03 0. -1.
        -11    1    3    3    0    0 -0.16637056418E+00  0.45749545071E+01 -0.13380572013E+02  0.14142050614E+02  0.51100000000E-03 0.  1.
        -12    1    3    3    0    0  0.31140560263E+02  0.11798448561E+02  0.36051831265E+01  0.33495301570E+02  0.00000000000E+00 0.  1.
</event>
<event>
 7    1  0.3758561E-013  0.7246152E+02  0.7816164E-02  0.1226708E+00
        -11   -1    0    0    0    0  0.00000000000E+00  0.00000000000E+00  0.45593999997E+02  0.45594000000E+02  0.51100000000E-03 0.  1.
         11   -1    0    0    0    0 -0.00000000000E+00 -0.00000000000E+00 -0.45593999997E+02  0.45594000000E+02  0.51100000000E-03 0. -1.
    9900012    2    1    2    0    0 -0.31467624324E+01 -0.82031488781E+01 -0.16537453251E+02  0.72461518074E+02  0.69999931973E+02 0.  0.
        -12    1    1    2    0    0  0.31467624324E+01  0.82031488781E+01  0.16537453251E+02  0.18726481926E+02  0.00000000000E+00 0.  1.
         11    1    3    3    0    0 -0.10288567774E+02  0.71675160402E+00 -0.14248314598E+02  0.17589281647E+02  0.51100000000E-03 0. -1.
        -11    1    3    3    0    0  0.90611833178E+01  0.37310100345E+01  0.23841552013E+02  0.25776832265E+02  0.51100000000E-03 0.  1.
         12    1    3    3    0    0 -0.19193779765E+01 -0.12650910517E+02 -0.26130690665E+02  0.29095404162E+02  0.00000000000E+00 0. -1.
</event>
<event>
 7    1  0.3758561E-013  0.7246160E+02  0.7816164E-02  0.1226708E+00
        -11   -1    0    0    0    0  0.00000000000E+00  0.00000000000E+00  0.45593999997E+02  0.45594000000E+02  0.51100000000E-03 0.  1.
         11   -1    0    0    0    0 -0.00000000000E+00 -0.00000000000E+00 -0.45593999997E+02  0.45594000000E+02  0.51100000000E-03 0. -1.
    9900012    2    1    2    0    0  0.82269487062E+01  0.14478179309E+02 -0.85660739587E+01  0.72461601943E+02  0.70000041228E+02 0.  0.
        -12    1    1    2    0    0 -0.82269487062E+01 -0.14478179309E+02  0.85660739587E+01  0.18726398057E+02  0.00000000000E+00 0.  1.
         11    1    3    3    0    0 -0.20021369762E+01  0.65694535824E+01 -0.82627480671E+01  0.10744267249E+02  0.51100000000E-03 0. -1.
        -11    1    3    3    0    0 -0.17998747690E+02 -0.11945438570E+02  0.12441109888E+02  0.24928490459E+02  0.51100000000E-03 0.  1.
         12    1    3    3    0    0  0.28227833373E+02  0.19854164297E+02 -0.12744435779E+02  0.36788844235E+02  0.00000000000E+00 0. -1.
</event>
<event>
 7    1  0.3758561E-013  0.7246159E+02  0.7816164E-02  0.1226708E+00
        -11   -1    0    0    0    0  0.00000000000E+00  0.00000000000E+00  0.45593999997E+02  0.45594000000E+02  0.51100000000E-03 0.  1.
         11   -1    0    0    0    0 -0.00000000000E+00 -0.00000000000E+00 -0.45593999997E+02  0.45594000000E+02  0.51100000000E-03 0. -1.
    9900012    2    1    2    0    0 -0.70038902267E+01  0.12960385071E+02 -0.11560819792E+02  0.72461585133E+02  0.70000019330E+02 0.  0.
        -12    1    1    2    0    0  0.70038902267E+01 -0.12960385071E+02  0.11560819792E+02  0.18726414867E+02  0.00000000000E+00 0.  1.
         11    1    3    3    0    0 -0.68621560806E+01  0.21935220613E+02  0.84669128072E+01  0.24493503264E+02  0.51100000000E-03 0. -1.
        -11    1    3    3    0    0  0.10129801601E+02 -0.16696817633E+02  0.47121838121E+01  0.20089830166E+02  0.51100000000E-03 0.  1.
         12    1    3    3    0    0 -0.10271535747E+02  0.77219820917E+01 -0.24739916411E+02  0.27878251704E+02  0.00000000000E+00 0. -1.
</event>
<event>
 7    1  0.3758561E-013  0.7246156E+02  0.7816164E-02  0.1226708E+00
        -11   -1    0    0    0    0  0.00000000000E+00  0.00000000000E+00  0.45593999997E+02  0.45594000000E+02  0.51100000000E-03 0. -1.
         11   -1    0    0    0    0 -0.00000000000E+00 -0.00000000000E+00 -0.45593999997E+02  0.45594000000E+02  0.51100000000E-03 0.  1.
    9900012    2    1    2    0    0 -0.44511632406E+01 -0.91648274156E+01  0.15712183777E+02  0.72461557871E+02  0.69999983817E+02 0.  0.
        -12    1    1    2    0    0  0.44511632406E+01  0.91648274156E+01 -0.15712183777E+02  0.18726442129E+02  0.00000000000E+00 0.  1.
         11    1    3    3    0    0  0.71498591074E+01  0.14889295646E+02 -0.42229969892E+01  0.17048322906E+02  0.51100000000E-03 0. -1.
        -11    1    3    3    0    0 -0.10553836202E+02  0.11545942836E+02  0.94961444940E+01  0.18299426632E+02  0.51100000000E-03 0.  1.
        -12    1    3    3    0    0 -0.10471861459E+01 -0.35600065897E+02  0.10439036272E+02  0.37113808333E+02  0.00000000000E+00 0.  1.
</event>
<event>
 7    1  0.3758561E-013  0.7246145E+02  0.7816164E-02  0.1226708E+00
        -11   -1    0    0    0    0  0.00000000000E+00  0.00000000000E+00  0.45593999997E+02  0.45594000000E+02  0.51100000000E-03 0. -1.
         11   -1    0    0    0    0 -0.00000000000E+00 -0.00000000000E+00 -0.45593999997E+02  0.45594000000E+02  0.51100000000E-03 0.  1.
    9900012    2    1    2    0    0  0.14459636025E+02 -0.97233414808E+01 -0.68599648117E+01  0.72461453048E+02  0.69999847264E+02 0.  0.
        -12    1    1    2    0    0 -0.14459636025E+02  0.97233414808E+01  0.68599648117E+01  0.18726546952E+02  0.00000000000E+00 0.  1.
         11    1    3    3    0    0 -0.88018591824E+01  0.91897027700E+01 -0.16234851217E+02  0.20627500003E+02  0.51100000000E-03 0. -1.
        -11    1    3    3    0    0 -0.21042892821E+01  0.11311046791E+02  0.15719578524E+01  0.11612013807E+02  0.51100000000E-03 0.  1.
         12    1    3    3    0    0  0.25365784490E+02 -0.30224091042E+02  0.78029285528E+01  0.40221939238E+02  0.00000000000E+00 0. -1.
</event>
<event>
 7    1  0.3758561E-013  0.7246156E+02  0.7816164E-02  0.1226708E+00
        -11   -1    0    0    0    0  0.00000000000E+00  0.00000000000E+00  0.45593999997E+02  0.45594000000E+02  0.51100000000E-03 0.  1.
         11   -1    0    0    0    0 -0.00000000000E+00 -0.00000000000E+00 -0.45593999997E+02  0.45594000000E+02  0.51100000000E-03 0. -1.
    9900012    2    1    2    0    0 -0.10129153668E+02  0.12865963003E+02 -0.90855244366E+01  0.72461561142E+02  0.69999988077E+02 0.  0.
        -12    1    1    2    0    0  0.10129153668E+02 -0.12865963003E+02  0.90855244366E+01  0.18726438858E+02  0.00000000000E+00 0.  1.
         11    1    3    3    0    0 -0.21468843503E+02 -0.71377549979E+01 -0.26745904648E+02  0.35031445923E+02  0.51100000000E-03 0. -1.
        -11    1    3    3    0    0  0.26219790223E+01 -0.53413455655E+01  0.50724505577E+01  0.78188555022E+01  0.51100000000E-03 0.  1.
        -12    1    3    3    0    0  0.87177108129E+01  0.25345063566E+02  0.12587929654E+02  0.29611259716E+02  0.00000000000E+00 0.  1.
</event>
<event>
 7    1  0.3758561E-013  0.7246160E+02  0.7816164E-02  0.1226708E+00
        -11   -1    0    0    0    0  0.00000000000E+00  0.00000000000E+00  0.45593999997E+02  0.45594000000E+02  0.51100000000E-03 0. -1.
         11   -1    0    0    0    0 -0.00000000000E+00 -0.00000000000E+00 -0.45593999997E+02  0.45594000000E+02  0.51100000000E-03 0.  1.
    9900012    2    1    2    0    0  0.16018927312E+02  0.22812682010E+01  0.94269813835E+01  0.72461596319E+02  0.70000033902E+02 0.  0.
        -12    1    1    2    0    0 -0.16018927312E+02 -0.22812682010E+01 -0.94269813835E+01  0.18726403681E+02  0.00000000000E+00 0.  1.
         11    1    3    3    0    0 -0.38277496405E+01 -0.23722834169E+02 -0.13235066654E+02  0.27433401501E+02  0.51100000000E-03 0.  1.
        -11    1    3    3    0    0  0.38023303110E+01  0.26469909680E+01  0.14963361789E+02  0.15664178027E+02  0.51100000000E-03 0. -1.
        -12    1    3    3    0    0  0.16044346641E+02  0.23357111402E+02  0.76986862482E+01  0.29364016791E+02  0.00000000000E+00 0.  1.
</event>
<event>
 7    1  0.3758561E-013  0.7246156E+02  0.7816164E-02  0.1226708E+00
        -11   -1    0    0    0    0  0.00000000000E+00  0.00000000000E+00  0.45593999997E+02  0.45594000000E+02  0.51100000000E-03 0.  1.
         11   -1    0    0    0    0 -0.00000000000E+00 -0.00000000000E+00 -0.45593999997E+02  0.45594000000E+02  0.51100000000E-03 0. -1.
    9900012    2    1    2    0    0 -0.14523769465E+02  0.14434188115E+01 -0.11732695100E+02  0.72461562228E+02  0.69999989492E+02 0.  0.
        -12    1    1    2    0    0  0.14523769465E+02 -0.14434188115E+01  0.11732695100E+02  0.18726437772E+02  0.00000000000E+00 0.  1.
         11    1    3    3    0    0 -0.67388216500E+01 -0.88597046686E+01 -0.27241494998E+02  0.29427965170E+02  0.51100000000E-03 0. -1.
        -11    1    3    3    0    0 -0.10244457640E+02 -0.11233257801E+02 -0.17799567341E+01  0.15306967021E+02  0.51100000000E-03 0.  1.
        -12    1    3    3    0    0  0.24595098249E+01  0.21536381281E+02  0.17288756633E+02  0.27726630036E+02  0.00000000000E+00 0.  1.
</event>
<event>
 7    1  0.3758561E-013  0.7246157E+02  0.7816164E-02  0.1226708E+00
        -11   -1    0    0    0    0  0.00000000000E+00  0.00000000000E+00  0.45593999997E+02  0.45594000000E+02  0.51100000000E-03 0.  1.
         11   -1    0    0    0    0 -0.00000000000E+00 -0.00000000000E+00 -0.45593999997E+02  0.45594000000E+02  0.51100000000E-03 0. -1.
    9900012    2    1    2    0    0 -0.96732562589E+01 -0.11205523908E+02 -0.11469240499E+02  0.72461571341E+02  0.70000001364E+02 0.  0.
        -12    1    1    2    0    0  0.96732562589E+01  0.11205523908E+02  0.11469240499E+02  0.18726428659E+02  0.00000000000E+00 0.  1.
         11    1    3    3    0    0 -0.93144941481E+01  0.63822581919E+00  0.22254615311E+01  0.95979066842E+01  0.51100000000E-03 0. -1.
        -11    1    3    3    0    0 -0.18943507183E+02 -0.22565024087E+02  0.97969600067E+01  0.31048626412E+02  0.51100000000E-03 0.  1.
         12    1    3    3    0    0  0.18584745072E+02  0.10721274360E+02 -0.23491662037E+02  0.31815038245E+02  0.00000000000E+00 0. -1.
</event>
<event>
 7    1  0.3758561E-013  0.7246162E+02  0.7816164E-02  0.1226708E+00
        -11   -1    0    0    0    0  0.00000000000E+00  0.00000000000E+00  0.45593999997E+02  0.45594000000E+02  0.51100000000E-03 0. -1.
         11   -1    0    0    0    0 -0.00000000000E+00 -0.00000000000E+00 -0.45593999997E+02  0.45594000000E+02  0.51100000000E-03 0.  1.
    9900012    2    1    2    0    0  0.17098337982E+02 -0.14825523488E+01 -0.74917308547E+01  0.72461624098E+02  0.70000070090E+02 0.  0.
        -12    1    1    2    0    0 -0.17098337982E+02  0.14825523488E+01  0.74917308547E+01  0.18726375902E+02  0.00000000000E+00 0.  1.
         11    1    3    3    0    0  0.12310308719E+02 -0.18524042026E+01  0.54654634126E+01  0.13595822618E+02  0.51100000000E-03 0. -1.
        -11    1    3    3    0    0  0.12840327977E+02  0.23797716593E+02  0.59673398453E+01  0.27691415325E+02  0.51100000000E-03 0.  1.
        -12    1    3    3    0    0 -0.80522987136E+01 -0.23427864739E+02 -0.18924534113E+02  0.31174386156E+02  0.00000000000E+00 0.  1.
</event>
<event>
 7    1  0.3758561E-013  0.7246160E+02  0.7816164E-02  0.1226708E+00
        -11   -1    0    0    0    0  0.00000000000E+00  0.00000000000E+00  0.45593999997E+02  0.45594000000E+02  0.51100000000E-03 0. -1.
         11   -1    0    0    0    0 -0.00000000000E+00 -0.00000000000E+00 -0.45593999997E+02  0.45594000000E+02  0.51100000000E-03 0.  1.
    9900012    2    1    2    0    0 -0.51494286843E+01 -0.10396435916E+02  0.14699503494E+02  0.72461604231E+02  0.70000044208E+02 0.  0.
        -12    1    1    2    0    0  0.51494286843E+01  0.10396435916E+02 -0.14699503494E+02  0.18726395769E+02  0.00000000000E+00 0.  1.
         11    1    3    3    0    0 -0.13702479910E+02 -0.19205211428E+01 -0.19149099520E+02  0.23624867615E+02  0.51100000000E-03 0. -1.
        -11    1    3    3    0    0 -0.28054357162E+01 -0.11177938853E+02 -0.14889088251E+01  0.11620397425E+02  0.51100000000E-03 0.  1.
         12    1    3    3    0    0  0.11358486942E+02  0.27020240800E+01  0.35337511839E+02  0.37216339190E+02  0.00000000000E+00 0. -1.
</event>
<event>
 7    1  0.3758561E-013  0.7246158E+02  0.7816164E-02  0.1226708E+00
        -11   -1    0    0    0    0  0.00000000000E+00  0.00000000000E+00  0.45593999997E+02  0.45594000000E+02  0.51100000000E-03 0. -1.
         11   -1    0    0    0    0 -0.00000000000E+00 -0.00000000000E+00 -0.45593999997E+02  0.45594000000E+02  0.51100000000E-03 0.  1.
    9900012    2    1    2    0    0  0.12748990786E+02 -0.13710434328E+02  0.40724313258E+00  0.72461584900E+02  0.70000019027E+02 0.  0.
        -12    1    1    2    0    0 -0.12748990786E+02  0.13710434328E+02 -0.40724313258E+00  0.18726415100E+02  0.00000000000E+00 0.  1.
         11    1    3    3    0    0 -0.80705496967E+01  0.26568339527E+01 -0.17457236369E+02  0.19415139478E+02  0.51100000000E-03 0. -1.
        -11    1    3    3    0    0 -0.14086213354E+01 -0.18980743691E+02 -0.63580889509E+01  0.20066841817E+02  0.51100000000E-03 0.  1.
         12    1    3    3    0    0  0.22228161818E+02  0.26134754105E+01  0.24222568452E+02  0.32979603605E+02  0.00000000000E+00 0. -1.
</event>
<event>
 7    1  0.3758561E-013  0.7246154E+02  0.7816164E-02  0.1226708E+00
        -11   -1    0    0    0    0  0.00000000000E+00  0.00000000000E+00  0.45593999997E+02  0.45594000000E+02  0.51100000000E-03 0. -1.
         11   -1    0    0    0    0 -0.00000000000E+00 -0.00000000000E+00 -0.45593999997E+02  0.45594000000E+02  0.51100000000E-03 0.  1.
    9900012    2    1    2    0    0 -0.94395401258E+01 -0.10287024254E+02  0.12480077481E+02  0.72461544924E+02  0.69999966950E+02 0.  0.
        -12    1    1    2    0    0  0.94395401258E+01  0.10287024254E+02 -0.12480077481E+02  0.18726455076E+02  0.00000000000E+00 0.  1.
         11    1    3    3    0    0  0.10546948129E+02  0.11621890667E+02 -0.16110696382E+02  0.22491353799E+02  0.51100000000E-03 0. -1.
        -11    1    3    3    0    0  0.56517556855E+01 -0.33482976856E+01 -0.99527725460E+00  0.66440963866E+01  0.51100000000E-03 0.  1.
        -12    1    3    3    0    0 -0.25638243941E+02 -0.18560617235E+02  0.29586051118E+02  0.43326094738E+02  0.00000000000E+00 0.  1.
</event>
<event>
 7    1  0.3758561E-013  0.7246158E+02  0.7816164E-02  0.1226708E+00
        -11   -1    0    0    0    0  0.00000000000E+00  0.00000000000E+00  0.45593999997E+02  0.45594000000E+02  0.51100000000E-03 0.  1.
         11   -1    0    0    0    0 -0.00000000000E+00 -0.00000000000E+00 -0.45593999997E+02  0.45594000000E+02  0.51100000000E-03 0. -1.
    9900012    2    1    2    0    0 -0.94304660468E+01  0.16035623796E+02  0.21456453467E+01  0.72461582448E+02  0.70000015833E+02 0.  0.
        -12    1    1    2    0    0  0.94304660468E+01 -0.16035623796E+02 -0.21456453467E+01  0.18726417552E+02  0.00000000000E+00 0.  1.
         11    1    3    3    0    0 -0.10452118297E+02  0.34026621058E+02 -0.78923524526E+01  0.36460210436E+02  0.51100000000E-03 0. -1.
        -11    1    3    3    0    0 -0.91469089885E+01 -0.62324184869E+01 -0.68746851066E+01  0.13029592465E+02  0.51100000000E-03 0.  1.
        -12    1    3    3    0    0  0.10168561239E+02 -0.11758578776E+02  0.16912682906E+02  0.22971779547E+02  0.00000000000E+00 0.  1.
</event>
<event>
 7    1  0.3758561E-013  0.7246166E+02  0.7816164E-02  0.1226708E+00
        -11   -1    0    0    0    0  0.00000000000E+00  0.00000000000E+00  0.45593999997E+02  0.45594000000E+02  0.51100000000E-03 0.  1.
         11   -1    0    0    0    0 -0.00000000000E+00 -0.00000000000E+00 -0.45593999997E+02  0.45594000000E+02  0.51100000000E-03 0. -1.
    9900012    2    1    2    0    0  0.11888248925E+01  0.92496888323E+01 -0.16239016745E+02  0.72461662586E+02  0.70000120227E+02 0.  0.
        -12    1    1    2    0    0 -0.11888248925E+01 -0.92496888323E+01  0.16239016745E+02  0.18726337414E+02  0.00000000000E+00 0.  1.
         11    1    3    3    0    0 -0.10790392104E+02 -0.42752756841E+01 -0.54303641894E+01  0.12814031350E+02  0.51100000000E-03 0. -1.
        -11    1    3    3    0    0 -0.10919609225E+01  0.20142232224E+02  0.18187497380E+02  0.27160393201E+02  0.51100000000E-03 0.  1.
         12    1    3    3    0    0  0.13071177919E+02 -0.66172677078E+01 -0.28996149935E+02  0.32487238035E+02  0.00000000000E+00 0. -1.
</event>
<event>
 7    1  0.3758561E-013  0.7246157E+02  0.7816164E-02  0.1226708E+00
        -11   -1    0    0    0    0  0.00000000000E+00  0.00000000000E+00  0.45593999997E+02  0.45594000000E+02  0.51100000000E-03 0. -1.
         11   -1    0    0    0    0 -0.00000000000E+00 -0.00000000000E+00 -0.45593999997E+02  0.45594000000E+02  0.51100000000E-03 0.  1.
    9900012    2    1    2    0    0 -0.99807202120E+01 -0.45355457134E+01  0.15182006883E+02  0.72461567242E+02  0.69999996023E+02 0.  0.
        -12    1    1    2    0    0  0.99807202120E+01  0.45355457134E+01 -0.15182006883E+02  0.18726432758E+02  0.00000000000E+00 0.  1.
         11    1    3    3    0    0 -0.17218547864E+02  0.74410611832E+01  0.38546574361E+02  0.42868242060E+02  0.51100000000E-03 0. -1.
        -11    1    3    3    0    0  0.30243125058E+01 -0.74594944449E+01 -0.34763327641E+01  0.87678625248E+01  0.51100000000E-03 0.  1.
        -12    1    3    3    0    0  0.42135151462E+01 -0.45171124517E+01 -0.19888234715E+02  0.20825462657E+02  0.00000000000E+00 0.  1.
</event>
<event>
 7    1  0.3758561E-013  0.7246158E+02  0.7816164E-02  0.1226708E+00
        -11   -1    0    0    0    0  0.00000000000E+00  0.00000000000E+00  0.45593999997E+02  0.45594000000E+02  0.51100000000E-03 0.  1.
         11   -1    0    0    0    0 -0.00000000000E+00 -0.00000000000E+00 -0.45593999997E+02  0.45594000000E+02  0.51100000000E-03 0. -1.
    9900012    2    1    2    0    0  0.10900300211E+00 -0.18228462494E+02  0.42883829079E+01  0.72461576035E+02  0.70000007479E+02 0.  0.
        -12    1    1    2    0    0 -0.10900300211E+00  0.18228462494E+02 -0.42883829079E+01  0.18726423965E+02  0.00000000000E+00 0.  1.
         11    1    3    3    0    0 -0.16920270721E+02 -0.21605925725E+02  0.22068795150E+00  0.27443765980E+02  0.51100000000E-03 0. -1.
        -11    1    3    3    0    0 -0.99721084934E+01  0.12265301272E+02 -0.20512941481E+01  0.15940149656E+02  0.51100000000E-03 0.  1.
        -12    1    3    3    0    0  0.27001382217E+02 -0.88878380414E+01  0.61189891046E+01  0.29077660400E+02  0.00000000000E+00 0.  1.
</event>
<event>
 7    1  0.3758561E-013  0.7246154E+02  0.7816164E-02  0.1226708E+00
        -11   -1    0    0    0    0  0.00000000000E+00  0.00000000000E+00  0.45593999997E+02  0.45594000000E+02  0.51100000000E-03 0.  1.
         11   -1    0    0    0    0 -0.00000000000E+00 -0.00000000000E+00 -0.45593999997E+02  0.45594000000E+02  0.51100000000E-03 0. -1.
    9900012    2    1    2    0    0  0.54028178689E+01 -0.11537126371E+02 -0.13725332317E+02  0.72461535490E+02  0.69999954661E+02 0.  0.
        -12    1    1    2    0    0 -0.54028178689E+01  0.11537126371E+02  0.13725332317E+02  0.18726464510E+02  0.00000000000E+00 0.  1.
         11    1    3    3    0    0  0.15038112105E+01 -0.29760392761E+02 -0.16122897771E+02  0.33880529191E+02  0.51100000000E-03 0. -1.
        -11    1    3    3    0    0 -0.51317177716E+01  0.90394739293E+01 -0.14183815681E+02  0.17584858366E+02  0.51100000000E-03 0.  1.
        -12    1    3    3    0    0  0.90307244299E+01  0.91837924610E+01  0.16581381135E+02  0.20996147933E+02  0.00000000000E+00 0.  1.
</event>
<event>
 7    1  0.3758561E-013  0.7246157E+02  0.7816164E-02  0.1226708E+00
        -11   -1    0    0    0    0  0.00000000000E+00  0.00000000000E+00  0.45593999997E+02  0.45594000000E+02  0.51100000000E-03 0. -1.
         11   -1    0    0    0    0 -0.00000000000E+00 -0.00000000000E+00 -0.45593999997E+02  0.45594000000E+02  0.51100000000E-03 0.  1.
    9900012    2    1    2    0    0  0.44924040526E+01 -0.14591689785E+00  0.18179000520E+02  0.72461573597E+02  0.70000004303E+02 0.  0.
        -12    1    1    2    0    0 -0.44924040526E+01  0.14591689785E+00 -0.18179000520E+02  0.18726426403E+02  0.00000000000E+00 0.  1.
         11    1    3    3    0    0 -0.41964121385E+01 -0.19200831377E+02 -0.12207609878E+02  0.23136714105E+02  0.51100000000E-03 0. -1.
        -11    1    3    3    0    0 -0.10530024074E+02 -0.18329362559E+00  0.14198230901E+02  0.17677804291E+02  0.51100000000E-03 0.  1.
        -12    1    3    3    0    0  0.19218840265E+02  0.19238208105E+02  0.16188379496E+02  0.31647055201E+02  0.00000000000E+00 0.  1.
</event>
<event>
 7    1  0.3758561E-013  0.7246146E+02  0.7816164E-02  0.1226708E+00
        -11   -1    0    0    0    0  0.00000000000E+00  0.00000000000E+00  0.45593999997E+02  0.45594000000E+02  0.51100000000E-03 0. -1.
         11   -1    0    0    0    0 -0.00000000000E+00 -0.00000000000E+00 -0.45593999997E+02  0.45594000000E+02  0.51100000000E-03 0.  1.
    9900012    2    1    2    0    0  0.10528508566E+02  0.14296581358E+02  0.59532967450E+01  0.72461455384E+02  0.69999850307E+02 0.  0.
        -12    1    1    2    0    0 -0.10528508566E+02 -0.14296581358E+02 -0.59532967450E+01  0.18726544616E+02  0.00000000000E+00 0.  1.
         11    1    3    3    0    0  0.34807939366E+01 -0.27628311312E+01 -0.52486552142E+01  0.68773209979E+01  0.51100000000E-03 0. -1.
        -11    1    3    3    0    0 -0.10370528729E+02 -0.12103688475E+02 -0.15609307948E+02  0.22309137941E+02  0.51100000000E-03 0.  1.
         12    1    3    3    0    0  0.17418243358E+02  0.29163100964E+02  0.26811259907E+02  0.43274996445E+02  0.00000000000E+00 0. -1.
</event>
<event>
 7    1  0.3758561E-013  0.7246157E+02  0.7816164E-02  0.1226708E+00
        -11   -1    0    0    0    0  0.00000000000E+00  0.00000000000E+00  0.45593999997E+02  0.45594000000E+02  0.51100000000E-03 0.  1.
         11   -1    0    0    0    0 -0.00000000000E+00 -0.00000000000E+00 -0.45593999997E+02  0.45594000000E+02  0.51100000000E-03 0. -1.
    9900012    2    1    2    0    0  0.16663033075E+02  0.85427785285E+01  0.20862499868E+00  0.72461567862E+02  0.69999996831E+02 0.  0.
        -12    1    1    2    0    0 -0.16663033075E+02 -0.85427785285E+01 -0.20862499868E+00  0.18726432138E+02  0.00000000000E+00 0.  1.
         11    1    3    3    0    0  0.41463748276E+01 -0.24225499766E+01  0.66680001595E+01  0.82172622562E+01  0.51100000000E-03 0. -1.
        -11    1    3    3    0    0  0.71580129680E+01  0.31331078136E+02  0.13842688137E+02  0.34992765280E+02  0.51100000000E-03 0.  1.
         12    1    3    3    0    0  0.53586452791E+01 -0.20365749631E+02 -0.20302063297E+02  0.29251540325E+02  0.00000000000E+00 0. -1.
</event>
<event>
 7    1  0.3758561E-013  0.7246148E+02  0.7816164E-02  0.1226708E+00
        -11   -1    0    0    0    0  0.00000000000E+00  0.00000000000E+00  0.45593999997E+02  0.45594000000E+02  0.51100000000E-03 0.  1.
         11   -1    0    0    0    0 -0.00000000000E+00 -0.00000000000E+00 -0.45593999997E+02  0.45594000000E+02  0.51100000000E-03 0. -1.
    9900012    2    1    2    0    0  0.85986905122E+00  0.18587650643E+02 -0.21076661708E+01  0.72461484363E+02  0.69999888059E+02 0.  0.
        -12    1    1    2    0    0 -0.85986905122E+00 -0.18587650643E+02  0.21076661708E+01  0.18726515637E+02  0.00000000000E+00 0.  1.
         11    1    3    3    0    0  0.14348138386E+02  0.87992168463E+01  0.68728838503E+00  0.16845404651E+02  0.51100000000E-03 0. -1.
        -11    1    3    3    0    0 -0.46626710726E+01  0.23594163164E+01  0.24990486806E+02  0.25530996415E+02  0.51100000000E-03 0.  1.
         12    1    3    3    0    0 -0.88255982624E+01  0.74290174801E+01 -0.27785441361E+02  0.30085083298E+02  0.00000000000E+00 0. -1.
</event>
<event>
 7    1  0.3758561E-013  0.7246162E+02  0.7816164E-02  0.1226708E+00
        -11   -1    0    0    0    0  0.00000000000E+00  0.00000000000E+00  0.45593999997E+02  0.45594000000E+02  0.51100000000E-03 0.  1.
         11   -1    0    0    0    0 -0.00000000000E+00 -0.00000000000E+00 -0.45593999997E+02  0.45594000000E+02  0.51100000000E-03 0. -1.
    9900012    2    1    2    0    0 -0.16516145780E+02  0.32797087101E+00 -0.88196732914E+01  0.72461620925E+02  0.70000065955E+02 0.  0.
        -12    1    1    2    0    0  0.16516145780E+02 -0.32797087101E+00  0.88196732914E+01  0.18726379075E+02  0.00000000000E+00 0.  1.
         11    1    3    3    0    0 -0.54702666059E+01 -0.22611815742E+02  0.13271386845E+02  0.26783348128E+02  0.51100000000E-03 0. -1.
        -11    1    3    3    0    0  0.57737174359E+01 -0.33055201601E+01  0.12068922699E+01  0.67615727291E+01  0.51100000000E-03 0.  1.
        -12    1    3    3    0    0 -0.16819596610E+02  0.26245306773E+02 -0.23297952407E+02  0.38916700067E+02  0.00000000000E+00 0.  1.
</event>
<event>
 7    1  0.3758561E-013  0.7246162E+02  0.7816164E-02  0.1226708E+00
        -11   -1    0    0    0    0  0.00000000000E+00  0.00000000000E+00  0.45593999997E+02  0.45594000000E+02  0.51100000000E-03 0.  1.
         11   -1    0    0    0    0 -0.00000000000E+00 -0.00000000000E+00 -0.45593999997E+02  0.45594000000E+02  0.51100000000E-03 0. -1.
    9900012    2    1    2    0    0 -0.75175986717E+01  0.92487072050E+01 -0.14443837913E+02  0.72461619453E+02  0.70000064038E+02 0.  0.
        -12    1    1    2    0    0  0.75175986717E+01 -0.92487072050E+01  0.14443837913E+02  0.18726380547E+02  0.00000000000E+00 0.  1.
         11    1    3    3    0    0 -0.48316457456E+01 -0.85443079824E+01  0.51392533756E+01  0.11079798059E+02  0.51100000000E-03 0. -1.
        -11    1    3    3    0    0 -0.72747164983E+01  0.31917184266E+01  0.18610813251E+02  0.20235388229E+02  0.51100000000E-03 0.  1.
         12    1    3    3    0    0  0.45887635722E+01  0.14601296761E+02 -0.38193904539E+02  0.41146433165E+02  0.00000000000E+00 0. -1.
</event>
<event>
 7    1  0.3758561E-013  0.7246157E+02  0.7816164E-02  0.1226708E+00
        -11   -1    0    0    0    0  0.00000000000E+00  0.00000000000E+00  0.45593999997E+02  0.45594000000E+02  0.51100000000E-03 0. -1.
         11   -1    0    0    0    0 -0.00000000000E+00 -0.00000000000E+00 -0.45593999997E+02  0.45594000000E+02  0.51100000000E-03 0.  1.
    9900012    2    1    2    0    0 -0.12363317942E+02 -0.72135806587E+01  0.12074422217E+02  0.72461573530E+02  0.70000004215E+02 0.  0.
        -12    1    1    2    0    0  0.12363317942E+02  0.72135806587E+01 -0.12074422217E+02  0.18726426470E+02  0.00000000000E+00 0.  1.
         11    1    3    3    0    0  0.37067039413E+01  0.24323114174E+01  0.98250700959E+01  0.10779044280E+02  0.51100000000E-03 0. -1.
        -11    1    3    3    0    0  0.20906404309E+02 -0.61645948337E+01  0.96089706524E+01  0.23820417458E+02  0.51100000000E-03 0.  1.
         12    1    3    3    0    0 -0.36976426193E+02 -0.34812972424E+01 -0.73596185316E+01  0.37862111793E+02  0.00000000000E+00 0. -1.
</event>
<event>
 7    1  0.3758561E-013  0.7246155E+02  0.7816164E-02  0.1226708E+00
        -11   -1    0    0    0    0  0.00000000000E+00  0.00000000000E+00  0.45593999997E+02  0.45594000000E+02  0.51100000000E-03 0. -1.
         11   -1    0    0    0    0 -0.00000000000E+00 -0.00000000000E+00 -0.45593999997E+02  0.45594000000E+02  0.51100000000E-03 0.  1.
    9900012    2    1    2    0    0  0.13110454519E+02  0.99807185597E+01  0.88983729235E+01  0.72461553424E+02  0.69999978024E+02 0.  0.
        -12    1    1    2    0    0 -0.13110454519E+02 -0.99807185597E+01 -0.88983729235E+01  0.18726446576E+02  0.00000000000E+00 0.  1.
         11    1    3    3    0    0  0.18378556348E+02 -0.18965558455E+01 -0.80892286359E+01  0.20169379705E+02  0.51100000000E-03 0. -1.
        -11    1    3    3    0    0 -0.13585371622E+02 -0.10766234494E+02 -0.66053122508E+01  0.18550047910E+02  0.51100000000E-03 0.  1.
         12    1    3    3    0    0  0.83172697930E+01  0.22643508899E+02  0.23592913810E+02  0.33742125809E+02  0.00000000000E+00 0. -1.
</event>
<event>
 7    1  0.3758561E-013  0.7246158E+02  0.7816164E-02  0.1226708E+00
        -11   -1    0    0    0    0  0.00000000000E+00  0.00000000000E+00  0.45593999997E+02  0.45594000000E+02  0.51100000000E-03 0.  1.
         11   -1    0    0    0    0 -0.00000000000E+00 -0.00000000000E+00 -0.45593999997E+02  0.45594000000E+02  0.51100000000E-03 0. -1.
    9900012    2    1    2    0    0  0.12872065531E+02  0.12558685433E+02  0.52219095818E+01  0.72461575073E+02  0.70000006226E+02 0.  0.
        -12    1    1    2    0    0 -0.12872065531E+02 -0.12558685433E+02 -0.52219095818E+01  0.18726424927E+02  0.00000000000E+00 0.  1.
         11    1    3    3    0    0  0.21767610467E+02  0.15003706124E+02  0.47525320606E+01  0.26861247628E+02  0.51100000000E-03 0. -1.
        -11    1    3    3    0    0  0.17014545611E+02 -0.25056288376E+01 -0.71017402574E+01  0.18606656152E+02  0.51100000000E-03 0.  1.
         12    1    3    3    0    0 -0.25910090546E+02  0.60608146749E-01  0.75711177785E+01  0.26993671293E+02  0.00000000000E+00 0. -1.
</event>
<event>
 7    1  0.3758561E-013  0.7246209E+02  0.7816164E-02  0.1226707E+00
        -11   -1    0    0    0    0  0.00000000000E+00  0.00000000000E+00  0.45593999997E+02  0.45594000000E+02  0.51100000000E-03 0.  1.
         11   -1    0    0    0    0 -0.00000000000E+00 -0.00000000000E+00 -0.45593999997E+02  0.45594000000E+02  0.51100000000E-03 0. -1.
    9900012    2    1    2    0    0  0.68759724094E+01  0.11002332625E+02 -0.13502937183E+02  0.72462091949E+02  0.70000679548E+02 0.  0.
        -12    1    1    2    0    0 -0.68759724094E+01 -0.11002332625E+02  0.13502937183E+02  0.18725908051E+02  0.00000000000E+00 0.  1.
         11    1    3    3    0    0  0.12407933798E+02  0.14261399722E+02 -0.25780742365E+01  0.19078543189E+02  0.51100000000E-03 0. -1.
        -11    1    3    3    0    0  0.22130789464E+02 -0.91565018267E+01 -0.42906971873E+01  0.24331532024E+02  0.51100000000E-03 0.  1.
        -12    1    3    3    0    0 -0.27662750853E+02  0.58974347300E+01 -0.66341657594E+01  0.29052016736E+02  0.00000000000E+00 0.  1.
</event>
<event>
 7    1  0.3758561E-013  0.7246158E+02  0.7816164E-02  0.1226708E+00
        -11   -1    0    0    0    0  0.00000000000E+00  0.00000000000E+00  0.45593999997E+02  0.45594000000E+02  0.51100000000E-03 0. -1.
         11   -1    0    0    0    0 -0.00000000000E+00 -0.00000000000E+00 -0.45593999997E+02  0.45594000000E+02  0.51100000000E-03 0.  1.
    9900012    2    1    2    0    0  0.49254843640E+00  0.28046785770E-01  0.18719917190E+02  0.72461583093E+02  0.70000016673E+02 0.  0.
        -12    1    1    2    0    0 -0.49254843640E+00 -0.28046785770E-01 -0.18719917190E+02  0.18726416907E+02  0.00000000000E+00 0.  1.
         11    1    3    3    0    0  0.25943471928E+01 -0.66664740156E+01 -0.21185131358E+01  0.74606039518E+01  0.51100000000E-03 0. -1.
        -11    1    3    3    0    0 -0.19343905344E+02 -0.16567336717E+02 -0.52754065152E+01  0.26009483539E+02  0.51100000000E-03 0.  1.
         12    1    3    3    0    0  0.17242106587E+02  0.23261857518E+02  0.26113836841E+02  0.38991495602E+02  0.00000000000E+00 0. -1.
</event>
<event>
 7    1  0.3758561E-013  0.7246167E+02  0.7816164E-02  0.1226708E+00
        -11   -1    0    0    0    0  0.00000000000E+00  0.00000000000E+00  0.45593999997E+02  0.45594000000E+02  0.51100000000E-03 0.  1.
         11   -1    0    0    0    0 -0.00000000000E+00 -0.00000000000E+00 -0.45593999997E+02  0.45594000000E+02  0.51100000000E-03 0. -1.
    9900012    2    1    2    0    0  0.43383137672E+00  0.86856807467E+01 -0.16584520372E+02  0.72461666252E+02  0.70000125002E+02 0.  0.
        -12    1    1    2    0    0 -0.43383137672E+00 -0.86856807467E+01  0.16584520372E+02  0.18726333748E+02  0.00000000000E+00 0.  1.
         11    1    3    3    0    0 -0.10628519174E+02 -0.32346561496E+01  0.25891552773E+01  0.11407547745E+02  0.51100000000E-03 0. -1.
        -11    1    3    3    0    0 -0.97956036699E+01  0.11582059323E+02  0.14796274046E+02  0.21190273130E+02  0.51100000000E-03 0.  1.
         12    1    3    3    0    0  0.20857954220E+02  0.33827757297E+00 -0.33969949695E+02  0.39863845377E+02  0.00000000000E+00 0. -1.
</event>
<event>
 7    1  0.3758561E-013  0.7246162E+02  0.7816164E-02  0.1226708E+00
        -11   -1    0    0    0    0  0.00000000000E+00  0.00000000000E+00  0.45593999997E+02  0.45594000000E+02  0.51100000000E-03 0. -1.
         11   -1    0    0    0    0 -0.00000000000E+00 -0.00000000000E+00 -0.45593999997E+02  0.45594000000E+02  0.51100000000E-03 0.  1.
    9900012    2    1    2    0    0  0.50090705148E+01 -0.16995081321E+02  0.60624860277E+01  0.72461619854E+02  0.70000064561E+02 0.  0.
        -12    1    1    2    0    0 -0.50090705148E+01  0.16995081321E+02 -0.60624860277E+01  0.18726380146E+02  0.00000000000E+00 0.  1.
         11    1    3    3    0    0  0.20079645701E+02 -0.11863431386E+02  0.54402331596E+01  0.23948472035E+02  0.51100000000E-03 0. -1.
        -11    1    3    3    0    0  0.15641737272E+02 -0.25100907597E+01  0.65180442135E+01  0.17130364886E+02  0.51100000000E-03 0.  1.
        -12    1    3    3    0    0 -0.30712312458E+02 -0.26215591745E+01 -0.58957913453E+01  0.31382782933E+02  0.00000000000E+00 0.  1.
</event>
<event>
 7    1  0.3758561E-013  0.7246154E+02  0.7816164E-02  0.1226708E+00
        -11   -1    0    0    0    0  0.00000000000E+00  0.00000000000E+00  0.45593999997E+02  0.45594000000E+02  0.51100000000E-03 0. -1.
         11   -1    0    0    0    0 -0.00000000000E+00 -0.00000000000E+00 -0.45593999997E+02  0.45594000000E+02  0.51100000000E-03 0.  1.
    9900012    2    1    2    0    0 -0.18524539419E+02 -0.24494551147E+01 -0.12336060223E+01  0.72461543452E+02  0.69999965033E+02 0.  0.
        -12    1    1    2    0    0  0.18524539419E+02  0.24494551147E+01  0.12336060223E+01  0.18726456548E+02  0.00000000000E+00 0.  1.
         11    1    3    3    0    0  0.25281143144E+01 -0.12624049568E+02  0.82189063762E+01  0.15274436545E+02  0.51100000000E-03 0. -1.
        -11    1    3    3    0    0 -0.27979308657E+02 -0.11588612286E+02 -0.14834854019E+02  0.33722552419E+02  0.51100000000E-03 0.  1.
         12    1    3    3    0    0  0.69266549238E+01  0.21763206739E+02  0.53823416201E+01  0.23464554488E+02  0.00000000000E+00 0. -1.
</event>
<event>
 7    1  0.3758561E-013  0.7246159E+02  0.7816164E-02  0.1226708E+00
        -11   -1    0    0    0    0  0.00000000000E+00  0.00000000000E+00  0.45593999997E+02  0.45594000000E+02  0.51100000000E-03 0.  1.
         11   -1    0    0    0    0 -0.00000000000E+00 -0.00000000000E+00 -0.45593999997E+02  0.45594000000E+02  0.51100000000E-03 0. -1.
    9900012    2    1    2    0    0 -0.90998252887E-01 -0.11267048325E+02 -0.14957396954E+02  0.72461591314E+02  0.70000027382E+02 0.  0.
        -12    1    1    2    0    0  0.90998252887E-01  0.11267048325E+02  0.14957396954E+02  0.18726408686E+02  0.00000000000E+00 0.  1.
         11    1    3    3    0    0 -0.13638308686E+02  0.10424738886E+02 -0.29999756220E+02  0.34563912079E+02  0.51100000000E-03 0. -1.
        -11    1    3    3    0    0 -0.32833488006E+01 -0.16891006801E+02  0.62108376289E+01  0.18293741947E+02  0.51100000000E-03 0.  1.
        -12    1    3    3    0    0  0.16830659234E+02 -0.48007804089E+01  0.88315216370E+01  0.19603937288E+02  0.00000000000E+00 0.  1.
</event>
<event>
 7    1  0.3758561E-013  0.7246203E+02  0.7816164E-02  0.1226707E+00
        -11   -1    0    0    0    0  0.00000000000E+00  0.00000000000E+00  0.45593999997E+02  0.45594000000E+02  0.51100000000E-03 0. -1.
         11   -1    0    0    0    0 -0.00000000000E+00 -0.00000000000E+00 -0.45593999997E+02  0.45594000000E+02  0.51100000000E-03 0.  1.
    9900012    2    1    2    0    0  0.46637562343E+01  0.11529410641E+01  0.18099223325E+02  0.72462034597E+02  0.70000604837E+02 0.  0.
        -12    1    1    2    0    0 -0.46637562343E+01 -0.11529410641E+01 -0.18099223325E+02  0.18725965403E+02  0.00000000000E+00 0.  1.
         11    1    3    3    0    0  0.51725741172E+01  0.17204972723E+02  0.20918073826E+01  0.18087074606E+02  0.51100000000E-03 0. -1.
        -11    1    3    3    0    0  0.48096961952E+01 -0.30862370018E+01 -0.17310638402E+02  0.18229543014E+02  0.51100000000E-03 0.  1.
         12    1    3    3    0    0 -0.53185140781E+01 -0.12965794658E+02  0.33318054345E+02  0.36145416977E+02  0.00000000000E+00 0. -1.
</event>
<event>
 7    1  0.3758561E-013  0.7246156E+02  0.7816164E-02  0.1226708E+00
        -11   -1    0    0    0    0  0.00000000000E+00  0.00000000000E+00  0.45593999997E+02  0.45594000000E+02  0.51100000000E-03 0. -1.
         11   -1    0    0    0    0 -0.00000000000E+00 -0.00000000000E+00 -0.45593999997E+02  0.45594000000E+02  0.51100000000E-03 0.  1.
    9900012    2    1    2    0    0 -0.74619425768E+01  0.45965960160E+01  0.16549029699E+02  0.72461557040E+02  0.69999982734E+02 0.  0.
        -12    1    1    2    0    0  0.74619425768E+01 -0.45965960160E+01 -0.16549029699E+02  0.18726442960E+02  0.00000000000E+00 0.  1.
         11    1    3    3    0    0  0.11237778900E+02 -0.15557257323E+02  0.11521737481E+02  0.22384511718E+02  0.51100000000E-03 0. -1.
        -11    1    3    3    0    0 -0.15340176584E+02 -0.75000547251E+01  0.12585805279E+02  0.21212598457E+02  0.51100000000E-03 0.  1.
         12    1    3    3    0    0 -0.33595448929E+01  0.27653908064E+02 -0.75585130602E+01  0.28864446865E+02  0.00000000000E+00 0. -1.
</event>
<event>
 7    1  0.3758561E-013  0.7246155E+02  0.7816164E-02  0.1226708E+00
        -11   -1    0    0    0    0  0.00000000000E+00  0.00000000000E+00  0.45593999997E+02  0.45594000000E+02  0.51100000000E-03 0.  1.
         11   -1    0    0    0    0 -0.00000000000E+00 -0.00000000000E+00 -0.45593999997E+02  0.45594000000E+02  0.51100000000E-03 0. -1.
    9900012    2    1    2    0    0  0.16330852539E+02  0.66500040367E+01  0.63056035827E+01  0.72461549859E+02  0.69999973379E+02 0.  0.
        -12    1    1    2    0    0 -0.16330852539E+02 -0.66500040367E+01 -0.63056035827E+01  0.18726450141E+02  0.00000000000E+00 0.  1.
         11    1    3    3    0    0  0.14911958820E+02 -0.54621588563E+01 -0.25794840372E+02  0.30291508468E+02  0.51100000000E-03 0. -1.
        -11    1    3    3    0    0 -0.21833566642E+01  0.99612048757E+00 -0.37562179049E+01  0.44574068200E+01  0.51100000000E-03 0.  1.
        -12    1    3    3    0    0  0.36022503831E+01  0.11116042405E+02  0.35856661859E+02  0.37712634571E+02  0.00000000000E+00 0.  1.
</event>
<event>
 7    1  0.3758561E-013  0.7246156E+02  0.7816164E-02  0.1226708E+00
        -11   -1    0    0    0    0  0.00000000000E+00  0.00000000000E+00  0.45593999997E+02  0.45594000000E+02  0.51100000000E-03 0. -1.
         11   -1    0    0    0    0 -0.00000000000E+00 -0.00000000000E+00 -0.45593999997E+02  0.45594000000E+02  0.51100000000E-03 0.  1.
    9900012    2    1    2    0    0 -0.28769293432E+01  0.18368164699E+02 -0.22390375280E+01  0.72461561846E+02  0.69999988995E+02 0.  0.
        -12    1    1    2    0    0  0.28769293432E+01 -0.18368164699E+02  0.22390375280E+01  0.18726438154E+02  0.00000000000E+00 0.  1.
         11    1    3    3    0    0  0.66321873116E+01 -0.19745056937E+02  0.97430050091E+00  0.20851917027E+02  0.51100000000E-03 0. -1.
        -11    1    3    3    0    0  0.63676349199E+01  0.32786885977E+01 -0.10430968376E+02  0.12653129056E+02  0.51100000000E-03 0.  1.
        -12    1    3    3    0    0 -0.15876751575E+02  0.34834533038E+02  0.72176303471E+01  0.38956515763E+02  0.00000000000E+00 0.  1.
</event>
<event>
 7    1  0.3758561E-013  0.7246155E+02  0.7816164E-02  0.1226708E+00
        -11   -1    0    0    0    0  0.00000000000E+00  0.00000000000E+00  0.45593999997E+02  0.45594000000E+02  0.51100000000E-03 0.  1.
         11   -1    0    0    0    0 -0.00000000000E+00 -0.00000000000E+00 -0.45593999997E+02  0.45594000000E+02  0.51100000000E-03 0. -1.
    9900012    2    1    2    0    0  0.26573387935E+01 -0.16898031552E+02 -0.76206997174E+01  0.72461548548E+02  0.69999971672E+02 0.  0.
        -12    1    1    2    0    0 -0.26573387935E+01  0.16898031552E+02  0.76206997174E+01  0.18726451452E+02  0.00000000000E+00 0.  1.
         11    1    3    3    0    0  0.16865627722E-01  0.71998097955E+01  0.10288121522E+02  0.12557188788E+02  0.51100000000E-03 0. -1.
        -11    1    3    3    0    0 -0.14775856003E+02  0.74515305865E+01 -0.17188329987E+02  0.23859797080E+02  0.51100000000E-03 0.  1.
         12    1    3    3    0    0  0.17416329169E+02 -0.31549371934E+02 -0.72049125292E+00  0.36044562680E+02  0.00000000000E+00 0. -1.
</event>
<event>
 7    1  0.3758561E-013  0.7246155E+02  0.7816164E-02  0.1226708E+00
        -11   -1    0    0    0    0  0.00000000000E+00  0.00000000000E+00  0.45593999997E+02  0.45594000000E+02  0.51100000000E-03 0.  1.
         11   -1    0    0    0    0 -0.00000000000E+00 -0.00000000000E+00 -0.45593999997E+02  0.45594000000E+02  0.51100000000E-03 0. -1.
    9900012    2    1    2    0    0 -0.14847899425E+01  0.12883781757E+02 -0.13508652149E+02  0.72461545012E+02  0.69999967065E+02 0.  0.
        -12    1    1    2    0    0  0.14847899425E+01 -0.12883781757E+02  0.13508652149E+02  0.18726454988E+02  0.00000000000E+00 0.  1.
         11    1    3    3    0    0 -0.36279655075E+01 -0.83292603940E+01  0.13874094252E+01  0.91904090011E+01  0.51100000000E-03 0. -1.
        -11    1    3    3    0    0 -0.86063460195E+01  0.30903256214E+02  0.10742228619E+02  0.33830103642E+02  0.51100000000E-03 0.  1.
         12    1    3    3    0    0  0.10749521584E+02 -0.96902140629E+01 -0.25638290194E+02  0.29441032369E+02  0.00000000000E+00 0. -1.
</event>
<event>
 7    1  0.3758561E-013  0.7246155E+02  0.7816164E-02  0.1226708E+00
        -11   -1    0    0    0    0  0.00000000000E+00  0.00000000000E+00  0.45593999997E+02  0.45594000000E+02  0.51100000000E-03 0.  1.
         11   -1    0    0    0    0 -0.00000000000E+00 -0.00000000000E+00 -0.45593999997E+02  0.45594000000E+02  0.51100000000E-03 0. -1.
    9900012    2    1    2    0    0 -0.54112164646E+01 -0.13782238591E+02 -0.11465108225E+02  0.72461546230E+02  0.69999968652E+02 0.  0.
        -12    1    1    2    0    0  0.54112164646E+01  0.13782238591E+02  0.11465108225E+02  0.18726453770E+02  0.00000000000E+00 0.  1.
         11    1    3    3    0    0 -0.67118484669E+01 -0.13272654961E+02 -0.24430415224E+02  0.28601703933E+02  0.51100000000E-03 0. -1.
        -11    1    3    3    0    0 -0.12744404052E+02 -0.15618059191E+02  0.13902348208E+01  0.20205849664E+02  0.51100000000E-03 0.  1.
        -12    1    3    3    0    0  0.14045036054E+02  0.15108475561E+02  0.11575072179E+02  0.23653992633E+02  0.00000000000E+00 0.  1.
</event>
<event>
 7    1  0.3758561E-013  0.7246156E+02  0.7816164E-02  0.1226708E+00
        -11   -1    0    0    0    0  0.00000000000E+00  0.00000000000E+00  0.45593999997E+02  0.45594000000E+02  0.51100000000E-03 0. -1.
         11   -1    0    0    0    0 -0.00000000000E+00 -0.00000000000E+00 -0.45593999997E+02  0.45594000000E+02  0.51100000000E-03 0.  1.
    9900012    2    1    2    0    0  0.19857794951E+01 -0.15497687789E+02  0.10322683326E+02  0.72461563124E+02  0.69999990660E+02 0.  0.
        -12    1    1    2    0    0 -0.19857794951E+01  0.15497687789E+02 -0.10322683326E+02  0.18726436876E+02  0.00000000000E+00 0.  1.
         11    1    3    3    0    0 -0.25428851043E+02 -0.14366910079E+02  0.15316452997E+02  0.32979210167E+02  0.51100000000E-03 0. -1.
        -11    1    3    3    0    0  0.12444224733E+02 -0.97937615959E+01  0.81015248108E+01  0.17787950976E+02  0.51100000000E-03 0.  1.
        -12    1    3    3    0    0  0.14970405805E+02  0.86629838857E+01 -0.13095294482E+02  0.21694401981E+02  0.00000000000E+00 0.  1.
</event>
<event>
 7    1  0.3758561E-013  0.7246156E+02  0.7816164E-02  0.1226708E+00
        -11   -1    0    0    0    0  0.00000000000E+00  0.00000000000E+00  0.45593999997E+02  0.45594000000E+02  0.51100000000E-03 0.  1.
         11   -1    0    0    0    0 -0.00000000000E+00 -0.00000000000E+00 -0.45593999997E+02  0.45594000000E+02  0.51100000000E-03 0. -1.
    9900012    2    1    2    0    0  0.56555154813E+01  0.16143632089E+01 -0.17778882339E+02  0.72461556634E+02  0.69999982204E+02 0.  0.
        -12    1    1    2    0    0 -0.56555154813E+01 -0.16143632089E+01  0.17778882339E+02  0.18726443366E+02  0.00000000000E+00 0.  1.
         11    1    3    3    0    0 -0.55164609257E+01  0.15769163381E+02 -0.33444658973E+02  0.37385064785E+02  0.51100000000E-03 0. -1.
        -11    1    3    3    0    0  0.10889485028E+02 -0.51925943488E+01 -0.46033590298E+01  0.12912584360E+02  0.51100000000E-03 0.  1.
        -12    1    3    3    0    0  0.28249137946E+00 -0.89622058229E+01  0.20269135664E+02  0.22163907489E+02  0.00000000000E+00 0.  1.
</event>
<event>
 7    1  0.3758561E-013  0.7246157E+02  0.7816164E-02  0.1226708E+00
        -11   -1    0    0    0    0  0.00000000000E+00  0.00000000000E+00  0.45593999997E+02  0.45594000000E+02  0.51100000000E-03 0.  1.
         11   -1    0    0    0    0 -0.00000000000E+00 -0.00000000000E+00 -0.45593999997E+02  0.45594000000E+02  0.51100000000E-03 0. -1.
    9900012    2    1    2    0    0  0.11282215426E+02 -0.14490755860E+02 -0.36618062707E+01  0.72461569067E+02  0.69999998401E+02 0.  0.
        -12    1    1    2    0    0 -0.11282215426E+02  0.14490755860E+02  0.36618062707E+01  0.18726430933E+02  0.00000000000E+00 0.  1.
         11    1    3    3    0    0 -0.19861798990E+01 -0.23087768416E+01 -0.25125418736E+02  0.25309326897E+02  0.51100000000E-03 0. -1.
        -11    1    3    3    0    0  0.98162657482E+01  0.12214178925E+02  0.20901859269E+01  0.15808672225E+02  0.51100000000E-03 0.  1.
        -12    1    3    3    0    0  0.34521295770E+01 -0.24396157944E+02  0.19373426538E+02  0.31343569944E+02  0.00000000000E+00 0.  1.
</event>
<event>
 7    1  0.3758561E-013  0.7246156E+02  0.7816164E-02  0.1226708E+00
        -11   -1    0    0    0    0  0.00000000000E+00  0.00000000000E+00  0.45593999997E+02  0.45594000000E+02  0.51100000000E-03 0.  1.
         11   -1    0    0    0    0 -0.00000000000E+00 -0.00000000000E+00 -0.45593999997E+02  0.45594000000E+02  0.51100000000E-03 0. -1.
    9900012    2    1    2    0    0  0.43931795011E+01 -0.12733772151E+02 -0.13008868887E+02  0.72461557490E+02  0.69999983321E+02 0.  0.
        -12    1    1    2    0    0 -0.43931795011E+01  0.12733772151E+02  0.13008868887E+02  0.18726442510E+02  0.00000000000E+00 0.  1.
         11    1    3    3    0    0  0.19958798128E+01 -0.13254737775E+01 -0.27598395760E+00  0.24117596000E+01  0.51100000000E-03 0. -1.
        -11    1    3    3    0    0  0.13165570092E+02  0.23590426826E+02  0.77333475815E+01  0.28100625237E+02  0.51100000000E-03 0.  1.
         12    1    3    3    0    0 -0.10768270404E+02 -0.34998725199E+02 -0.20466232511E+02  0.41949172653E+02  0.00000000000E+00 0. -1.
</event>
<event>
 7    1  0.5180075E-013  0.7246156E+02  0.7816164E-02  0.1226708E+00
        -11   -1    0    0    0    0  0.00000000000E+00  0.00000000000E+00  0.45593999997E+02  0.45594000000E+02  0.51100000000E-03 0. -1.
         11   -1    0    0    0    0 -0.00000000000E+00 -0.00000000000E+00 -0.45593999997E+02  0.45594000000E+02  0.51100000000E-03 0.  1.
    9900012    2    1    2    0    0 -0.15587441923E+01  0.11113527297E+01  0.18628329395E+02  0.72461562955E+02  0.69999990439E+02 0.  0.
        -12    1    1    2    0    0  0.15587441923E+01 -0.11113527297E+01 -0.18628329395E+02  0.18726437045E+02  0.00000000000E+00 0.  1.
         11    1    3    3    0    0 -0.15760543272E+02  0.57983786134E+00  0.34542347463E+02  0.37972420317E+02  0.51100000000E-03 0. -1.
        -11    1    3    3    0    0  0.93442770162E+01  0.12183227735E+00  0.66081640360E+01  0.11445443995E+02  0.51100000000E-03 0.  1.
        -12    1    3    3    0    0  0.48575220633E+01  0.40968259103E+00 -0.22522182104E+02  0.23043698643E+02  0.00000000000E+00 0.  1.
</event>
<event>
 7    1  0.3758561E-013  0.7246157E+02  0.7816164E-02  0.1226708E+00
        -11   -1    0    0    0    0  0.00000000000E+00  0.00000000000E+00  0.45593999997E+02  0.45594000000E+02  0.51100000000E-03 0.  1.
         11   -1    0    0    0    0 -0.00000000000E+00 -0.00000000000E+00 -0.45593999997E+02  0.45594000000E+02  0.51100000000E-03 0. -1.
    9900012    2    1    2    0    0  0.72563408903E+01  0.94490880886E+01 -0.14447820658E+02  0.72461567596E+02  0.69999996485E+02 0.  0.
        -12    1    1    2    0    0 -0.72563408903E+01 -0.94490880886E+01  0.14447820658E+02  0.18726432404E+02  0.00000000000E+00 0.  1.
         11    1    3    3    0    0  0.70322750361E+01  0.11820828063E+02 -0.28276602879E+02  0.31444413477E+02  0.51100000000E-03 0. -1.
        -11    1    3    3    0    0 -0.15046754037E+02  0.10733981441E+02  0.70649525594E+01  0.19787286817E+02  0.51100000000E-03 0.  1.
        -12    1    3    3    0    0  0.15270819891E+02 -0.13105721416E+02  0.67638296620E+01  0.21229867302E+02  0.00000000000E+00 0.  1.
</event>
<event>
 7    1  0.3758561E-013  0.7246160E+02  0.7816164E-02  0.1226708E+00
        -11   -1    0    0    0    0  0.00000000000E+00  0.00000000000E+00  0.45593999997E+02  0.45594000000E+02  0.51100000000E-03 0.  1.
         11   -1    0    0    0    0 -0.00000000000E+00 -0.00000000000E+00 -0.45593999997E+02  0.45594000000E+02  0.51100000000E-03 0. -1.
    9900012    2    1    2    0    0 -0.16062252600E+02  0.40858586015E+01 -0.87171062266E+01  0.72461597781E+02  0.70000035807E+02 0.  0.
        -12    1    1    2    0    0  0.16062252600E+02 -0.40858586015E+01  0.87171062266E+01  0.18726402219E+02  0.00000000000E+00 0.  1.
         11    1    3    3    0    0 -0.69770422766E+01  0.14266547863E+02 -0.72285686750E+01  0.17448945877E+02  0.51100000000E-03 0. -1.
        -11    1    3    3    0    0  0.21211460874E+02 -0.98137088351E+01  0.52943091701E+01  0.23963819882E+02  0.51100000000E-03 0.  1.
         12    1    3    3    0    0 -0.30296671197E+02 -0.36698042646E+00 -0.67828467217E+01  0.31048832022E+02  0.00000000000E+00 0. -1.
</event>
<event>
 7    1  0.3758561E-013  0.7246101E+02  0.7816164E-02  0.1226710E+00
        -11   -1    0    0    0    0  0.00000000000E+00  0.00000000000E+00  0.45593999997E+02  0.45594000000E+02  0.51100000000E-03 0.  1.
         11   -1    0    0    0    0 -0.00000000000E+00 -0.00000000000E+00 -0.45593999997E+02  0.45594000000E+02  0.51100000000E-03 0. -1.
    9900012    2    1    2    0    0 -0.83935547428E+01  0.62787926702E+01 -0.15518547149E+02  0.72461006001E+02  0.69999264899E+02 0.  0.
        -12    1    1    2    0    0  0.83935547428E+01 -0.62787926702E+01  0.15518547149E+02  0.18726993999E+02  0.00000000000E+00 0.  1.
         11    1    3    3    0    0 -0.13158689819E+02 -0.12711016287E+02 -0.14894713463E+02  0.23591810914E+02  0.51100000000E-03 0. -1.
        -11    1    3    3    0    0 -0.18937258403E+02  0.80098537607E+00 -0.11304718953E+01  0.18987872455E+02  0.51100000000E-03 0.  1.
        -12    1    3    3    0    0  0.23702393479E+02  0.18188823582E+02  0.50663820907E+00  0.29881322632E+02  0.00000000000E+00 0.  1.
</event>
<event>
 7    1  0.3758561E-013  0.7246154E+02  0.7816164E-02  0.1226708E+00
        -11   -1    0    0    0    0  0.00000000000E+00  0.00000000000E+00  0.45593999997E+02  0.45594000000E+02  0.51100000000E-03 0. -1.
         11   -1    0    0    0    0 -0.00000000000E+00 -0.00000000000E+00 -0.45593999997E+02  0.45594000000E+02  0.51100000000E-03 0.  1.
    9900012    2    1    2    0    0  0.18058016218E+02  0.29797961956E+01  0.39634657835E+01  0.72461542884E+02  0.69999964293E+02 0.  0.
        -12    1    1    2    0    0 -0.18058016218E+02 -0.29797961956E+01 -0.39634657835E+01  0.18726457116E+02  0.00000000000E+00 0.  1.
         11    1    3    3    0    0 -0.26284979695E+01  0.66308603787E+01  0.21746568360E+02  0.22886470821E+02  0.51100000000E-03 0. -1.
        -11    1    3    3    0    0 -0.10042717934E+01 -0.19357684052E+02 -0.91729196138E+01  0.21444601843E+02  0.51100000000E-03 0.  1.
         12    1    3    3    0    0  0.21690785981E+02  0.15706619869E+02 -0.86101829627E+01  0.28130470221E+02  0.00000000000E+00 0. -1.
</event>
<event>
 7    1  0.3758561E-013  0.7246156E+02  0.7816164E-02  0.1226708E+00
        -11   -1    0    0    0    0  0.00000000000E+00  0.00000000000E+00  0.45593999997E+02  0.45594000000E+02  0.51100000000E-03 0. -1.
         11   -1    0    0    0    0 -0.00000000000E+00 -0.00000000000E+00 -0.45593999997E+02  0.45594000000E+02  0.51100000000E-03 0.  1.
    9900012    2    1    2    0    0  0.65146129837E+01 -0.12856147953E+02 -0.11956537874E+02  0.72461560924E+02  0.69999987794E+02 0.  0.
        -12    1    1    2    0    0 -0.65146129837E+01  0.12856147953E+02  0.11956537874E+02  0.18726439076E+02  0.00000000000E+00 0.  1.
         11    1    3    3    0    0  0.15026315781E+01  0.27834413304E+01 -0.41393145147E+01  0.52095462578E+01  0.51100000000E-03 0. -1.
        -11    1    3    3    0    0 -0.15543632751E+02  0.85492362800E+01 -0.25386926996E+02  0.30970793058E+02  0.51100000000E-03 0.  1.
         12    1    3    3    0    0  0.20555614157E+02 -0.24188825563E+02  0.17569703637E+02  0.36281221608E+02  0.00000000000E+00 0. -1.
</event>
<event>
 7    1  0.3758561E-013  0.7246156E+02  0.7816164E-02  0.1226708E+00
        -11   -1    0    0    0    0  0.00000000000E+00  0.00000000000E+00  0.45593999997E+02  0.45594000000E+02  0.51100000000E-03 0.  1.
         11   -1    0    0    0    0 -0.00000000000E+00 -0.00000000000E+00 -0.45593999997E+02  0.45594000000E+02  0.51100000000E-03 0. -1.
    9900012    2    1    2    0    0 -0.16939661820E+02  0.43181003776E+01 -0.67142594545E+01  0.72461563781E+02  0.69999991515E+02 0.  0.
        -12    1    1    2    0    0  0.16939661820E+02 -0.43181003776E+01  0.67142594545E+01  0.18726436219E+02  0.00000000000E+00 0.  1.
         11    1    3    3    0    0 -0.65526981036E+01 -0.19866007921E+02 -0.17740585699E+01  0.20993889759E+02  0.51100000000E-03 0. -1.
        -11    1    3    3    0    0 -0.58808278265E+01  0.31453049649E+02  0.10617990918E+02  0.33713798355E+02  0.51100000000E-03 0.  1.
         12    1    3    3    0    0 -0.45061358897E+01 -0.72689413503E+01 -0.15558191803E+02  0.17753875666E+02  0.00000000000E+00 0. -1.
</event>
<event>
 7    1  0.3758561E-013  0.7246169E+02  0.7816164E-02  0.1226708E+00
        -11   -1    0    0    0    0  0.00000000000E+00  0.00000000000E+00  0.45593999997E+02  0.45594000000E+02  0.51100000000E-03 0.  1.
         11   -1    0    0    0    0 -0.00000000000E+00 -0.00000000000E+00 -0.45593999997E+02  0.45594000000E+02  0.51100000000E-03 0. -1.
    9900012    2    1    2    0    0 -0.11186084498E+02  0.14658291853E+02  0.32681301163E+01  0.72461690142E+02  0.70000156124E+02 0.  0.
        -12    1    1    2    0    0  0.11186084498E+02 -0.14658291853E+02 -0.32681301163E+01  0.18726309858E+02  0.00000000000E+00 0.  1.
         11    1    3    3    0    0 -0.61776259706E+01 -0.16063325551E+02 -0.15475201391E+02  0.23144661344E+02  0.51100000000E-03 0. -1.
        -11    1    3    3    0    0  0.11695006867E+02  0.12876333145E+02 -0.16652136028E+01  0.17474154557E+02  0.51100000000E-03 0.  1.
        -12    1    3    3    0    0 -0.16703465394E+02  0.17845284258E+02  0.20408545110E+02  0.31842874241E+02  0.00000000000E+00 0.  1.
</event>
<event>
 7    1  0.3758561E-013  0.7246159E+02  0.7816164E-02  0.1226708E+00
        -11   -1    0    0    0    0  0.00000000000E+00  0.00000000000E+00  0.45593999997E+02  0.45594000000E+02  0.51100000000E-03 0.  1.
         11   -1    0    0    0    0 -0.00000000000E+00 -0.00000000000E+00 -0.45593999997E+02  0.45594000000E+02  0.51100000000E-03 0. -1.
    9900012    2    1    2    0    0 -0.10147154670E+02 -0.60604928268E+01 -0.14525289941E+02  0.72461591667E+02  0.70000027842E+02 0.  0.
        -12    1    1    2    0    0  0.10147154670E+02  0.60604928268E+01  0.14525289941E+02  0.18726408333E+02  0.00000000000E+00 0.  1.
         11    1    3    3    0    0 -0.83200807070E+00  0.38795544652E+01 -0.42298051151E+00  0.39902497481E+01  0.51100000000E-03 0. -1.
        -11    1    3    3    0    0 -0.15467577382E+02 -0.29684048541E+02  0.11651372922E+02  0.35442110252E+02  0.51100000000E-03 0.  1.
         12    1    3    3    0    0  0.61524307832E+01  0.19744001249E+02 -0.25753682351E+02  0.33029231667E+02  0.00000000000E+00 0. -1.
</event>
<event>
 7    1  0.3758561E-013  0.7246149E+02  0.7816164E-02  0.1226708E+00
        -11   -1    0    0    0    0  0.00000000000E+00  0.00000000000E+00  0.45593999997E+02  0.45594000000E+02  0.51100000000E-03 0. -1.
         11   -1    0    0    0    0 -0.00000000000E+00 -0.00000000000E+00 -0.45593999997E+02  0.45594000000E+02  0.51100000000E-03 0.  1.
    9900012    2    1    2    0    0 -0.41425454776E+01 -0.18032540199E+02  0.28894883030E+01  0.72461485864E+02  0.69999890013E+02 0.  0.
        -12    1    1    2    0    0  0.41425454776E+01  0.18032540199E+02 -0.28894883030E+01  0.18726514136E+02  0.00000000000E+00 0.  1.
         11    1    3    3    0    0  0.25614613495E+01  0.36725712342E+01  0.33302767559E+01  0.55802873803E+01  0.51100000000E-03 0. -1.
        -11    1    3    3    0    0  0.16887970011E+01 -0.73985997067E+01 -0.31105595376E+02  0.32017953977E+02  0.51100000000E-03 0.  1.
         12    1    3    3    0    0 -0.83928038282E+01 -0.14306511726E+02  0.30664806923E+02  0.34863244506E+02  0.00000000000E+00 0. -1.
</event>
<event>
 7    1  0.3758561E-013  0.7246155E+02  0.7816164E-02  0.1226708E+00
        -11   -1    0    0    0    0  0.00000000000E+00  0.00000000000E+00  0.45593999997E+02  0.45594000000E+02  0.51100000000E-03 0. -1.
         11   -1    0    0    0    0 -0.00000000000E+00 -0.00000000000E+00 -0.45593999997E+02  0.45594000000E+02  0.51100000000E-03 0.  1.
    9900012    2    1    2    0    0  0.16255672808E+02 -0.86914663812E+01  0.33002205660E+01  0.72461549667E+02  0.69999973129E+02 0.  0.
        -12    1    1    2    0    0 -0.16255672808E+02  0.86914663812E+01 -0.33002205660E+01  0.18726450333E+02  0.00000000000E+00 0.  1.
         11    1    3    3    0    0 -0.27383262093E+01  0.95249238720E+00 -0.16035587224E+01  0.33131666142E+01  0.51100000000E-03 0. -1.
        -11    1    3    3    0    0 -0.54629357515E+01  0.11147478898E+01 -0.26979671422E+02  0.27549754993E+02  0.51100000000E-03 0.  1.
         12    1    3    3    0    0  0.24456934769E+02 -0.10758706658E+02  0.31883450710E+02  0.41598628060E+02  0.00000000000E+00 0. -1.
</event>
<event>
 7    1  0.3758561E-013  0.7246148E+02  0.7816164E-02  0.1226708E+00
        -11   -1    0    0    0    0  0.00000000000E+00  0.00000000000E+00  0.45593999997E+02  0.45594000000E+02  0.51100000000E-03 0. -1.
         11   -1    0    0    0    0 -0.00000000000E+00 -0.00000000000E+00 -0.45593999997E+02  0.45594000000E+02  0.51100000000E-03 0.  1.
    9900012    2    1    2    0    0 -0.22700640225E+01 -0.54224483762E+01  0.17779939615E+02  0.72461484313E+02  0.69999887993E+02 0.  0.
        -12    1    1    2    0    0  0.22700640225E+01  0.54224483762E+01 -0.17779939615E+02  0.18726515687E+02  0.00000000000E+00 0.  1.
         11    1    3    3    0    0  0.23304448627E+02 -0.16799780233E+02  0.12943291004E+02  0.31509660804E+02  0.51100000000E-03 0. -1.
        -11    1    3    3    0    0 -0.11182131060E+02 -0.14948546226E+01  0.15284812225E+02  0.18997371671E+02  0.51100000000E-03 0.  1.
        -12    1    3    3    0    0 -0.14392381590E+02  0.12872186480E+02 -0.10448163613E+02  0.21954451838E+02  0.00000000000E+00 0.  1.
</event>
<event>
 7    1  0.3758561E-013  0.7246153E+02  0.7816164E-02  0.1226708E+00
        -11   -1    0    0    0    0  0.00000000000E+00  0.00000000000E+00  0.45593999997E+02  0.45594000000E+02  0.51100000000E-03 0.  1.
         11   -1    0    0    0    0 -0.00000000000E+00 -0.00000000000E+00 -0.45593999997E+02  0.45594000000E+02  0.51100000000E-03 0. -1.
    9900012    2    1    2    0    0 -0.18792708286E+01  0.16963127634E+01 -0.18554560196E+02  0.72461525695E+02  0.69999941901E+02 0.  0.
        -12    1    1    2    0    0  0.18792708286E+01 -0.16963127634E+01  0.18554560196E+02  0.18726474305E+02  0.00000000000E+00 0.  1.
         11    1    3    3    0    0  0.12117843613E+02  0.57146693465E+01  0.58961012022E+01  0.14637745359E+02  0.51100000000E-03 0. -1.
        -11    1    3    3    0    0  0.10992970359E+02  0.13469999718E+02  0.19344012053E+01  0.17493661652E+02  0.51100000000E-03 0.  1.
        -12    1    3    3    0    0 -0.24990084800E+02 -0.17488356301E+02 -0.26385062604E+02  0.40330118683E+02  0.00000000000E+00 0.  1.
</event>
<event>
 7    1  0.3758561E-013  0.7246094E+02  0.7816164E-02  0.1226710E+00
        -11   -1    0    0    0    0  0.00000000000E+00  0.00000000000E+00  0.45593999997E+02  0.45594000000E+02  0.51100000000E-03 0. -1.
         11   -1    0    0    0    0 -0.00000000000E+00 -0.00000000000E+00 -0.45593999997E+02  0.45594000000E+02  0.51100000000E-03 0.  1.
    9900012    2    1    2    0    0  0.15073456464E+02  0.51660233479E+01  0.98390070143E+01  0.72460935467E+02  0.69999173014E+02 0.  0.
        -12    1    1    2    0    0 -0.15073456464E+02 -0.51660233479E+01 -0.98390070143E+01  0.18727064533E+02  0.00000000000E+00 0.  1.
         11    1    3    3    0    0  0.20230889485E+01 -0.29709799948E+01  0.31234003149E+02  0.31440142557E+02  0.51100000000E-03 0. -1.
        -11    1    3    3    0    0  0.19794102397E+02  0.46371558357E+01 -0.22877233979E+01  0.20458332839E+02  0.51100000000E-03 0.  1.
        -12    1    3    3    0    0 -0.67437348815E+01  0.34998475071E+01 -0.19107272737E+02  0.20562460071E+02  0.00000000000E+00 0.  1.
</event>
<event>
 7    1  0.3758561E-013  0.7246158E+02  0.7816164E-02  0.1226708E+00
        -11   -1    0    0    0    0  0.00000000000E+00  0.00000000000E+00  0.45593999997E+02  0.45594000000E+02  0.51100000000E-03 0.  1.
         11   -1    0    0    0    0 -0.00000000000E+00 -0.00000000000E+00 -0.45593999997E+02  0.45594000000E+02  0.51100000000E-03 0. -1.
    9900012    2    1    2    0    0  0.10453125393E+02 -0.77039898257E+01 -0.13492937216E+02  0.72461584315E+02  0.70000018264E+02 0.  0.
        -12    1    1    2    0    0 -0.10453125393E+02  0.77039898257E+01  0.13492937216E+02  0.18726415685E+02  0.00000000000E+00 0.  1.
         11    1    3    3    0    0  0.54991205723E+01  0.94757978182E+01  0.62063185795E+01  0.12591642543E+02  0.51100000000E-03 0. -1.
        -11    1    3    3    0    0  0.12411703035E+02  0.17049788968E+02 -0.10945510698E+02  0.23760258432E+02  0.51100000000E-03 0.  1.
         12    1    3    3    0    0 -0.74576982139E+01 -0.34229576611E+02 -0.87537450974E+01  0.36109683339E+02  0.00000000000E+00 0. -1.
</event>
<event>
 7    1  0.3758561E-013  0.7246157E+02  0.7816164E-02  0.1226708E+00
        -11   -1    0    0    0    0  0.00000000000E+00  0.00000000000E+00  0.45593999997E+02  0.45594000000E+02  0.51100000000E-03 0.  1.
         11   -1    0    0    0    0 -0.00000000000E+00 -0.00000000000E+00 -0.45593999997E+02  0.45594000000E+02  0.51100000000E-03 0. -1.
    9900012    2    1    2    0    0  0.65408124904E+01  0.16056057773E+02 -0.70781415468E+01  0.72461566623E+02  0.69999995218E+02 0.  0.
        -12    1    1    2    0    0 -0.65408124904E+01 -0.16056057773E+02  0.70781415468E+01  0.18726433377E+02  0.00000000000E+00 0.  1.
         11    1    3    3    0    0 -0.30458104583E+01 -0.72175985403E+01  0.74173853402E+01  0.10788340724E+02  0.51100000000E-03 0. -1.
        -11    1    3    3    0    0  0.12639390814E+02 -0.11608962260E+02 -0.19861146681E+02  0.26248568583E+02  0.51100000000E-03 0.  1.
         12    1    3    3    0    0 -0.30527678651E+01  0.34882618574E+02  0.53656197942E+01  0.35424657316E+02  0.00000000000E+00 0. -1.
</event>
<event>
 7    1  0.3758561E-013  0.7246158E+02  0.7816164E-02  0.1226708E+00
        -11   -1    0    0    0    0  0.00000000000E+00  0.00000000000E+00  0.45593999997E+02  0.45594000000E+02  0.51100000000E-03 0.  1.
         11   -1    0    0    0    0 -0.00000000000E+00 -0.00000000000E+00 -0.45593999997E+02  0.45594000000E+02  0.51100000000E-03 0. -1.
    9900012    2    1    2    0    0  0.36786177130E+01 -0.53029214397E+01 -0.17579128571E+02  0.72461575745E+02  0.70000007100E+02 0.  0.
        -12    1    1    2    0    0 -0.36786177130E+01  0.53029214397E+01  0.17579128571E+02  0.18726424255E+02  0.00000000000E+00 0.  1.
         11    1    3    3    0    0  0.52166440485E+01 -0.12282967526E+02 -0.31223840926E+02  0.33956043775E+02  0.51100000000E-03 0. -1.
        -11    1    3    3    0    0 -0.68848722457E+01 -0.10023293389E+02 -0.45982694515E+01  0.13000459931E+02  0.51100000000E-03 0.  1.
        -12    1    3    3    0    0  0.53468459103E+01  0.17003339476E+02  0.18242981807E+02  0.25505072039E+02  0.00000000000E+00 0.  1.
</event>
<event>
 7    1  0.3758561E-013  0.7246158E+02  0.7816164E-02  0.1226708E+00
        -11   -1    0    0    0    0  0.00000000000E+00  0.00000000000E+00  0.45593999997E+02  0.45594000000E+02  0.51100000000E-03 0.  1.
         11   -1    0    0    0    0 -0.00000000000E+00 -0.00000000000E+00 -0.45593999997E+02  0.45594000000E+02  0.51100000000E-03 0. -1.
    9900012    2    1    2    0    0  0.31119063391E+01  0.14543315944E+02 -0.11379226260E+02  0.72461580428E+02  0.70000013201E+02 0.  0.
        -12    1    1    2    0    0 -0.31119063391E+01 -0.14543315944E+02  0.11379226260E+02  0.18726419572E+02  0.00000000000E+00 0.  1.
         11    1    3    3    0    0 -0.14176403845E+02 -0.76936444719E+01 -0.10200429997E+02  0.19084322456E+02  0.51100000000E-03 0. -1.
        -11    1    3    3    0    0  0.31193230986E+01 -0.10232286588E+02 -0.12248308454E+02  0.16261947166E+02  0.51100000000E-03 0.  1.
        -12    1    3    3    0    0  0.14168987085E+02  0.32469247004E+02  0.11069512190E+02  0.37115310805E+02  0.00000000000E+00 0.  1.
</event>
<event>
 7    1  0.3758561E-013  0.7246157E+02  0.7816164E-02  0.1226708E+00
        -11   -1    0    0    0    0  0.00000000000E+00  0.00000000000E+00  0.45593999997E+02  0.45594000000E+02  0.51100000000E-03 0.  1.
         11   -1    0    0    0    0 -0.00000000000E+00 -0.00000000000E+00 -0.45593999997E+02  0.45594000000E+02  0.51100000000E-03 0. -1.
    9900012    2    1    2    0    0  0.12765879431E+02 -0.12309919050E+02  0.60147717969E+01  0.72461567760E+02  0.69999996699E+02 0.  0.
        -12    1    1    2    0    0 -0.12765879431E+02  0.12309919050E+02 -0.60147717969E+01  0.18726432240E+02  0.00000000000E+00 0.  1.
         11    1    3    3    0    0 -0.17495761780E+01  0.75993690139E+01  0.82084605337E+01  0.11322113354E+02  0.51100000000E-03 0. -1.
        -11    1    3    3    0    0  0.34889082312E+02 -0.89374519770E+01 -0.87992676268E+01  0.37074967613E+02  0.51100000000E-03 0.  1.
         12    1    3    3    0    0 -0.20373626703E+02 -0.10971836087E+02  0.66055788900E+01  0.24064486793E+02  0.00000000000E+00 0. -1.
</event>
<event>
 7    1  0.3758561E-013  0.7246230E+02  0.7816164E-02  0.1226706E+00
        -11   -1    0    0    0    0  0.00000000000E+00  0.00000000000E+00  0.45593999997E+02  0.45594000000E+02  0.51100000000E-03 0. -1.
         11   -1    0    0    0    0 -0.00000000000E+00 -0.00000000000E+00 -0.45593999997E+02  0.45594000000E+02  0.51100000000E-03 0.  1.
    9900012    2    1    2    0    0 -0.56903922559E+01 -0.15539170404E+02  0.87638790715E+01  0.72462296882E+02  0.70000946509E+02 0.  0.
        -12    1    1    2    0    0  0.56903922559E+01  0.15539170404E+02 -0.87638790715E+01  0.18725703118E+02  0.00000000000E+00 0.  1.
         11    1    3    3    0    0  0.26839070791E+00 -0.30153872726E+02  0.21382551302E+02  0.36966763104E+02  0.51100000000E-03 0. -1.
        -11    1    3    3    0    0  0.73762173055E+01  0.67431204009E+01  0.57029990640E+01  0.11506626485E+02  0.51100000000E-03 0.  1.
        -12    1    3    3    0    0 -0.13335000269E+02  0.78715819206E+01 -0.18321671295E+02  0.23988907294E+02  0.00000000000E+00 0.  1.
</event>
<event>
 7    1  0.3758561E-013  0.7246163E+02  0.7816164E-02  0.1226708E+00
        -11   -1    0    0    0    0  0.00000000000E+00  0.00000000000E+00  0.45593999997E+02  0.45594000000E+02  0.51100000000E-03 0. -1.
         11   -1    0    0    0    0 -0.00000000000E+00 -0.00000000000E+00 -0.45593999997E+02  0.45594000000E+02  0.51100000000E-03 0.  1.
    9900012    2    1    2    0    0  0.93962382248E+01  0.12569472243E+02  0.10217439389E+02  0.72461628410E+02  0.70000075707E+02 0.  0.
        -12    1    1    2    0    0 -0.93962382248E+01 -0.12569472243E+02 -0.10217439389E+02  0.18726371590E+02  0.00000000000E+00 0.  1.
         11    1    3    3    0    0  0.63775171758E+00 -0.56869451178E+00  0.78053567021E+01  0.78519891880E+01  0.51100000000E-03 0. -1.
        -11    1    3    3    0    0 -0.10302594109E+02 -0.16198026145E+02 -0.16076913434E+02  0.25039701320E+02  0.51100000000E-03 0.  1.
         12    1    3    3    0    0  0.19061080616E+02  0.29336192900E+02  0.18488996120E+02  0.39569937903E+02  0.00000000000E+00 0. -1.
</event>
<event>
 7    1  0.3758561E-013  0.7246150E+02  0.7816164E-02  0.1226708E+00
        -11   -1    0    0    0    0  0.00000000000E+00  0.00000000000E+00  0.45593999997E+02  0.45594000000E+02  0.51100000000E-03 0. -1.
         11   -1    0    0    0    0 -0.00000000000E+00 -0.00000000000E+00 -0.45593999997E+02  0.45594000000E+02  0.51100000000E-03 0.  1.
    9900012    2    1    2    0    0  0.10646391902E+02 -0.28956211177E+01  0.15131143742E+02  0.72461500244E+02  0.69999908746E+02 0.  0.
        -12    1    1    2    0    0 -0.10646391902E+02  0.28956211177E+01 -0.15131143742E+02  0.18726499756E+02  0.00000000000E+00 0.  1.
         11    1    3    3    0    0  0.29357227157E+01  0.10078227659E+01 -0.36951815933E+01  0.48258203302E+01  0.51100000000E-03 0. -1.
        -11    1    3    3    0    0 -0.97882043843E+01 -0.20935234554E+02 -0.13774092771E+02  0.26903877468E+02  0.51100000000E-03 0.  1.
         12    1    3    3    0    0  0.17498873570E+02  0.17031790670E+02  0.32600418107E+02  0.40731802445E+02  0.00000000000E+00 0. -1.
</event>
<event>
 7    1  0.3758561E-013  0.7246141E+02  0.7816164E-02  0.1226708E+00
        -11   -1    0    0    0    0  0.00000000000E+00  0.00000000000E+00  0.45593999997E+02  0.45594000000E+02  0.51100000000E-03 0.  1.
         11   -1    0    0    0    0 -0.00000000000E+00 -0.00000000000E+00 -0.45593999997E+02  0.45594000000E+02  0.51100000000E-03 0. -1.
    9900012    2    1    2    0    0 -0.50678961518E+01  0.70558098079E+01 -0.16589664673E+02  0.72461414689E+02  0.69999797295E+02 0.  0.
        -12    1    1    2    0    0  0.50678961518E+01 -0.70558098079E+01  0.16589664673E+02  0.18726585311E+02  0.00000000000E+00 0.  1.
         11    1    3    3    0    0  0.97441174659E+01 -0.10440273873E+02  0.44181674943E+01  0.14948824301E+02  0.51100000000E-03 0. -1.
        -11    1    3    3    0    0  0.11958753934E+02 -0.82642494367E+01 -0.13012879284E+02  0.19510116399E+02  0.51100000000E-03 0.  1.
         12    1    3    3    0    0 -0.26770767551E+02  0.25760333117E+02 -0.79949528837E+01  0.38002473988E+02  0.00000000000E+00 0. -1.
</event>
<event>
 7    1  0.3758561E-013  0.7246159E+02  0.7816164E-02  0.1226708E+00
        -11   -1    0    0    0    0  0.00000000000E+00  0.00000000000E+00  0.45593999997E+02  0.45594000000E+02  0.51100000000E-03 0. -1.
         11   -1    0    0    0    0 -0.00000000000E+00 -0.00000000000E+00 -0.45593999997E+02  0.45594000000E+02  0.51100000000E-03 0.  1.
    9900012    2    1    2    0    0 -0.45272448821E+01  0.69188881372E+01 -0.16802126690E+02  0.72461590291E+02  0.70000026050E+02 0.  0.
        -12    1    1    2    0    0  0.45272448821E+01 -0.69188881372E+01  0.16802126690E+02  0.18726409709E+02  0.00000000000E+00 0.  1.
         11    1    3    3    0    0 -0.65133125333E-01  0.43479709926E+01 -0.58688565679E+01  0.73042844792E+01  0.51100000000E-03 0. -1.
        -11    1    3    3    0    0 -0.10323402199E+02 -0.68781504941E+01 -0.35815859172E+02  0.37903263127E+02  0.51100000000E-03 0.  1.
         12    1    3    3    0    0  0.58612904425E+01  0.94490676386E+01  0.24882589050E+02  0.27254042686E+02  0.00000000000E+00 0. -1.
</event>
<event>
 7    1  0.3758561E-013  0.7246157E+02  0.7816164E-02  0.1226708E+00
        -11   -1    0    0    0    0  0.00000000000E+00  0.00000000000E+00  0.45593999997E+02  0.45594000000E+02  0.51100000000E-03 0.  1.
         11   -1    0    0    0    0 -0.00000000000E+00 -0.00000000000E+00 -0.45593999997E+02  0.45594000000E+02  0.51100000000E-03 0. -1.
    9900012    2    1    2    0    0 -0.18034980807E+02  0.12876788216E+01 -0.48744892151E+01  0.72461566956E+02  0.69999995651E+02 0.  0.
        -12    1    1    2    0    0  0.18034980807E+02 -0.12876788216E+01  0.48744892151E+01  0.18726433044E+02  0.00000000000E+00 0.  1.
         11    1    3    3    0    0 -0.18151432166E+02  0.13567048194E+02 -0.29944226830E+02  0.37552576570E+02  0.51100000000E-03 0. -1.
        -11    1    3    3    0    0  0.11215169240E+01  0.57238384949E+01  0.35275232570E+01  0.68164175280E+01  0.51100000000E-03 0.  1.
        -12    1    3    3    0    0 -0.10050655650E+01 -0.18003207867E+02  0.21542214358E+02  0.28092572857E+02  0.00000000000E+00 0.  1.
</event>
<event>
 7    1  0.3758561E-013  0.7246158E+02  0.7816164E-02  0.1226708E+00
        -11   -1    0    0    0    0  0.00000000000E+00  0.00000000000E+00  0.45593999997E+02  0.45594000000E+02  0.51100000000E-03 0. -1.
         11   -1    0    0    0    0 -0.00000000000E+00 -0.00000000000E+00 -0.45593999997E+02  0.45594000000E+02  0.51100000000E-03 0.  1.
    9900012    2    1    2    0    0 -0.27962424930E+01 -0.17876301782E+02  0.48267851358E+01  0.72461575028E+02  0.70000006167E+02 0.  0.
        -12    1    1    2    0    0  0.27962424930E+01  0.17876301782E+02 -0.48267851358E+01  0.18726424972E+02  0.00000000000E+00 0.  1.
         11    1    3    3    0    0 -0.14381448359E+02 -0.27886712224E+01  0.42879421574E+01  0.15263983500E+02  0.51100000000E-03 0. -1.
        -11    1    3    3    0    0 -0.37413485196E+01 -0.41773368453E+01  0.25404933373E+02  0.26016503835E+02  0.51100000000E-03 0.  1.
        -12    1    3    3    0    0  0.15326554385E+02 -0.10910293714E+02 -0.24866090394E+02  0.31181087694E+02  0.00000000000E+00 0.  1.
</event>
<event>
 7    1  0.3758561E-013  0.7246160E+02  0.7816164E-02  0.1226708E+00
        -11   -1    0    0    0    0  0.00000000000E+00  0.00000000000E+00  0.45593999997E+02  0.45594000000E+02  0.51100000000E-03 0.  1.
         11   -1    0    0    0    0 -0.00000000000E+00 -0.00000000000E+00 -0.45593999997E+02  0.45594000000E+02  0.51100000000E-03 0. -1.
    9900012    2    1    2    0    0 -0.10935535463E+02 -0.98251498392E+01 -0.11599935954E+02  0.72461601004E+02  0.70000040005E+02 0.  0.
        -12    1    1    2    0    0  0.10935535463E+02  0.98251498392E+01  0.11599935954E+02  0.18726398996E+02  0.00000000000E+00 0.  1.
         11    1    3    3    0    0  0.88956791411E+01 -0.53010956717E+01 -0.12522059872E+02  0.16249206331E+02  0.51100000000E-03 0. -1.
        -11    1    3    3    0    0 -0.12345637802E+02 -0.25530152467E+02 -0.11597573834E+02  0.30638328558E+02  0.51100000000E-03 0.  1.
         12    1    3    3    0    0 -0.74855768023E+01  0.21006098300E+02  0.12519697752E+02  0.25574066115E+02  0.00000000000E+00 0. -1.
</event>
<event>
 7    1  0.3758561E-013  0.7246153E+02  0.7816164E-02  0.1226708E+00
        -11   -1    0    0    0    0  0.00000000000E+00  0.00000000000E+00  0.45593999997E+02  0.45594000000E+02  0.51100000000E-03 0.  1.
         11   -1    0    0    0    0 -0.00000000000E+00 -0.00000000000E+00 -0.45593999997E+02  0.45594000000E+02  0.51100000000E-03 0. -1.
    9900012    2    1    2    0    0  0.78209082076E+01 -0.13400537425E+02  0.10485207981E+02  0.72461532237E+02  0.69999950423E+02 0.  0.
        -12    1    1    2    0    0 -0.78209082076E+01  0.13400537425E+02 -0.10485207981E+02  0.18726467763E+02  0.00000000000E+00 0.  1.
         11    1    3    3    0    0  0.17036059214E+02 -0.22253956477E+01  0.38294938466E+01  0.17602406730E+02  0.51100000000E-03 0. -1.
        -11    1    3    3    0    0  0.54587274421E+01 -0.19467730385E+02  0.23520138753E+02  0.31015917831E+02  0.51100000000E-03 0.  1.
         12    1    3    3    0    0 -0.14673878448E+02  0.82925886076E+01 -0.16864424619E+02  0.23843207676E+02  0.00000000000E+00 0. -1.
</event>
<event>
 7    1  0.3758561E-013  0.7246157E+02  0.7816164E-02  0.1226708E+00
        -11   -1    0    0    0    0  0.00000000000E+00  0.00000000000E+00  0.45593999997E+02  0.45594000000E+02  0.51100000000E-03 0.  1.
         11   -1    0    0    0    0 -0.00000000000E+00 -0.00000000000E+00 -0.45593999997E+02  0.45594000000E+02  0.51100000000E-03 0. -1.
    9900012    2    1    2    0    0  0.64442237141E+01  0.91445454940E+01 -0.15017599761E+02  0.72461573909E+02  0.70000004709E+02 0.  0.
        -12    1    1    2    0    0 -0.64442237141E+01 -0.91445454940E+01  0.15017599761E+02  0.18726426091E+02  0.00000000000E+00 0.  1.
         11    1    3    3    0    0  0.62605344013E+01  0.36903774410E+02 -0.10884985411E+01  0.37446864835E+02  0.51100000000E-03 0. -1.
        -11    1    3    3    0    0 -0.64950373208E+01 -0.48924785668E+01 -0.51563570164E+01  0.96285966925E+01  0.51100000000E-03 0.  1.
        -12    1    3    3    0    0  0.66787266337E+01 -0.22866750349E+02 -0.87727442034E+01  0.25386112381E+02  0.00000000000E+00 0.  1.
</event>
<event>
 7    1  0.3758561E-013  0.7246129E+02  0.7816164E-02  0.1226709E+00
        -11   -1    0    0    0    0  0.00000000000E+00  0.00000000000E+00  0.45593999997E+02  0.45594000000E+02  0.51100000000E-03 0.  1.
         11   -1    0    0    0    0 -0.00000000000E+00 -0.00000000000E+00 -0.45593999997E+02  0.45594000000E+02  0.51100000000E-03 0. -1.
    9900012    2    1    2    0    0 -0.15642523929E+02 -0.58285604366E+01  0.84869999116E+01  0.72461285415E+02  0.69999628891E+02 0.  0.
        -12    1    1    2    0    0  0.15642523929E+02  0.58285604366E+01 -0.84869999116E+01  0.18726714585E+02  0.00000000000E+00 0.  1.
         11    1    3    3    0    0 -0.19117961005E+02  0.17243797640E+02  0.59895055011E+01  0.26433296550E+02  0.51100000000E-03 0. -1.
        -11    1    3    3    0    0 -0.13804758507E+02 -0.24924218779E+02  0.29402905371E+01  0.28643207709E+02  0.51100000000E-03 0.  1.
        -12    1    3    3    0    0  0.17280195583E+02  0.18518607018E+01 -0.44279612657E+00  0.17384781157E+02  0.00000000000E+00 0.  1.
</event>
<event>
 7    1  0.3758561E-013  0.7246158E+02  0.7816164E-02  0.1226708E+00
        -11   -1    0    0    0    0  0.00000000000E+00  0.00000000000E+00  0.45593999997E+02  0.45594000000E+02  0.51100000000E-03 0.  1.
         11   -1    0    0    0    0 -0.00000000000E+00 -0.00000000000E+00 -0.45593999997E+02  0.45594000000E+02  0.51100000000E-03 0. -1.
    9900012    2    1    2    0    0 -0.78595572363E+01 -0.15627101684E+02 -0.66857935336E+01  0.72461580637E+02  0.70000013473E+02 0.  0.
        -12    1    1    2    0    0  0.78595572363E+01  0.15627101684E+02  0.66857935336E+01  0.18726419363E+02  0.00000000000E+00 0.  1.
         11    1    3    3    0    0 -0.16189119573E+02 -0.12898691939E+02  0.11113213342E+00  0.20699666589E+02  0.51100000000E-03 0. -1.
        -11    1    3    3    0    0 -0.15619641546E+02  0.69286704906E+01  0.11070534538E+02  0.20360167289E+02  0.51100000000E-03 0.  1.
        -12    1    3    3    0    0  0.23949203883E+02 -0.96570802358E+01 -0.17867460205E+02  0.31401746759E+02  0.00000000000E+00 0.  1.
</event>
<event>
 7    1  0.3758561E-013  0.7246155E+02  0.7816164E-02  0.1226708E+00
        -11   -1    0    0    0    0  0.00000000000E+00  0.00000000000E+00  0.45593999997E+02  0.45594000000E+02  0.51100000000E-03 0. -1.
         11   -1    0    0    0    0 -0.00000000000E+00 -0.00000000000E+00 -0.45593999997E+02  0.45594000000E+02  0.51100000000E-03 0.  1.
    9900012    2    1    2    0    0 -0.84915271525E+01  0.16667824078E+02 -0.87042935900E+00  0.72461547048E+02  0.69999969717E+02 0.  0.
        -12    1    1    2    0    0  0.84915271525E+01 -0.16667824078E+02  0.87042935900E+00  0.18726452952E+02  0.00000000000E+00 0.  1.
         11    1    3    3    0    0 -0.17307622526E+01 -0.92747268697E+01 -0.12384777279E+02  0.15569161987E+02  0.51100000000E-03 0. -1.
        -11    1    3    3    0    0  0.19717035505E+02  0.32315136843E+01 -0.53256981827E+00  0.19987190915E+02  0.51100000000E-03 0.  1.
         12    1    3    3    0    0 -0.26477800405E+02  0.22711037264E+02  0.12046917738E+02  0.36905194145E+02  0.00000000000E+00 0. -1.
</event>
<event>
 7    1  0.3758561E-013  0.7246156E+02  0.7816164E-02  0.1226708E+00
        -11   -1    0    0    0    0  0.00000000000E+00  0.00000000000E+00  0.45593999997E+02  0.45594000000E+02  0.51100000000E-03 0.  1.
         11   -1    0    0    0    0 -0.00000000000E+00 -0.00000000000E+00 -0.45593999997E+02  0.45594000000E+02  0.51100000000E-03 0. -1.
    9900012    2    1    2    0    0  0.96899818244E+01 -0.15196670172E+01 -0.15952255875E+02  0.72461558718E+02  0.69999984919E+02 0.  0.
        -12    1    1    2    0    0 -0.96899818244E+01  0.15196670172E+01  0.15952255875E+02  0.18726441282E+02  0.00000000000E+00 0.  1.
         11    1    3    3    0    0 -0.74584198619E+01 -0.11780259513E+01 -0.10510889109E+02  0.12941969020E+02  0.51100000000E-03 0. -1.
        -11    1    3    3    0    0  0.35163676156E+02 -0.57534347231E+01 -0.14711460667E+02  0.38548841839E+02  0.51100000000E-03 0.  1.
         12    1    3    3    0    0 -0.18015274470E+02  0.54117936572E+01  0.92700939016E+01  0.20970747859E+02  0.00000000000E+00 0. -1.
</event>
<event>
 7    1  0.3758561E-013  0.7246150E+02  0.7816164E-02  0.1226708E+00
        -11   -1    0    0    0    0  0.00000000000E+00  0.00000000000E+00  0.45593999997E+02  0.45594000000E+02  0.51100000000E-03 0. -1.
         11   -1    0    0    0    0 -0.00000000000E+00 -0.00000000000E+00 -0.45593999997E+02  0.45594000000E+02  0.51100000000E-03 0.  1.
    9900012    2    1    2    0    0  0.32175627319E+00 -0.35857468122E+01  0.18377174907E+02  0.72461503668E+02  0.69999913206E+02 0.  0.
        -12    1    1    2    0    0 -0.32175627319E+00  0.35857468122E+01 -0.18377174907E+02  0.18726496332E+02  0.00000000000E+00 0.  1.
         11    1    3    3    0    0  0.82332083030E+01 -0.20975819760E+02  0.12878687808E+01  0.22570541416E+02  0.51100000000E-03 0.  1.
        -11    1    3    3    0    0 -0.10861276159E+02 -0.64563922487E+01  0.21996034188E+02  0.25366865020E+02  0.51100000000E-03 0. -1.
         12    1    3    3    0    0  0.29498241295E+01  0.23846465196E+02 -0.49067280615E+01  0.24524097232E+02  0.00000000000E+00 0. -1.
</event>
<event>
 7    1  0.3758561E-013  0.7246159E+02  0.7816164E-02  0.1226708E+00
        -11   -1    0    0    0    0  0.00000000000E+00  0.00000000000E+00  0.45593999997E+02  0.45594000000E+02  0.51100000000E-03 0. -1.
         11   -1    0    0    0    0 -0.00000000000E+00 -0.00000000000E+00 -0.45593999997E+02  0.45594000000E+02  0.51100000000E-03 0.  1.
    9900012    2    1    2    0    0  0.16749939416E+02 -0.46610023979E+01 -0.69565032546E+01  0.72461592141E+02  0.70000028459E+02 0.  0.
        -12    1    1    2    0    0 -0.16749939416E+02  0.46610023979E+01  0.69565032546E+01  0.18726407859E+02  0.00000000000E+00 0.  1.
         11    1    3    3    0    0 -0.57379009380E+01 -0.14501489052E+02 -0.32762529802E+01  0.15935825230E+02  0.51100000000E-03 0. -1.
        -11    1    3    3    0    0  0.19899750003E+02 -0.14809045512E+02 -0.15308102062E+02  0.29148685531E+02  0.51100000000E-03 0.  1.
         12    1    3    3    0    0  0.25880903506E+01  0.24649532166E+02  0.11627851788E+02  0.27377081380E+02  0.00000000000E+00 0. -1.
</event>
<event>
 7    1  0.3758561E-013  0.7246172E+02  0.7816164E-02  0.1226708E+00
        -11   -1    0    0    0    0  0.00000000000E+00  0.00000000000E+00  0.45593999997E+02  0.45594000000E+02  0.51100000000E-03 0.  1.
         11   -1    0    0    0    0 -0.00000000000E+00 -0.00000000000E+00 -0.45593999997E+02  0.45594000000E+02  0.51100000000E-03 0. -1.
    9900012    2    1    2    0    0 -0.94726311037E+01  0.26867392858E+01  0.15928729000E+02  0.72461715917E+02  0.70000189700E+02 0.  0.
        -12    1    1    2    0    0  0.94726311037E+01 -0.26867392858E+01 -0.15928729000E+02  0.18726284083E+02  0.00000000000E+00 0.  1.
         11    1    3    3    0    0  0.21508023786E+02  0.11632925165E+00 -0.13992673642E+02  0.25659375199E+02  0.51100000000E-03 0. -1.
        -11    1    3    3    0    0 -0.44277855050E+01  0.76021019928E+01  0.54853725187E+01  0.10367572094E+02  0.51100000000E-03 0.  1.
        -12    1    3    3    0    0 -0.26552869385E+02 -0.50316919587E+01  0.24436030123E+02  0.36434768624E+02  0.00000000000E+00 0.  1.
</event>
<event>
 7    1  0.3758561E-013  0.7246158E+02  0.7816164E-02  0.1226708E+00
        -11   -1    0    0    0    0  0.00000000000E+00  0.00000000000E+00  0.45593999997E+02  0.45594000000E+02  0.51100000000E-03 0. -1.
         11   -1    0    0    0    0 -0.00000000000E+00 -0.00000000000E+00 -0.45593999997E+02  0.45594000000E+02  0.51100000000E-03 0.  1.
    9900012    2    1    2    0    0  0.14911375792E+02 -0.78281556964E+01  0.81883822428E+01  0.72461581406E+02  0.70000014475E+02 0.  0.
        -12    1    1    2    0    0 -0.14911375792E+02  0.78281556964E+01 -0.81883822428E+01  0.18726418594E+02  0.00000000000E+00 0.  1.
         11    1    3    3    0    0  0.39327215292E+01  0.14109515613E+02 -0.84733446349E+01  0.16921651781E+02  0.51100000000E-03 0. -1.
        -11    1    3    3    0    0 -0.18008318528E+02 -0.30511507082E+01  0.39921408755E+01  0.18696155911E+02  0.51100000000E-03 0.  1.
         12    1    3    3    0    0  0.28986972790E+02 -0.18886520601E+02  0.12669586002E+02  0.36843773713E+02  0.00000000000E+00 0. -1.
</event>
<event>
 7    1  0.3758561E-013  0.7246151E+02  0.7816164E-02  0.1226708E+00
        -11   -1    0    0    0    0  0.00000000000E+00  0.00000000000E+00  0.45593999997E+02  0.45594000000E+02  0.51100000000E-03 0.  1.
         11   -1    0    0    0    0 -0.00000000000E+00 -0.00000000000E+00 -0.45593999997E+02  0.45594000000E+02  0.51100000000E-03 0. -1.
    9900012    2    1    2    0    0 -0.16716691956E+02  0.13423603147E+01  0.83325640224E+01  0.72461512226E+02  0.69999924356E+02 0.  0.
        -12    1    1    2    0    0  0.16716691956E+02 -0.13423603147E+01 -0.83325640224E+01  0.18726487774E+02  0.00000000000E+00 0.  1.
         11    1    3    3    0    0 -0.12146361095E+02 -0.10239307134E+02 -0.10796303162E+02  0.19207750015E+02  0.51100000000E-03 0. -1.
        -11    1    3    3    0    0  0.10222688243E+02  0.22851857458E+02 -0.19907773293E+01  0.25113222390E+02  0.51100000000E-03 0.  1.
        -12    1    3    3    0    0 -0.14793019104E+02 -0.11270190008E+02  0.21119644513E+02  0.28140539821E+02  0.00000000000E+00 0.  1.
</event>
<event>
 7    1  0.3758561E-013  0.7246111E+02  0.7816164E-02  0.1226709E+00
        -11   -1    0    0    0    0  0.00000000000E+00  0.00000000000E+00  0.45593999997E+02  0.45594000000E+02  0.51100000000E-03 0.  1.
         11   -1    0    0    0    0 -0.00000000000E+00 -0.00000000000E+00 -0.45593999997E+02  0.45594000000E+02  0.51100000000E-03 0. -1.
    9900012    2    1    2    0    0 -0.73975992201E+01 -0.17004636463E+02 -0.26103845181E+01  0.72461114439E+02  0.69999406162E+02 0.  0.
        -12    1    1    2    0    0  0.73975992201E+01  0.17004636463E+02  0.26103845181E+01  0.18726885561E+02  0.00000000000E+00 0.  1.
         11    1    3    3    0    0 -0.46756985674E+00 -0.76298494974E+01 -0.22854860834E+02  0.24099333786E+02  0.51100000000E-03 0. -1.
        -11    1    3    3    0    0  0.38423126928E+01 -0.73618900729E+01 -0.11837439323E+02  0.14459798140E+02  0.51100000000E-03 0.  1.
        -12    1    3    3    0    0 -0.10772342056E+02 -0.20128968929E+01  0.32081915639E+02  0.33901982513E+02  0.00000000000E+00 0.  1.
</event>
<event>
 7    1  0.3758561E-013  0.7246157E+02  0.7816164E-02  0.1226708E+00
        -11   -1    0    0    0    0  0.00000000000E+00  0.00000000000E+00  0.45593999997E+02  0.45594000000E+02  0.51100000000E-03 0. -1.
         11   -1    0    0    0    0 -0.00000000000E+00 -0.00000000000E+00 -0.45593999997E+02  0.45594000000E+02  0.51100000000E-03 0.  1.
    9900012    2    1    2    0    0  0.90627829243E+01 -0.14263358977E+02 -0.80685644832E+01  0.72461570109E+02  0.69999999758E+02 0.  0.
        -12    1    1    2    0    0 -0.90627829243E+01  0.14263358977E+02  0.80685644832E+01  0.18726429891E+02  0.00000000000E+00 0.  1.
         11    1    3    3    0    0 -0.21049957438E+02 -0.22757111605E+02  0.42746659124E+01  0.31293123936E+02  0.51100000000E-03 0. -1.
        -11    1    3    3    0    0 -0.35429539769E+01  0.32126829498E+01  0.39126467842E+00  0.47986396956E+01  0.51100000000E-03 0.  1.
        -12    1    3    3    0    0  0.33655694340E+02  0.52810696776E+01 -0.12734495074E+02  0.36369806477E+02  0.00000000000E+00 0.  1.
</event>
<event>
 7    1  0.3758561E-013  0.7246152E+02  0.7816164E-02  0.1226708E+00
        -11   -1    0    0    0    0  0.00000000000E+00  0.00000000000E+00  0.45593999997E+02  0.45594000000E+02  0.51100000000E-03 0.  1.
         11   -1    0    0    0    0 -0.00000000000E+00 -0.00000000000E+00 -0.45593999997E+02  0.45594000000E+02  0.51100000000E-03 0. -1.
    9900012    2    1    2    0    0  0.39477128021E+01  0.43674061906E+01 -0.17777016415E+02  0.72461521799E+02  0.69999936826E+02 0.  0.
        -12    1    1    2    0    0 -0.39477128021E+01 -0.43674061906E+01  0.17777016415E+02  0.18726478201E+02  0.00000000000E+00 0.  1.
         11    1    3    3    0    0  0.30027779675E+02  0.64497683284E+01  0.67036480520E+00  0.30719968310E+02  0.51100000000E-03 0. -1.
        -11    1    3    3    0    0 -0.13020830955E+02  0.74832863529E+01  0.25454465359E+01  0.15232232657E+02  0.51100000000E-03 0.  1.
        -12    1    3    3    0    0 -0.13059235919E+02 -0.95656484908E+01 -0.20992827756E+02  0.26509320833E+02  0.00000000000E+00 0.  1.
</event>
<event>
 7    1  0.3758561E-013  0.7246154E+02  0.7816164E-02  0.1226708E+00
        -11   -1    0    0    0    0  0.00000000000E+00  0.00000000000E+00  0.45593999997E+02  0.45594000000E+02  0.51100000000E-03 0.  1.
         11   -1    0    0    0    0 -0.00000000000E+00 -0.00000000000E+00 -0.45593999997E+02  0.45594000000E+02  0.51100000000E-03 0. -1.
    9900012    2    1    2    0    0  0.10492517297E+02  0.44603906961E+01 -0.14855717284E+02  0.72461539032E+02  0.69999959275E+02 0.  0.
        -12    1    1    2    0    0 -0.10492517297E+02 -0.44603906961E+01  0.14855717284E+02  0.18726460968E+02  0.00000000000E+00 0.  1.
         11    1    3    3    0    0  0.24069089618E+02  0.15282589173E+02  0.51039775841E+01  0.28964274449E+02  0.51100000000E-03 0.  1.
        -11    1    3    3    0    0  0.10865794259E+02 -0.88812481872E+01 -0.58158073034E+01  0.15190973277E+02  0.51100000000E-03 0. -1.
         12    1    3    3    0    0 -0.24442366581E+02 -0.19409502899E+01 -0.14143887564E+02  0.28306291306E+02  0.00000000000E+00 0. -1.
</event>
<event>
 7    1  0.3758561E-013  0.7246156E+02  0.7816164E-02  0.1226708E+00
        -11   -1    0    0    0    0  0.00000000000E+00  0.00000000000E+00  0.45593999997E+02  0.45594000000E+02  0.51100000000E-03 0.  1.
         11   -1    0    0    0    0 -0.00000000000E+00 -0.00000000000E+00 -0.45593999997E+02  0.45594000000E+02  0.51100000000E-03 0. -1.
    9900012    2    1    2    0    0  0.10215805960E+01  0.82580282970E+01 -0.16776195693E+02  0.72461564135E+02  0.69999991976E+02 0.  0.
        -12    1    1    2    0    0 -0.10215805960E+01 -0.82580282970E+01  0.16776195693E+02  0.18726435865E+02  0.00000000000E+00 0.  1.
         11    1    3    3    0    0  0.18373284950E+02  0.50169860432E+01  0.14449185371E+02  0.23906624750E+02  0.51100000000E-03 0. -1.
        -11    1    3    3    0    0  0.15125577031E+01  0.96035965514E+01 -0.26309996429E+02  0.28048757725E+02  0.51100000000E-03 0.  1.
        -12    1    3    3    0    0 -0.18864262057E+02 -0.63625542976E+01 -0.49153846351E+01  0.20506181660E+02  0.00000000000E+00 0.  1.
</event>
<event>
 7    1  0.3758561E-013  0.7246155E+02  0.7816164E-02  0.1226708E+00
        -11   -1    0    0    0    0  0.00000000000E+00  0.00000000000E+00  0.45593999997E+02  0.45594000000E+02  0.51100000000E-03 0.  1.
         11   -1    0    0    0    0 -0.00000000000E+00 -0.00000000000E+00 -0.45593999997E+02  0.45594000000E+02  0.51100000000E-03 0. -1.
    9900012    2    1    2    0    0 -0.15332449887E+02  0.10728266616E+02  0.70723695161E+00  0.72461550571E+02  0.69999974306E+02 0.  0.
        -12    1    1    2    0    0  0.15332449887E+02 -0.10728266616E+02 -0.70723695161E+00  0.18726449429E+02  0.00000000000E+00 0.  1.
         11    1    3    3    0    0 -0.10793983761E+02  0.97157652394E+01 -0.16076890964E+02  0.21665008723E+02  0.51100000000E-03 0. -1.
        -11    1    3    3    0    0 -0.57301255073E+01 -0.10246148899E+02 -0.13838994495E+02  0.18147607955E+02  0.51100000000E-03 0.  1.
         12    1    3    3    0    0  0.11916593813E+01  0.11258650276E+02  0.30623122411E+02  0.32648933893E+02  0.00000000000E+00 0. -1.
</event>
<event>
 7    1  0.3758561E-013  0.7246151E+02  0.7816164E-02  0.1226708E+00
        -11   -1    0    0    0    0  0.00000000000E+00  0.00000000000E+00  0.45593999997E+02  0.45594000000E+02  0.51100000000E-03 0. -1.
         11   -1    0    0    0    0 -0.00000000000E+00 -0.00000000000E+00 -0.45593999997E+02  0.45594000000E+02  0.51100000000E-03 0.  1.
    9900012    2    1    2    0    0 -0.49808274171E+01 -0.17881226664E+02 -0.24767777504E+01  0.72461512427E+02  0.69999924618E+02 0.  0.
        -12    1    1    2    0    0  0.49808274171E+01  0.17881226664E+02  0.24767777504E+01  0.18726487573E+02  0.00000000000E+00 0.  1.
         11    1    3    3    0    0 -0.12312353798E+02 -0.15590995142E+02  0.13850942136E+02  0.24218211822E+02  0.51100000000E-03 0. -1.
        -11    1    3    3    0    0 -0.16999521196E+02 -0.68957178647E+01  0.41803717887E+00  0.18349643079E+02  0.51100000000E-03 0.  1.
        -12    1    3    3    0    0  0.24331047577E+02  0.46054863418E+01 -0.16745757065E+02  0.29893657527E+02  0.00000000000E+00 0.  1.
</event>
<event>
 7    1  0.3758561E-013  0.7246157E+02  0.7816164E-02  0.1226708E+00
        -11   -1    0    0    0    0  0.00000000000E+00  0.00000000000E+00  0.45593999997E+02  0.45594000000E+02  0.51100000000E-03 0.  1.
         11   -1    0    0    0    0 -0.00000000000E+00 -0.00000000000E+00 -0.45593999997E+02  0.45594000000E+02  0.51100000000E-03 0. -1.
    9900012    2    1    2    0    0 -0.86382846561E+01  0.16596569542E+02 -0.78292771763E+00  0.72461573267E+02  0.70000003873E+02 0.  0.
        -12    1    1    2    0    0  0.86382846561E+01 -0.16596569542E+02  0.78292771763E+00  0.18726426733E+02  0.00000000000E+00 0.  1.
         11    1    3    3    0    0 -0.28610891120E+01 -0.88096960802E+01  0.47212358128E+01  0.10396472661E+02  0.51100000000E-03 0. -1.
        -11    1    3    3    0    0 -0.21077281511E+01 -0.17709080524E+02 -0.59228331711E+01  0.18791860047E+02  0.51100000000E-03 0.  1.
         12    1    3    3    0    0 -0.36694673930E+01  0.43115346146E+02  0.41866964063E+00  0.43273240560E+02  0.00000000000E+00 0. -1.
</event>
<event>
 7    1  0.3758561E-013  0.7246147E+02  0.7816164E-02  0.1226708E+00
        -11   -1    0    0    0    0  0.00000000000E+00  0.00000000000E+00  0.45593999997E+02  0.45594000000E+02  0.51100000000E-03 0. -1.
         11   -1    0    0    0    0 -0.00000000000E+00 -0.00000000000E+00 -0.45593999997E+02  0.45594000000E+02  0.51100000000E-03 0.  1.
    9900012    2    1    2    0    0 -0.62516776967E+01 -0.17611306543E+02  0.12005597938E+01  0.72461469729E+02  0.69999868994E+02 0.  0.
        -12    1    1    2    0    0  0.62516776967E+01  0.17611306543E+02 -0.12005597938E+01  0.18726530271E+02  0.00000000000E+00 0.  1.
         11    1    3    3    0    0 -0.14081426309E+02 -0.11945941927E+02  0.99915426036E+01  0.20995785751E+02  0.51100000000E-03 0. -1.
        -11    1    3    3    0    0  0.14751314326E+02  0.56637427250E+01  0.16534894023E+02  0.22870985476E+02  0.51100000000E-03 0.  1.
        -12    1    3    3    0    0 -0.69215657136E+01 -0.11329107341E+02 -0.25325876833E+02  0.28594698502E+02  0.00000000000E+00 0.  1.
</event>
<event>
 7    1  0.3758561E-013  0.7246154E+02  0.7816164E-02  0.1226708E+00
        -11   -1    0    0    0    0  0.00000000000E+00  0.00000000000E+00  0.45593999997E+02  0.45594000000E+02  0.51100000000E-03 0.  1.
         11   -1    0    0    0    0 -0.00000000000E+00 -0.00000000000E+00 -0.45593999997E+02  0.45594000000E+02  0.51100000000E-03 0. -1.
    9900012    2    1    2    0    0 -0.17489697490E+02 -0.64390763252E+01  0.18245878958E+01  0.72461538956E+02  0.69999959177E+02 0.  0.
        -12    1    1    2    0    0  0.17489697490E+02  0.64390763252E+01 -0.18245878958E+01  0.18726461044E+02  0.00000000000E+00 0.  1.
         11    1    3    3    0    0  0.22081828850E+01 -0.94942200367E+01 -0.20641392475E+01  0.99637822564E+01  0.51100000000E-03 0. -1.
        -11    1    3    3    0    0  0.37182264802E+00  0.11265947750E+02  0.27931858237E+02  0.30120566655E+02  0.51100000000E-03 0.  1.
         12    1    3    3    0    0 -0.20069703023E+02 -0.82108040382E+01 -0.24043131094E+02  0.32377190045E+02  0.00000000000E+00 0. -1.
</event>
<event>
 7    1  0.3758561E-013  0.7246156E+02  0.7816164E-02  0.1226708E+00
        -11   -1    0    0    0    0  0.00000000000E+00  0.00000000000E+00  0.45593999997E+02  0.45594000000E+02  0.51100000000E-03 0. -1.
         11   -1    0    0    0    0 -0.00000000000E+00 -0.00000000000E+00 -0.45593999997E+02  0.45594000000E+02  0.51100000000E-03 0.  1.
    9900012    2    1    2    0    0 -0.10981544543E+02  0.13569355214E+02  0.67792123724E+01  0.72461563023E+02  0.69999990527E+02 0.  0.
        -12    1    1    2    0    0  0.10981544543E+02 -0.13569355214E+02 -0.67792123724E+01  0.18726436977E+02  0.00000000000E+00 0.  1.
         11    1    3    3    0    0  0.25545302142E+01  0.47014854229E+01  0.10733266723E+01  0.54572539068E+01  0.51100000000E-03 0. -1.
        -11    1    3    3    0    0 -0.16772049740E+02  0.31099889803E+02 -0.13121727728E+02  0.37691969132E+02  0.51100000000E-03 0.  1.
        -12    1    3    3    0    0  0.32359749833E+01 -0.22232020012E+02  0.18827613428E+02  0.29312339983E+02  0.00000000000E+00 0.  1.
</event>
<event>
 7    1  0.3758561E-013  0.7246151E+02  0.7816164E-02  0.1226708E+00
        -11   -1    0    0    0    0  0.00000000000E+00  0.00000000000E+00  0.45593999997E+02  0.45594000000E+02  0.51100000000E-03 0.  1.
         11   -1    0    0    0    0 -0.00000000000E+00 -0.00000000000E+00 -0.45593999997E+02  0.45594000000E+02  0.51100000000E-03 0. -1.
    9900012    2    1    2    0    0 -0.33276989012E+01 -0.61334052140E+01 -0.17377830939E+02  0.72461514808E+02  0.69999927719E+02 0.  0.
        -12    1    1    2    0    0  0.33276989012E+01  0.61334052140E+01  0.17377830939E+02  0.18726485192E+02  0.00000000000E+00 0.  1.
         11    1    3    3    0    0 -0.20626068535E+01  0.11073365823E+02  0.72090280290E+01  0.13373251776E+02  0.51100000000E-03 0. -1.
        -11    1    3    3    0    0 -0.37606933766E+01 -0.69642126971E+01  0.15626193150E+02  0.17516306283E+02  0.51100000000E-03 0.  1.
         12    1    3    3    0    0  0.24956013289E+01 -0.10242558340E+02 -0.40213052118E+02  0.41571956750E+02  0.00000000000E+00 0. -1.
</event>
<event>
 7    1  0.3758561E-013  0.7246157E+02  0.7816164E-02  0.1226708E+00
        -11   -1    0    0    0    0  0.00000000000E+00  0.00000000000E+00  0.45593999997E+02  0.45594000000E+02  0.51100000000E-03 0. -1.
         11   -1    0    0    0    0 -0.00000000000E+00 -0.00000000000E+00 -0.45593999997E+02  0.45594000000E+02  0.51100000000E-03 0.  1.
    9900012    2    1    2    0    0 -0.35162144924E+00 -0.13630437398E+02  0.12836154201E+02  0.72461566384E+02  0.69999994906E+02 0.  0.
        -12    1    1    2    0    0  0.35162144924E+00  0.13630437398E+02 -0.12836154201E+02  0.18726433616E+02  0.00000000000E+00 0.  1.
         11    1    3    3    0    0  0.16793203205E+02 -0.13353501917E+01  0.22591277159E+01  0.16997014218E+02  0.51100000000E-03 0. -1.
        -11    1    3    3    0    0 -0.27312808475E+02  0.10220606606E+02  0.16965245955E+01  0.29211787042E+02  0.51100000000E-03 0.  1.
         12    1    3    3    0    0  0.10167983821E+02 -0.22515693813E+02  0.88805018897E+01  0.26252765124E+02  0.00000000000E+00 0. -1.
</event>
<event>
 7    1  0.3758561E-013  0.7246154E+02  0.7816164E-02  0.1226708E+00
        -11   -1    0    0    0    0  0.00000000000E+00  0.00000000000E+00  0.45593999997E+02  0.45594000000E+02  0.51100000000E-03 0. -1.
         11   -1    0    0    0    0 -0.00000000000E+00 -0.00000000000E+00 -0.45593999997E+02  0.45594000000E+02  0.51100000000E-03 0.  1.
    9900012    2    1    2    0    0  0.12020238479E+02 -0.13069257125E+02  0.59488464218E+01  0.72461537743E+02  0.69999957596E+02 0.  0.
        -12    1    1    2    0    0 -0.12020238479E+02  0.13069257125E+02 -0.59488464218E+01  0.18726462257E+02  0.00000000000E+00 0.  1.
         11    1    3    3    0    0 -0.19593260021E+02 -0.62974350080E+01  0.64067880045E+01  0.21554592521E+02  0.51100000000E-03 0. -1.
        -11    1    3    3    0    0 -0.58097197167E+01 -0.11289458679E+02 -0.32586036630E+01  0.13108135586E+02  0.51100000000E-03 0.  1.
        -12    1    3    3    0    0  0.37423218217E+02  0.45176365618E+01  0.28006620803E+01  0.37798809636E+02  0.00000000000E+00 0.  1.
</event>
<event>
 7    1  0.3758561E-013  0.7246161E+02  0.7816164E-02  0.1226708E+00
        -11   -1    0    0    0    0  0.00000000000E+00  0.00000000000E+00  0.45593999997E+02  0.45594000000E+02  0.51100000000E-03 0.  1.
         11   -1    0    0    0    0 -0.00000000000E+00 -0.00000000000E+00 -0.45593999997E+02  0.45594000000E+02  0.51100000000E-03 0. -1.
    9900012    2    1    2    0    0 -0.30451241152E+01  0.35957574925E+01 -0.18123895827E+02  0.72461605452E+02  0.70000045799E+02 0.  0.
        -12    1    1    2    0    0  0.30451241152E+01 -0.35957574925E+01  0.18123895827E+02  0.18726394548E+02  0.00000000000E+00 0.  1.
         11    1    3    3    0    0  0.73322979617E+01 -0.19929894372E+02 -0.62730386374E+01  0.22143041731E+02  0.51100000000E-03 0. -1.
        -11    1    3    3    0    0  0.14552295991E+02  0.12545704560E+02 -0.12756715538E+02  0.23062909901E+02  0.51100000000E-03 0.  1.
        -12    1    3    3    0    0 -0.24929718068E+02  0.10979947305E+02  0.90585834822E+00  0.27255653820E+02  0.00000000000E+00 0.  1.
</event>
<event>
 7    1  0.3758561E-013  0.7246158E+02  0.7816164E-02  0.1226708E+00
        -11   -1    0    0    0    0  0.00000000000E+00  0.00000000000E+00  0.45593999997E+02  0.45594000000E+02  0.51100000000E-03 0.  1.
         11   -1    0    0    0    0 -0.00000000000E+00 -0.00000000000E+00 -0.45593999997E+02  0.45594000000E+02  0.51100000000E-03 0. -1.
    9900012    2    1    2    0    0 -0.11084942418E+02  0.16874146344E+01 -0.14998516141E+02  0.72461580081E+02  0.70000012749E+02 0.  0.
        -12    1    1    2    0    0  0.11084942418E+02 -0.16874146344E+01  0.14998516141E+02  0.18726419919E+02  0.00000000000E+00 0.  1.
         11    1    3    3    0    0  0.60723982536E+01  0.12276564820E+02 -0.49656066057E+01  0.14568641445E+02  0.51100000000E-03 0. -1.
        -11    1    3    3    0    0 -0.33155878351E+01 -0.23110001622E+02 -0.24824291759E+02  0.34078009907E+02  0.51100000000E-03 0.  1.
         12    1    3    3    0    0 -0.13841752836E+02  0.12520851437E+02  0.14791382224E+02  0.23814928729E+02  0.00000000000E+00 0. -1.
</event>
<event>
 7    1  0.3758561E-013  0.7246084E+02  0.7816164E-02  0.1226710E+00
        -11   -1    0    0    0    0  0.00000000000E+00  0.00000000000E+00  0.45593999997E+02  0.45594000000E+02  0.51100000000E-03 0. -1.
         11   -1    0    0    0    0 -0.00000000000E+00 -0.00000000000E+00 -0.45593999997E+02  0.45594000000E+02  0.51100000000E-03 0.  1.
    9900012    2    1    2    0    0 -0.24756877600E+01  0.57540889534E+01  0.17648450464E+02  0.72460843960E+02  0.69999053809E+02 0.  0.
        -12    1    1    2    0    0  0.24756877600E+01 -0.57540889534E+01 -0.17648450464E+02  0.18727156040E+02  0.00000000000E+00 0.  1.
         11    1    3    3    0    0  0.93267535786E+01  0.80863645811E+01 -0.36251522595E-01  0.12344186441E+02  0.51100000000E-03 0. -1.
        -11    1    3    3    0    0 -0.15190185654E+02 -0.18654107085E+02 -0.11378811223E+02  0.26611929589E+02  0.51100000000E-03 0.  1.
         12    1    3    3    0    0  0.33877443155E+01  0.16321831457E+02  0.29063513209E+02  0.33504727931E+02  0.00000000000E+00 0. -1.
</event>
<event>
 7    1  0.3758561E-013  0.7246156E+02  0.7816164E-02  0.1226708E+00
        -11   -1    0    0    0    0  0.00000000000E+00  0.00000000000E+00  0.45593999997E+02  0.45594000000E+02  0.51100000000E-03 0.  1.
         11   -1    0    0    0    0 -0.00000000000E+00 -0.00000000000E+00 -0.45593999997E+02  0.45594000000E+02  0.51100000000E-03 0. -1.
    9900012    2    1    2    0    0 -0.41487308827E+01  0.15405432681E+02 -0.98051127243E+01  0.72461559880E+02  0.69999986434E+02 0.  0.
        -12    1    1    2    0    0  0.41487308827E+01 -0.15405432681E+02  0.98051127243E+01  0.18726440120E+02  0.00000000000E+00 0.  1.
         11    1    3    3    0    0 -0.14912596775E+01  0.34388783033E+01  0.39584150217E+01  0.54514942131E+01  0.51100000000E-03 0. -1.
        -11    1    3    3    0    0 -0.54734812198E+01  0.36316730125E+02 -0.19857495177E+02  0.41751455048E+02  0.51100000000E-03 0.  1.
         12    1    3    3    0    0  0.28160100146E+01 -0.24350175748E+02  0.60939674310E+01  0.25258610619E+02  0.00000000000E+00 0. -1.
</event>
<event>
 7    1  0.3758561E-013  0.7246160E+02  0.7816164E-02  0.1226708E+00
        -11   -1    0    0    0    0  0.00000000000E+00  0.00000000000E+00  0.45593999997E+02  0.45594000000E+02  0.51100000000E-03 0. -1.
         11   -1    0    0    0    0 -0.00000000000E+00 -0.00000000000E+00 -0.45593999997E+02  0.45594000000E+02  0.51100000000E-03 0.  1.
    9900012    2    1    2    0    0 -0.14495718786E+02  0.88120480548E+01  0.79309610943E+01  0.72461596236E+02  0.70000033794E+02 0.  0.
        -12    1    1    2    0    0  0.14495718786E+02 -0.88120480548E+01 -0.79309610943E+01  0.18726403764E+02  0.00000000000E+00 0.  1.
         11    1    3    3    0    0 -0.21676914525E+01 -0.10839496726E+02  0.37837817314E+01  0.11683774217E+02  0.51100000000E-03 0. -1.
        -11    1    3    3    0    0  0.95342327051E+01  0.26780313204E+01 -0.21104021115E+02  0.23312081685E+02  0.51100000000E-03 0.  1.
         12    1    3    3    0    0 -0.21862260039E+02  0.16973513461E+02  0.25251200478E+02  0.37465740334E+02  0.00000000000E+00 0. -1.
</event>
<event>
 7    1  0.3758561E-013  0.7246160E+02  0.7816164E-02  0.1226708E+00
        -11   -1    0    0    0    0  0.00000000000E+00  0.00000000000E+00  0.45593999997E+02  0.45594000000E+02  0.51100000000E-03 0.  1.
         11   -1    0    0    0    0 -0.00000000000E+00 -0.00000000000E+00 -0.45593999997E+02  0.45594000000E+02  0.51100000000E-03 0. -1.
    9900012    2    1    2    0    0 -0.49992112076E+01  0.30992324702E+01 -0.17778657426E+02  0.72461601135E+02  0.70000040175E+02 0.  0.
        -12    1    1    2    0    0  0.49992112076E+01 -0.30992324702E+01  0.17778657426E+02  0.18726398865E+02  0.00000000000E+00 0.  1.
         11    1    3    3    0    0  0.18129205152E+02  0.53770605651E+01  0.41894545682E+01  0.19368334714E+02  0.51100000000E-03 0. -1.
        -11    1    3    3    0    0  0.43629527301E+01 -0.63001318128E+01  0.87784924902E+01  0.11652851498E+02  0.51100000000E-03 0.  1.
         12    1    3    3    0    0 -0.27491369090E+02  0.40223037179E+01 -0.30746604484E+02  0.41440414922E+02  0.00000000000E+00 0. -1.
</event>
<event>
 7    1  0.3758561E-013  0.7246160E+02  0.7816164E-02  0.1226708E+00
        -11   -1    0    0    0    0  0.00000000000E+00  0.00000000000E+00  0.45593999997E+02  0.45594000000E+02  0.51100000000E-03 0.  1.
         11   -1    0    0    0    0 -0.00000000000E+00 -0.00000000000E+00 -0.45593999997E+02  0.45594000000E+02  0.51100000000E-03 0. -1.
    9900012    2    1    2    0    0 -0.16113735245E+02 -0.93018185826E+01 -0.21217687011E+01  0.72461596317E+02  0.70000033899E+02 0.  0.
        -12    1    1    2    0    0  0.16113735245E+02  0.93018185826E+01  0.21217687011E+01  0.18726403683E+02  0.00000000000E+00 0.  1.
         11    1    3    3    0    0 -0.26108792430E+02 -0.22324705255E+02 -0.18442058987E+02  0.38989370947E+02  0.51100000000E-03 0. -1.
        -11    1    3    3    0    0 -0.10093191822E+01 -0.62229110781E+01  0.68005817608E+00  0.63408064851E+01  0.51100000000E-03 0.  1.
        -12    1    3    3    0    0  0.11004376368E+02  0.19245797750E+02  0.15640232110E+02  0.27131418885E+02  0.00000000000E+00 0.  1.
</event>
<event>
 7    1  0.3758561E-013  0.7246156E+02  0.7816164E-02  0.1226708E+00
        -11   -1    0    0    0    0  0.00000000000E+00  0.00000000000E+00  0.45593999997E+02  0.45594000000E+02  0.51100000000E-03 0.  1.
         11   -1    0    0    0    0 -0.00000000000E+00 -0.00000000000E+00 -0.45593999997E+02  0.45594000000E+02  0.51100000000E-03 0. -1.
    9900012    2    1    2    0    0  0.46322175500E+01  0.59727604223E+01 -0.17133247707E+02  0.72461561911E+02  0.69999989079E+02 0.  0.
        -12    1    1    2    0    0 -0.46322175500E+01 -0.59727604223E+01  0.17133247707E+02  0.18726438089E+02  0.00000000000E+00 0.  1.
         11    1    3    3    0    0 -0.75820321801E+01  0.25739286472E+01 -0.42728878245E+01  0.90757859870E+01  0.51100000000E-03 0. -1.
        -11    1    3    3    0    0 -0.67401410239E+01 -0.19187230030E+02  0.13024820181E+02  0.24150056692E+02  0.51100000000E-03 0.  1.
         12    1    3    3    0    0  0.18954390754E+02  0.22586061805E+02 -0.25885180063E+02  0.39235719232E+02  0.00000000000E+00 0. -1.
</event>
<event>
 7    1  0.3758561E-013  0.7246159E+02  0.7816164E-02  0.1226708E+00
        -11   -1    0    0    0    0  0.00000000000E+00  0.00000000000E+00  0.45593999997E+02  0.45594000000E+02  0.51100000000E-03 0.  1.
         11   -1    0    0    0    0 -0.00000000000E+00 -0.00000000000E+00 -0.45593999997E+02  0.45594000000E+02  0.51100000000E-03 0. -1.
    9900012    2    1    2    0    0 -0.14101801733E+02  0.12120435288E+02 -0.22164398498E+01  0.72461591660E+02  0.70000027833E+02 0.  0.
        -12    1    1    2    0    0  0.14101801733E+02 -0.12120435288E+02  0.22164398498E+01  0.18726408340E+02  0.00000000000E+00 0.  1.
         11    1    3    3    0    0 -0.23086385344E+01 -0.10837708986E+02  0.42984329139E+01  0.11885380672E+02  0.51100000000E-03 0. -1.
        -11    1    3    3    0    0 -0.19647981467E+01 -0.17927946588E+02 -0.76956385056E-01  0.18035454615E+02  0.51100000000E-03 0.  1.
         12    1    3    3    0    0 -0.98283650521E+01  0.40886090862E+02 -0.64379163786E+01  0.42540756374E+02  0.00000000000E+00 0. -1.
</event>
<event>
 7    1  0.3758561E-013  0.7246153E+02  0.7816164E-02  0.1226708E+00
        -11   -1    0    0    0    0  0.00000000000E+00  0.00000000000E+00  0.45593999997E+02  0.45594000000E+02  0.51100000000E-03 0. -1.
         11   -1    0    0    0    0 -0.00000000000E+00 -0.00000000000E+00 -0.45593999997E+02  0.45594000000E+02  0.51100000000E-03 0.  1.
    9900012    2    1    2    0    0  0.18633787139E+02 -0.17625527209E+01 -0.59656916313E+00  0.72461534503E+02  0.69999953376E+02 0.  0.
        -12    1    1    2    0    0 -0.18633787139E+02  0.17625527209E+01  0.59656916313E+00  0.18726465497E+02  0.00000000000E+00 0.  1.
         11    1    3    3    0    0 -0.68354967709E+01  0.52896441923E+00 -0.13788020970E+01  0.69932049123E+01  0.51100000000E-03 0. -1.
        -11    1    3    3    0    0 -0.15829067686E+02 -0.15035601815E+02  0.37290735177E+01  0.22148017864E+02  0.51100000000E-03 0.  1.
         12    1    3    3    0    0  0.41298351596E+02  0.12744084675E+02 -0.29468405839E+01  0.43320311727E+02  0.00000000000E+00 0. -1.
</event>
<event>
 7    1  0.3758561E-013  0.7246158E+02  0.7816164E-02  0.1226708E+00
        -11   -1    0    0    0    0  0.00000000000E+00  0.00000000000E+00  0.45593999997E+02  0.45594000000E+02  0.51100000000E-03 0. -1.
         11   -1    0    0    0    0 -0.00000000000E+00 -0.00000000000E+00 -0.45593999997E+02  0.45594000000E+02  0.51100000000E-03 0.  1.
    9900012    2    1    2    0    0  0.10925312330E+02  0.12504576832E+02  0.86574748920E+01  0.72461581155E+02  0.70000014147E+02 0.  0.
        -12    1    1    2    0    0 -0.10925312330E+02 -0.12504576832E+02 -0.86574748920E+01  0.18726418845E+02  0.00000000000E+00 0.  1.
         11    1    3    3    0    0  0.16345534837E+02  0.15625387925E+02  0.25956028053E+02  0.34424477476E+02  0.51100000000E-03 0. -1.
        -11    1    3    3    0    0 -0.97676007335E+01 -0.13709458036E+02  0.54018836154E+00  0.16841824944E+02  0.51100000000E-03 0.  1.
         12    1    3    3    0    0  0.43473782266E+01  0.10588646943E+02 -0.17838741523E+02  0.21195278735E+02  0.00000000000E+00 0. -1.
</event>
<event>
 7    1  0.3758561E-013  0.7246154E+02  0.7816164E-02  0.1226708E+00
        -11   -1    0    0    0    0  0.00000000000E+00  0.00000000000E+00  0.45593999997E+02  0.45594000000E+02  0.51100000000E-03 0.  1.
         11   -1    0    0    0    0 -0.00000000000E+00 -0.00000000000E+00 -0.45593999997E+02  0.45594000000E+02  0.51100000000E-03 0. -1.
    9900012    2    1    2    0    0 -0.52223256066E+00  0.18550292166E+02  0.25088304121E+01  0.72461540209E+02  0.69999960808E+02 0.  0.
        -12    1    1    2    0    0  0.52223256066E+00 -0.18550292166E+02 -0.25088304121E+01  0.18726459791E+02  0.00000000000E+00 0.  1.
         11    1    3    3    0    0 -0.17096858879E+02  0.17900690909E+02 -0.55614201290E+01  0.25370587550E+02  0.51100000000E-03 0. -1.
        -11    1    3    3    0    0 -0.74963323840E+01 -0.74511677502E+01 -0.11057289319E+02  0.15296357324E+02  0.51100000000E-03 0.  1.
         12    1    3    3    0    0  0.24070958702E+02  0.81007690069E+01  0.19127539860E+02  0.31794595334E+02  0.00000000000E+00 0. -1.
</event>
<event>
 7    1  0.3758561E-013  0.7246165E+02  0.7816164E-02  0.1226708E+00
        -11   -1    0    0    0    0  0.00000000000E+00  0.00000000000E+00  0.45593999997E+02  0.45594000000E+02  0.51100000000E-03 0.  1.
         11   -1    0    0    0    0 -0.00000000000E+00 -0.00000000000E+00 -0.45593999997E+02  0.45594000000E+02  0.51100000000E-03 0. -1.
    9900012    2    1    2    0    0  0.26205439799E+01 -0.14239585866E+02 -0.11876165448E+02  0.72461645252E+02  0.70000097647E+02 0.  0.
        -12    1    1    2    0    0 -0.26205439799E+01  0.14239585866E+02  0.11876165448E+02  0.18726354748E+02  0.00000000000E+00 0.  1.
         11    1    3    3    0    0 -0.10175800666E+02  0.12499687324E+02 -0.23007960650E+02  0.28091909083E+02  0.51100000000E-03 0. -1.
        -11    1    3    3    0    0 -0.94310121238E+01 -0.19072468178E+01  0.26615099355E+01  0.99832467415E+01  0.51100000000E-03 0.  1.
         12    1    3    3    0    0  0.22227356769E+02 -0.24832026372E+02  0.84702852665E+01  0.34386489428E+02  0.00000000000E+00 0. -1.
</event>
<event>
 7    1  0.3758561E-013  0.7246157E+02  0.7816164E-02  0.1226708E+00
        -11   -1    0    0    0    0  0.00000000000E+00  0.00000000000E+00  0.45593999997E+02  0.45594000000E+02  0.51100000000E-03 0. -1.
         11   -1    0    0    0    0 -0.00000000000E+00 -0.00000000000E+00 -0.45593999997E+02  0.45594000000E+02  0.51100000000E-03 0.  1.
    9900012    2    1    2    0    0 -0.30277148777E+01 -0.12814538183E+02  0.13315388844E+02  0.72461574118E+02  0.70000004981E+02 0.  0.
        -12    1    1    2    0    0  0.30277148777E+01  0.12814538183E+02 -0.13315388844E+02  0.18726425882E+02  0.00000000000E+00 0.  1.
         11    1    3    3    0    0  0.89284606377E+01  0.12246793694E+02  0.16618465242E+02  0.22491659619E+02  0.51100000000E-03 0. -1.
        -11    1    3    3    0    0  0.73524548351E+01  0.30393733097E+01 -0.12353849323E+02  0.14694011555E+02  0.51100000000E-03 0.  1.
         12    1    3    3    0    0 -0.19308630350E+02 -0.28100705187E+02  0.90507729252E+01  0.35275902944E+02  0.00000000000E+00 0. -1.
</event>
<event>
 7    1  0.3758561E-013  0.7246161E+02  0.7816164E-02  0.1226708E+00
        -11   -1    0    0    0    0  0.00000000000E+00  0.00000000000E+00  0.45593999997E+02  0.45594000000E+02  0.51100000000E-03 0.  1.
         11   -1    0    0    0    0 -0.00000000000E+00 -0.00000000000E+00 -0.45593999997E+02  0.45594000000E+02  0.51100000000E-03 0. -1.
    9900012    2    1    2    0    0 -0.14748878001E+02  0.54785482959E+01 -0.10155482224E+02  0.72461609186E+02  0.70000050664E+02 0.  0.
        -12    1    1    2    0    0  0.14748878001E+02 -0.54785482959E+01  0.10155482224E+02  0.18726390814E+02  0.00000000000E+00 0.  1.
         11    1    3    3    0    0 -0.24090257841E+02  0.16205373727E+02 -0.97729846146E+01  0.30634390626E+02  0.51100000000E-03 0. -1.
        -11    1    3    3    0    0 -0.84253437883E+01  0.10125921366E+02 -0.49147378867E+01  0.14059706619E+02  0.51100000000E-03 0.  1.
        -12    1    3    3    0    0  0.17766723629E+02 -0.20852746797E+02  0.45322402776E+01  0.27767511941E+02  0.00000000000E+00 0.  1.
</event>
<event>
 7    1  0.3758561E-013  0.7246159E+02  0.7816164E-02  0.1226708E+00
        -11   -1    0    0    0    0  0.00000000000E+00  0.00000000000E+00  0.45593999997E+02  0.45594000000E+02  0.51100000000E-03 0. -1.
         11   -1    0    0    0    0 -0.00000000000E+00 -0.00000000000E+00 -0.45593999997E+02  0.45594000000E+02  0.51100000000E-03 0.  1.
    9900012    2    1    2    0    0  0.12539383795E+02  0.13802566622E+02 -0.17121116593E+01  0.72461593039E+02  0.70000029630E+02 0.  0.
        -12    1    1    2    0    0 -0.12539383795E+02 -0.13802566622E+02  0.17121116593E+01  0.18726406961E+02  0.00000000000E+00 0.  1.
         11    1    3    3    0    0 -0.19397400186E+01 -0.12326946552E+01 -0.18570319544E+02  0.18711998709E+02  0.51100000000E-03 0. -1.
        -11    1    3    3    0    0 -0.36872765292E+00  0.11329892205E+02 -0.14767050347E+02  0.18616342113E+02  0.51100000000E-03 0.  1.
         12    1    3    3    0    0  0.14847851466E+02  0.37053690727E+01  0.31625258232E+02  0.35133252217E+02  0.00000000000E+00 0. -1.
</event>
<event>
 7    1  0.3758561E-013  0.7246154E+02  0.7816164E-02  0.1226708E+00
        -11   -1    0    0    0    0  0.00000000000E+00  0.00000000000E+00  0.45593999997E+02  0.45594000000E+02  0.51100000000E-03 0.  1.
         11   -1    0    0    0    0 -0.00000000000E+00 -0.00000000000E+00 -0.45593999997E+02  0.45594000000E+02  0.51100000000E-03 0. -1.
    9900012    2    1    2    0    0 -0.89147419126E+01 -0.16179136442E+02  0.30730023171E+01  0.72461536836E+02  0.69999956415E+02 0.  0.
        -12    1    1    2    0    0  0.89147419126E+01  0.16179136442E+02 -0.30730023171E+01  0.18726463164E+02  0.00000000000E+00 0.  1.
         11    1    3    3    0    0 -0.36713452692E+01  0.11177006453E+02  0.43004940312E+01  0.12525913081E+02  0.51100000000E-03 0. -1.
        -11    1    3    3    0    0  0.13289693917E+02  0.28059486054E+01  0.15645820908E+02  0.20719098053E+02  0.51100000000E-03 0.  1.
        -12    1    3    3    0    0 -0.18533090560E+02 -0.30162091500E+02 -0.16873312622E+02  0.39216525703E+02  0.00000000000E+00 0.  1.
</event>
<event>
 7    1  0.3758561E-013  0.7246161E+02  0.7816164E-02  0.1226708E+00
        -11   -1    0    0    0    0  0.00000000000E+00  0.00000000000E+00  0.45593999997E+02  0.45594000000E+02  0.51100000000E-03 0.  1.
         11   -1    0    0    0    0 -0.00000000000E+00 -0.00000000000E+00 -0.45593999997E+02  0.45594000000E+02  0.51100000000E-03 0. -1.
    9900012    2    1    2    0    0  0.12547891100E+02  0.13900645367E+02 -0.14406049752E-01  0.72461608991E+02  0.70000050409E+02 0.  0.
        -12    1    1    2    0    0 -0.12547891100E+02 -0.13900645367E+02  0.14406049752E-01  0.18726391009E+02  0.00000000000E+00 0.  1.
         11    1    3    3    0    0  0.10338686407E+02 -0.10672986165E+02  0.36576748796E+01  0.15302929657E+02  0.51100000000E-03 0. -1.
        -11    1    3    3    0    0  0.21146914091E+02  0.18445188910E+02  0.13251007536E+02  0.31032340719E+02  0.51100000000E-03 0.  1.
         12    1    3    3    0    0 -0.18937709399E+02  0.61284426226E+01 -0.16923088465E+02  0.26126338615E+02  0.00000000000E+00 0. -1.
</event>
<event>
 7    1  0.3758561E-013  0.7246157E+02  0.7816164E-02  0.1226708E+00
        -11   -1    0    0    0    0  0.00000000000E+00  0.00000000000E+00  0.45593999997E+02  0.45594000000E+02  0.51100000000E-03 0.  1.
         11   -1    0    0    0    0 -0.00000000000E+00 -0.00000000000E+00 -0.45593999997E+02  0.45594000000E+02  0.51100000000E-03 0. -1.
    9900012    2    1    2    0    0 -0.11780936586E+02 -0.52910940198E+01 -0.13560714274E+02  0.72461571766E+02  0.70000001918E+02 0.  0.
        -12    1    1    2    0    0  0.11780936586E+02  0.52910940198E+01  0.13560714274E+02  0.18726428234E+02  0.00000000000E+00 0.  1.
         11    1    3    3    0    0  0.37927517564E+01 -0.45142593537E+01 -0.38248631314E+01  0.70280211748E+01  0.51100000000E-03 0.  1.
        -11    1    3    3    0    0 -0.65997226502E+01 -0.13833413220E+01 -0.36541847843E+02  0.37158802676E+02  0.51100000000E-03 0. -1.
        -12    1    3    3    0    0 -0.89739656924E+01  0.60650665597E+00  0.26805996701E+02  0.28274747916E+02  0.00000000000E+00 0.  1.
</event>
<event>
 7    1  0.3758561E-013  0.7246161E+02  0.7816164E-02  0.1226708E+00
        -11   -1    0    0    0    0  0.00000000000E+00  0.00000000000E+00  0.45593999997E+02  0.45594000000E+02  0.51100000000E-03 0. -1.
         11   -1    0    0    0    0 -0.00000000000E+00 -0.00000000000E+00 -0.45593999997E+02  0.45594000000E+02  0.51100000000E-03 0.  1.
    9900012    2    1    2    0    0 -0.17202624062E+02 -0.17521284826E+00  0.73970741407E+01  0.72461610064E+02  0.70000051808E+02 0.  0.
        -12    1    1    2    0    0  0.17202624062E+02  0.17521284826E+00 -0.73970741407E+01  0.18726389936E+02  0.00000000000E+00 0.  1.
         11    1    3    3    0    0 -0.62677444984E+01  0.34406789283E+00 -0.23707430159E+01  0.67099498150E+01  0.51100000000E-03 0. -1.
        -11    1    3    3    0    0 -0.12869045681E+02  0.10422329737E+02 -0.24587471484E+02  0.29644241399E+02  0.51100000000E-03 0.  1.
         12    1    3    3    0    0  0.19341661167E+01 -0.10941610478E+02  0.34355288641E+02  0.36107418850E+02  0.00000000000E+00 0. -1.
</event>
<event>
 7    1  0.3758561E-013  0.7246159E+02  0.7816164E-02  0.1226708E+00
        -11   -1    0    0    0    0  0.00000000000E+00  0.00000000000E+00  0.45593999997E+02  0.45594000000E+02  0.51100000000E-03 0. -1.
         11   -1    0    0    0    0 -0.00000000000E+00 -0.00000000000E+00 -0.45593999997E+02  0.45594000000E+02  0.51100000000E-03 0.  1.
    9900012    2    1    2    0    0  0.44324204785E+01 -0.16504049726E+02  0.76582149018E+01  0.72461594468E+02  0.70000031491E+02 0.  0.
        -12    1    1    2    0    0 -0.44324204785E+01  0.16504049726E+02 -0.76582149018E+01  0.18726405532E+02  0.00000000000E+00 0.  1.
         11    1    3    3    0    0  0.31323171378E+02 -0.58440240537E+01 -0.16205498621E+00  0.31864085495E+02  0.51100000000E-03 0. -1.
        -11    1    3    3    0    0  0.32700915007E+01  0.39373007711E+01  0.46934051580E+01  0.69443421591E+01  0.51100000000E-03 0.  1.
        -12    1    3    3    0    0 -0.30160842401E+02 -0.14597326443E+02  0.31268647300E+01  0.33653166815E+02  0.00000000000E+00 0.  1.
</event>
<event>
 7    1  0.3758561E-013  0.7246157E+02  0.7816164E-02  0.1226708E+00
        -11   -1    0    0    0    0  0.00000000000E+00  0.00000000000E+00  0.45593999997E+02  0.45594000000E+02  0.51100000000E-03 0.  1.
         11   -1    0    0    0    0 -0.00000000000E+00 -0.00000000000E+00 -0.45593999997E+02  0.45594000000E+02  0.51100000000E-03 0. -1.
    9900012    2    1    2    0    0 -0.41695648141E+01 -0.11245554954E+02 -0.14381636620E+02  0.72461568177E+02  0.69999997242E+02 0.  0.
        -12    1    1    2    0    0  0.41695648141E+01  0.11245554954E+02  0.14381636620E+02  0.18726431823E+02  0.00000000000E+00 0.  1.
         11    1    3    3    0    0  0.58310597452E+01 -0.12832183505E+02 -0.22490744797E+02  0.26542414982E+02  0.51100000000E-03 0. -1.
        -11    1    3    3    0    0 -0.14965367249E+02 -0.18877442921E+02  0.54027265733E+01  0.24688246654E+02  0.51100000000E-03 0.  1.
         12    1    3    3    0    0  0.49647426898E+01  0.20464071472E+02  0.27063816043E+01  0.21230906542E+02  0.00000000000E+00 0. -1.
</event>
<event>
 7    1  0.3895008E-013  0.7246170E+02  0.7816164E-02  0.1226708E+00
        -11   -1    0    0    0    0  0.00000000000E+00  0.00000000000E+00  0.45593999997E+02  0.45594000000E+02  0.51100000000E-03 0. -1.
         11   -1    0    0    0    0 -0.00000000000E+00 -0.00000000000E+00 -0.45593999997E+02  0.45594000000E+02  0.51100000000E-03 0.  1.
    9900012    2    1    2    0    0  0.87266685232E+01  0.47455904418E+01  0.15874471890E+02  0.72461702182E+02  0.70000171809E+02 0.  0.
        -12    1    1    2    0    0 -0.87266685232E+01 -0.47455904418E+01 -0.15874471890E+02  0.18726297818E+02  0.00000000000E+00 0.  1.
         11    1    3    3    0    0  0.11347348703E+02  0.58776804801E+01 -0.34356119751E+01  0.13233022343E+02  0.51100000000E-03 0. -1.
        -11    1    3    3    0    0  0.98204109891E+01  0.51935811890E+01 -0.17011643503E+02  0.20317720652E+02  0.51100000000E-03 0.  1.
         12    1    3    3    0    0 -0.12441091169E+02 -0.63256712273E+01  0.36321727368E+02  0.38910959188E+02  0.00000000000E+00 0. -1.
</event>
<event>
 7    1  0.3758561E-013  0.7246157E+02  0.7816164E-02  0.1226708E+00
        -11   -1    0    0    0    0  0.00000000000E+00  0.00000000000E+00  0.45593999997E+02  0.45594000000E+02  0.51100000000E-03 0. -1.
         11   -1    0    0    0    0 -0.00000000000E+00 -0.00000000000E+00 -0.45593999997E+02  0.45594000000E+02  0.51100000000E-03 0.  1.
    9900012    2    1    2    0    0  0.18646534119E+01 -0.38408598855E+01  0.18233217046E+02  0.72461565720E+02  0.69999994041E+02 0.  0.
        -12    1    1    2    0    0 -0.18646534119E+01  0.38408598855E+01 -0.18233217046E+02  0.18726434280E+02  0.00000000000E+00 0.  1.
         11    1    3    3    0    0  0.18246424859E+02 -0.95773232057E+01  0.46646348604E+01  0.21128557891E+02  0.51100000000E-03 0. -1.
        -11    1    3    3    0    0  0.69976422348E+01 -0.15069050479E+02 -0.13370583113E+01  0.16668263388E+02  0.51100000000E-03 0.  1.
        -12    1    3    3    0    0 -0.23379413682E+02  0.20805513799E+02  0.14905640497E+02  0.34664744441E+02  0.00000000000E+00 0.  1.
</event>
<event>
 7    1  0.3758561E-013  0.7246158E+02  0.7816164E-02  0.1226708E+00
        -11   -1    0    0    0    0  0.00000000000E+00  0.00000000000E+00  0.45593999997E+02  0.45594000000E+02  0.51100000000E-03 0. -1.
         11   -1    0    0    0    0 -0.00000000000E+00 -0.00000000000E+00 -0.45593999997E+02  0.45594000000E+02  0.51100000000E-03 0.  1.
    9900012    2    1    2    0    0 -0.12975027214E+02 -0.36561994194E+01  0.12998453042E+02  0.72461577307E+02  0.70000009135E+02 0.  0.
        -12    1    1    2    0    0  0.12975027214E+02  0.36561994194E+01 -0.12998453042E+02  0.18726422693E+02  0.00000000000E+00 0.  1.
         11    1    3    3    0    0  0.11984570611E+02 -0.12646312446E+02  0.13513303294E+01  0.17475275252E+02  0.51100000000E-03 0. -1.
        -11    1    3    3    0    0  0.99062358198E+01 -0.41656187152E+01 -0.74854735020E+01  0.13096495761E+02  0.51100000000E-03 0.  1.
         12    1    3    3    0    0 -0.34865833645E+02  0.13155731742E+02  0.19132596215E+02  0.41889806294E+02  0.00000000000E+00 0. -1.
</event>
<event>
 7    1  0.3758561E-013  0.7246152E+02  0.7816164E-02  0.1226708E+00
        -11   -1    0    0    0    0  0.00000000000E+00  0.00000000000E+00  0.45593999997E+02  0.45594000000E+02  0.51100000000E-03 0.  1.
         11   -1    0    0    0    0 -0.00000000000E+00 -0.00000000000E+00 -0.45593999997E+02  0.45594000000E+02  0.51100000000E-03 0. -1.
    9900012    2    1    2    0    0  0.12666191252E+02 -0.86061611624E+01 -0.10778801488E+02  0.72461522160E+02  0.69999937296E+02 0.  0.
        -12    1    1    2    0    0 -0.12666191252E+02  0.86061611624E+01  0.10778801488E+02  0.18726477840E+02  0.00000000000E+00 0.  1.
         11    1    3    3    0    0  0.51721309659E+01 -0.13100085943E+01  0.12007147599E+02  0.13139202981E+02  0.51100000000E-03 0. -1.
        -11    1    3    3    0    0 -0.13328945089E+02  0.59443746071E+01  0.10433768596E+02  0.17940454121E+02  0.51100000000E-03 0.  1.
         12    1    3    3    0    0  0.20823005376E+02 -0.13240527175E+02 -0.33219717683E+02  0.41381865058E+02  0.00000000000E+00 0. -1.
</event>
<event>
 7    1  0.3758561E-013  0.7246153E+02  0.7816164E-02  0.1226708E+00
        -11   -1    0    0    0    0  0.00000000000E+00  0.00000000000E+00  0.45593999997E+02  0.45594000000E+02  0.51100000000E-03 0.  1.
         11   -1    0    0    0    0 -0.00000000000E+00 -0.00000000000E+00 -0.45593999997E+02  0.45594000000E+02  0.51100000000E-03 0. -1.
    9900012    2    1    2    0    0  0.90106592803E+01 -0.19007940835E+01 -0.16305696754E+02  0.72461528217E+02  0.69999945186E+02 0.  0.
        -12    1    1    2    0    0 -0.90106592803E+01  0.19007940835E+01  0.16305696754E+02  0.18726471783E+02  0.00000000000E+00 0.  1.
         11    1    3    3    0    0 -0.12596973322E+02 -0.12279056431E+02  0.18308053054E+02  0.25389835970E+02  0.51100000000E-03 0. -1.
        -11    1    3    3    0    0  0.22052150299E+01 -0.20252242829E+01  0.21535424728E+01  0.36881231225E+01  0.51100000000E-03 0.  1.
         12    1    3    3    0    0  0.19402417572E+02  0.12403486630E+02 -0.36767292281E+02  0.43383569124E+02  0.00000000000E+00 0. -1.
</event>
<event>
 7    1  0.3758561E-013  0.7246149E+02  0.7816164E-02  0.1226708E+00
        -11   -1    0    0    0    0  0.00000000000E+00  0.00000000000E+00  0.45593999997E+02  0.45594000000E+02  0.51100000000E-03 0.  1.
         11   -1    0    0    0    0 -0.00000000000E+00 -0.00000000000E+00 -0.45593999997E+02  0.45594000000E+02  0.51100000000E-03 0. -1.
    9900012    2    1    2    0    0  0.54459441624E+01  0.16860358707E+02 -0.60623664650E+01  0.72461486958E+02  0.69999891439E+02 0.  0.
        -12    1    1    2    0    0 -0.54459441624E+01 -0.16860358707E+02  0.60623664650E+01  0.18726513042E+02  0.00000000000E+00 0.  1.
         11    1    3    3    0    0  0.35503482120E+00 -0.17853525556E+02 -0.43529099597E+01  0.18379941509E+02  0.51100000000E-03 0.  1.
        -11    1    3    3    0    0 -0.48214862699E+01  0.17257769784E+02 -0.20050326993E+02  0.26890387884E+02  0.51100000000E-03 0. -1.
        -12    1    3    3    0    0  0.99123956111E+01  0.17456114479E+02  0.18340870488E+02  0.27191157565E+02  0.00000000000E+00 0.  1.
</event>
<event>
 7    1  0.3758561E-013  0.7246145E+02  0.7816164E-02  0.1226708E+00
        -11   -1    0    0    0    0  0.00000000000E+00  0.00000000000E+00  0.45593999997E+02  0.45594000000E+02  0.51100000000E-03 0.  1.
         11   -1    0    0    0    0 -0.00000000000E+00 -0.00000000000E+00 -0.45593999997E+02  0.45594000000E+02  0.51100000000E-03 0. -1.
    9900012    2    1    2    0    0 -0.77918636068E+01 -0.17021504818E+02 -0.48870241925E+00  0.72461452139E+02  0.69999846081E+02 0.  0.
        -12    1    1    2    0    0  0.77918636068E+01  0.17021504818E+02  0.48870241925E+00  0.18726547861E+02  0.00000000000E+00 0.  1.
         11    1    3    3    0    0  0.11728393155E+02  0.90888196824E-01  0.12040949839E+02  0.16809162381E+02  0.51100000000E-03 0.  1.
        -11    1    3    3    0    0  0.15675330665E+02 -0.48141705300E+01 -0.75016793375E+01  0.18032399244E+02  0.51100000000E-03 0. -1.
         12    1    3    3    0    0 -0.35195587427E+02 -0.12298222485E+02 -0.50279729208E+01  0.37619890514E+02  0.00000000000E+00 0. -1.
</event>
<event>
 7    1  0.3758561E-013  0.7246154E+02  0.7816164E-02  0.1226708E+00
        -11   -1    0    0    0    0  0.00000000000E+00  0.00000000000E+00  0.45593999997E+02  0.45594000000E+02  0.51100000000E-03 0. -1.
         11   -1    0    0    0    0 -0.00000000000E+00 -0.00000000000E+00 -0.45593999997E+02  0.45594000000E+02  0.51100000000E-03 0.  1.
    9900012    2    1    2    0    0  0.12669474625E+02 -0.13177105056E+02 -0.40655305250E+01  0.72461542156E+02  0.69999963344E+02 0.  0.
        -12    1    1    2    0    0 -0.12669474625E+02  0.13177105056E+02  0.40655305250E+01  0.18726457844E+02  0.00000000000E+00 0.  1.
         11    1    3    3    0    0  0.37525782617E+01 -0.68136953668E+01  0.15240530028E+02  0.17110875021E+02  0.51100000000E-03 0. -1.
        -11    1    3    3    0    0 -0.17083351755E+02  0.85289862279E+01  0.10563145211E+01  0.19123292443E+02  0.51100000000E-03 0.  1.
         12    1    3    3    0    0  0.26000248118E+02 -0.14892395917E+02 -0.20362375074E+02  0.36227374692E+02  0.00000000000E+00 0. -1.
</event>
<event>
 7    1  0.3758561E-013  0.7246160E+02  0.7816164E-02  0.1226708E+00
        -11   -1    0    0    0    0  0.00000000000E+00  0.00000000000E+00  0.45593999997E+02  0.45594000000E+02  0.51100000000E-03 0.  1.
         11   -1    0    0    0    0 -0.00000000000E+00 -0.00000000000E+00 -0.45593999997E+02  0.45594000000E+02  0.51100000000E-03 0. -1.
    9900012    2    1    2    0    0 -0.67517384066E+01 -0.18813912490E+01 -0.17365263432E+02  0.72461602092E+02  0.70000041422E+02 0.  0.
        -12    1    1    2    0    0  0.67517384066E+01  0.18813912490E+01  0.17365263432E+02  0.18726397908E+02  0.00000000000E+00 0.  1.
         11    1    3    3    0    0 -0.33721606429E+01 -0.26284741098E+02 -0.10294353943E+02  0.28429435544E+02  0.51100000000E-03 0. -1.
        -11    1    3    3    0    0 -0.31511085439E+01 -0.66473944983E+01  0.68050129150E+01  0.10021254398E+02  0.51100000000E-03 0.  1.
        -12    1    3    3    0    0 -0.22846921978E+00  0.31050744347E+02 -0.13875922404E+02  0.34010912150E+02  0.00000000000E+00 0.  1.
</event>
<event>
 7    1  0.3758561E-013  0.7246162E+02  0.7816164E-02  0.1226708E+00
        -11   -1    0    0    0    0  0.00000000000E+00  0.00000000000E+00  0.45593999997E+02  0.45594000000E+02  0.51100000000E-03 0.  1.
         11   -1    0    0    0    0 -0.00000000000E+00 -0.00000000000E+00 -0.45593999997E+02  0.45594000000E+02  0.51100000000E-03 0. -1.
    9900012    2    1    2    0    0 -0.17983932597E+02 -0.67265768246E+00 -0.51771794967E+01  0.72461615204E+02  0.70000058503E+02 0.  0.
        -12    1    1    2    0    0  0.17983932597E+02  0.67265768246E+00  0.51771794967E+01  0.18726384796E+02  0.00000000000E+00 0.  1.
         11    1    3    3    0    0  0.91176538561E+01 -0.22925444701E+02 -0.51648043639E+01  0.25206801284E+02  0.51100000000E-03 0. -1.
        -11    1    3    3    0    0 -0.47553374722E+01  0.47230243328E+01 -0.14055078835E+02  0.15571301636E+02  0.51100000000E-03 0.  1.
        -12    1    3    3    0    0 -0.22346248980E+02  0.17529762686E+02  0.14042703703E+02  0.31683512283E+02  0.00000000000E+00 0.  1.
</event>
<event>
 7    1  0.3758561E-013  0.7246159E+02  0.7816164E-02  0.1226708E+00
        -11   -1    0    0    0    0  0.00000000000E+00  0.00000000000E+00  0.45593999997E+02  0.45594000000E+02  0.51100000000E-03 0.  1.
         11   -1    0    0    0    0 -0.00000000000E+00 -0.00000000000E+00 -0.45593999997E+02  0.45594000000E+02  0.51100000000E-03 0. -1.
    9900012    2    1    2    0    0 -0.93729149088E+01  0.15523504232E+02 -0.46741692355E+01  0.72461586153E+02  0.70000020659E+02 0.  0.
        -12    1    1    2    0    0  0.93729149088E+01 -0.15523504232E+02  0.46741692355E+01  0.18726413847E+02  0.00000000000E+00 0.  1.
         11    1    3    3    0    0 -0.10286350458E+01  0.26291235264E+02 -0.15190174605E+02  0.30381384869E+02  0.51100000000E-03 0. -1.
        -11    1    3    3    0    0  0.13571612647E+02  0.39390973774E+01  0.16010962224E+01  0.14222118948E+02  0.51100000000E-03 0.  1.
         12    1    3    3    0    0 -0.21915892510E+02 -0.14706828409E+02  0.89149091468E+01  0.27858082336E+02  0.00000000000E+00 0. -1.
</event>
<event>
 7    1  0.3758561E-013  0.7246152E+02  0.7816164E-02  0.1226708E+00
        -11   -1    0    0    0    0  0.00000000000E+00  0.00000000000E+00  0.45593999997E+02  0.45594000000E+02  0.51100000000E-03 0.  1.
         11   -1    0    0    0    0 -0.00000000000E+00 -0.00000000000E+00 -0.45593999997E+02  0.45594000000E+02  0.51100000000E-03 0. -1.
    9900012    2    1    2    0    0 -0.18033568938E+01  0.12449811066E+02 -0.13871950450E+02  0.72461524065E+02  0.69999939777E+02 0.  0.
        -12    1    1    2    0    0  0.18033568938E+01 -0.12449811066E+02  0.13871950450E+02  0.18726475935E+02  0.00000000000E+00 0.  1.
         11    1    3    3    0    0  0.19077029299E+02 -0.24258351742E+01 -0.15258313799E+02  0.24548602066E+02  0.51100000000E-03 0. -1.
        -11    1    3    3    0    0  0.34684300368E+01  0.13702614583E+02 -0.13337728960E+02  0.19434162380E+02  0.51100000000E-03 0.  1.
        -12    1    3    3    0    0 -0.24348816229E+02  0.11730316573E+01  0.14724092310E+02  0.28478759618E+02  0.00000000000E+00 0.  1.
</event>
<event>
 7    1  0.3758561E-013  0.7246157E+02  0.7816164E-02  0.1226708E+00
        -11   -1    0    0    0    0  0.00000000000E+00  0.00000000000E+00  0.45593999997E+02  0.45594000000E+02  0.51100000000E-03 0.  1.
         11   -1    0    0    0    0 -0.00000000000E+00 -0.00000000000E+00 -0.45593999997E+02  0.45594000000E+02  0.51100000000E-03 0. -1.
    9900012    2    1    2    0    0  0.16442547482E+02  0.79871124435E+01 -0.40654499996E+01  0.72461569038E+02  0.69999998363E+02 0.  0.
        -12    1    1    2    0    0 -0.16442547482E+02 -0.79871124435E+01  0.40654499996E+01  0.18726430962E+02  0.00000000000E+00 0.  1.
         11    1    3    3    0    0  0.12599504088E+02 -0.14152278709E+02 -0.19861279865E+02  0.27450044336E+02  0.51100000000E-03 0. -1.
        -11    1    3    3    0    0  0.10394751179E+02 -0.63776708639E+01  0.10350490422E+01  0.12239152932E+02  0.51100000000E-03 0.  1.
        -12    1    3    3    0    0 -0.65517077848E+01  0.28517062016E+02  0.14760780823E+02  0.32772371770E+02  0.00000000000E+00 0.  1.
</event>
<event>
 7    1  0.3758561E-013  0.7246155E+02  0.7816164E-02  0.1226708E+00
        -11   -1    0    0    0    0  0.00000000000E+00  0.00000000000E+00  0.45593999997E+02  0.45594000000E+02  0.51100000000E-03 0.  1.
         11   -1    0    0    0    0 -0.00000000000E+00 -0.00000000000E+00 -0.45593999997E+02  0.45594000000E+02  0.51100000000E-03 0. -1.
    9900012    2    1    2    0    0  0.14152874758E+02  0.65877965231E+01 -0.10342960359E+02  0.72461554638E+02  0.69999979604E+02 0.  0.
        -12    1    1    2    0    0 -0.14152874758E+02 -0.65877965231E+01  0.10342960359E+02  0.18726445362E+02  0.00000000000E+00 0.  1.
         11    1    3    3    0    0 -0.95454970375E+01 -0.24170513434E+01 -0.12132630776E+02  0.15625600171E+02  0.51100000000E-03 0. -1.
        -11    1    3    3    0    0  0.21616459636E+02  0.26945799235E+01  0.24727975395E+02  0.32954587777E+02  0.51100000000E-03 0.  1.
         12    1    3    3    0    0  0.20819121595E+01  0.63102679430E+01 -0.22938304977E+02  0.23881366690E+02  0.00000000000E+00 0. -1.
</event>
<event>
 7    1  0.3758561E-013  0.7246152E+02  0.7816164E-02  0.1226708E+00
        -11   -1    0    0    0    0  0.00000000000E+00  0.00000000000E+00  0.45593999997E+02  0.45594000000E+02  0.51100000000E-03 0.  1.
         11   -1    0    0    0    0 -0.00000000000E+00 -0.00000000000E+00 -0.45593999997E+02  0.45594000000E+02  0.51100000000E-03 0. -1.
    9900012    2    1    2    0    0  0.69957937788E+01  0.56140301244E+01 -0.16438446896E+02  0.72461521388E+02  0.69999936291E+02 0.  0.
        -12    1    1    2    0    0 -0.69957937788E+01 -0.56140301244E+01  0.16438446896E+02  0.18726478612E+02  0.00000000000E+00 0.  1.
         11    1    3    3    0    0 -0.12944338849E+01 -0.22581918844E+01  0.36072467869E+01  0.44482827374E+01  0.51100000000E-03 0. -1.
        -11    1    3    3    0    0  0.93747319012E+01 -0.24554674973E+02  0.53360936287E+01  0.26819611420E+02  0.51100000000E-03 0.  1.
         12    1    3    3    0    0 -0.10845042375E+01  0.32426896982E+02 -0.25381787312E+02  0.41193627231E+02  0.00000000000E+00 0. -1.
</event>
<event>
 7    1  0.3758561E-013  0.7246156E+02  0.7816164E-02  0.1226708E+00
        -11   -1    0    0    0    0  0.00000000000E+00  0.00000000000E+00  0.45593999997E+02  0.45594000000E+02  0.51100000000E-03 0. -1.
         11   -1    0    0    0    0 -0.00000000000E+00 -0.00000000000E+00 -0.45593999997E+02  0.45594000000E+02  0.51100000000E-03 0.  1.
    9900012    2    1    2    0    0  0.45630300579E+01 -0.13921394901E+02  0.11664175887E+02  0.72461562047E+02  0.69999989256E+02 0.  0.
        -12    1    1    2    0    0 -0.45630300579E+01  0.13921394901E+02 -0.11664175887E+02  0.18726437953E+02  0.00000000000E+00 0.  1.
         11    1    3    3    0    0 -0.26731702184E+02 -0.16856550538E+01  0.17588266499E+02  0.32043290301E+02  0.51100000000E-03 0. -1.
        -11    1    3    3    0    0 -0.89789355520E+00  0.19975721812E+01 -0.47149273031E+01  0.51987543883E+01  0.51100000000E-03 0.  1.
        -12    1    3    3    0    0  0.32192625797E+02 -0.14233312028E+02 -0.12091633084E+01  0.35219517357E+02  0.00000000000E+00 0.  1.
</event>
<event>
 7    1  0.3758561E-013  0.7246152E+02  0.7816164E-02  0.1226708E+00
        -11   -1    0    0    0    0  0.00000000000E+00  0.00000000000E+00  0.45593999997E+02  0.45594000000E+02  0.51100000000E-03 0.  1.
         11   -1    0    0    0    0 -0.00000000000E+00 -0.00000000000E+00 -0.45593999997E+02  0.45594000000E+02  0.51100000000E-03 0. -1.
    9900012    2    1    2    0    0  0.81005339873E+01  0.16841174387E+02  0.11988417494E+01  0.72461520695E+02  0.69999935388E+02 0.  0.
        -12    1    1    2    0    0 -0.81005339873E+01 -0.16841174387E+02 -0.11988417494E+01  0.18726479305E+02  0.00000000000E+00 0.  1.
         11    1    3    3    0    0  0.77119624812E+01  0.14265736640E+02 -0.44271070670E+01  0.16810261284E+02  0.51100000000E-03 0. -1.
        -11    1    3    3    0    0 -0.56939505427E+01 -0.13596547839E+02 -0.19938391290E+02  0.24795697881E+02  0.51100000000E-03 0.  1.
         12    1    3    3    0    0  0.60825220488E+01  0.16171985585E+02  0.25564340106E+02  0.30855561530E+02  0.00000000000E+00 0. -1.
</event>
<event>
 7    1  0.3758561E-013  0.7246157E+02  0.7816164E-02  0.1226708E+00
        -11   -1    0    0    0    0  0.00000000000E+00  0.00000000000E+00  0.45593999997E+02  0.45594000000E+02  0.51100000000E-03 0.  1.
         11   -1    0    0    0    0 -0.00000000000E+00 -0.00000000000E+00 -0.45593999997E+02  0.45594000000E+02  0.51100000000E-03 0. -1.
    9900012    2    1    2    0    0 -0.12439780324E+02  0.99854532110E+01 -0.98092682807E+01  0.72461570694E+02  0.70000000521E+02 0.  0.
        -12    1    1    2    0    0  0.12439780324E+02 -0.99854532110E+01  0.98092682807E+01  0.18726429306E+02  0.00000000000E+00 0.  1.
         11    1    3    3    0    0  0.13365950553E+02 -0.42987789438E+01 -0.52871336992E+01  0.15002730338E+02  0.51100000000E-03 0.  1.
        -11    1    3    3    0    0  0.12153738104E+02  0.17836730535E+01 -0.11572932955E+02  0.16876836698E+02  0.51100000000E-03 0. -1.
        -12    1    3    3    0    0 -0.37959468981E+02  0.12500559101E+02  0.70507983739E+01  0.40582003658E+02  0.00000000000E+00 0.  1.
</event>
<event>
 7    1  0.3758561E-013  0.7246158E+02  0.7816164E-02  0.1226708E+00
        -11   -1    0    0    0    0  0.00000000000E+00  0.00000000000E+00  0.45593999997E+02  0.45594000000E+02  0.51100000000E-03 0. -1.
         11   -1    0    0    0    0 -0.00000000000E+00 -0.00000000000E+00 -0.45593999997E+02  0.45594000000E+02  0.51100000000E-03 0.  1.
    9900012    2    1    2    0    0  0.10799216170E+02  0.15290352530E+02  0.51066350717E+00  0.72461582094E+02  0.70000015371E+02 0.  0.
        -12    1    1    2    0    0 -0.10799216170E+02 -0.15290352530E+02 -0.51066350717E+00  0.18726417906E+02  0.00000000000E+00 0.  1.
         11    1    3    3    0    0 -0.19268128603E+01  0.33316938639E+00  0.34430100916E+01  0.39595363858E+01  0.51100000000E-03 0. -1.
        -11    1    3    3    0    0  0.20138706759E+02 -0.33024266191E+01  0.26274238456E+02  0.33268741158E+02  0.51100000000E-03 0.  1.
         12    1    3    3    0    0 -0.74126777292E+01  0.18259609763E+02 -0.29206585040E+02  0.35233304550E+02  0.00000000000E+00 0. -1.
</event>
<event>
 7    1  0.3758561E-013  0.7246160E+02  0.7816164E-02  0.1226708E+00
        -11   -1    0    0    0    0  0.00000000000E+00  0.00000000000E+00  0.45593999997E+02  0.45594000000E+02  0.51100000000E-03 0. -1.
         11   -1    0    0    0    0 -0.00000000000E+00 -0.00000000000E+00 -0.45593999997E+02  0.45594000000E+02  0.51100000000E-03 0.  1.
    9900012    2    1    2    0    0  0.13105485612E+02 -0.73377358003E+01  0.11184010728E+02  0.72461595760E+02  0.70000033174E+02 0.  0.
        -12    1    1    2    0    0 -0.13105485612E+02  0.73377358003E+01 -0.11184010728E+02  0.18726404240E+02  0.00000000000E+00 0.  1.
         11    1    3    3    0    0 -0.15754647592E+02  0.15269222810E+02  0.12623469934E+02  0.25312251567E+02  0.51100000000E-03 0. -1.
        -11    1    3    3    0    0 -0.52514448328E+01 -0.39862404144E+01 -0.47793846568E+01  0.81431138659E+01  0.51100000000E-03 0.  1.
        -12    1    3    3    0    0  0.34111578037E+02 -0.18620718196E+02  0.33399254504E+01  0.39006230327E+02  0.00000000000E+00 0.  1.
</event>
<event>
 7    1  0.3758561E-013  0.7246163E+02  0.7816164E-02  0.1226708E+00
        -11   -1    0    0    0    0  0.00000000000E+00  0.00000000000E+00  0.45593999997E+02  0.45594000000E+02  0.51100000000E-03 0. -1.
         11   -1    0    0    0    0 -0.00000000000E+00 -0.00000000000E+00 -0.45593999997E+02  0.45594000000E+02  0.51100000000E-03 0.  1.
    9900012    2    1    2    0    0 -0.13314337760E+02  0.96254511992E+01  0.89864410525E+01  0.72461627592E+02  0.70000074641E+02 0.  0.
        -12    1    1    2    0    0  0.13314337760E+02 -0.96254511992E+01 -0.89864410525E+01  0.18726372408E+02  0.00000000000E+00 0.  1.
         11    1    3    3    0    0 -0.19066728632E+01 -0.14791858807E+01  0.68756669766E+01  0.72868504109E+01  0.51100000000E-03 0. -1.
        -11    1    3    3    0    0  0.15405084348E+02 -0.14431203591E+02  0.15080201477E+02  0.25942026476E+02  0.51100000000E-03 0.  1.
         12    1    3    3    0    0 -0.26812749244E+02  0.25535840671E+02 -0.12969427401E+02  0.39232750705E+02  0.00000000000E+00 0. -1.
</event>
<event>
 7    1  0.3758561E-013  0.7246151E+02  0.7816164E-02  0.1226708E+00
        -11   -1    0    0    0    0  0.00000000000E+00  0.00000000000E+00  0.45593999997E+02  0.45594000000E+02  0.51100000000E-03 0.  1.
         11   -1    0    0    0    0 -0.00000000000E+00 -0.00000000000E+00 -0.45593999997E+02  0.45594000000E+02  0.51100000000E-03 0. -1.
    9900012    2    1    2    0    0 -0.12960976184E+02 -0.41844047880E+01 -0.12852447851E+02  0.72461506392E+02  0.69999916756E+02 0.  0.
        -12    1    1    2    0    0  0.12960976184E+02  0.41844047880E+01  0.12852447851E+02  0.18726493608E+02  0.00000000000E+00 0.  1.
         11    1    3    3    0    0 -0.13906046380E+02 -0.62679774062E+01  0.58350995109E+01  0.16331382466E+02  0.51100000000E-03 0. -1.
        -11    1    3    3    0    0  0.13495563624E+02 -0.45137736584E+01  0.14330920013E+02  0.20196030770E+02  0.51100000000E-03 0.  1.
         12    1    3    3    0    0 -0.12550493427E+02  0.65973462766E+01 -0.33018467375E+02  0.35934093157E+02  0.00000000000E+00 0. -1.
</event>
<event>
 7    1  0.3758561E-013  0.7246161E+02  0.7816164E-02  0.1226708E+00
        -11   -1    0    0    0    0  0.00000000000E+00  0.00000000000E+00  0.45593999997E+02  0.45594000000E+02  0.51100000000E-03 0. -1.
         11   -1    0    0    0    0 -0.00000000000E+00 -0.00000000000E+00 -0.45593999997E+02  0.45594000000E+02  0.51100000000E-03 0.  1.
    9900012    2    1    2    0    0 -0.38889163844E+01  0.95682318690E+00  0.18293130806E+02  0.72461606436E+02  0.70000047081E+02 0.  0.
        -12    1    1    2    0    0  0.38889163844E+01 -0.95682318690E+00 -0.18293130806E+02  0.18726393564E+02  0.00000000000E+00 0.  1.
         11    1    3    3    0    0 -0.30041081487E+01  0.90868044663E+01 -0.53081117609E+01  0.10943981538E+02  0.51100000000E-03 0. -1.
        -11    1    3    3    0    0  0.21928938095E+02 -0.13345966162E+02 -0.32767679967E+01  0.25879148895E+02  0.51100000000E-03 0.  1.
         12    1    3    3    0    0 -0.22813746331E+02  0.52159848824E+01  0.26878010563E+02  0.35638476002E+02  0.00000000000E+00 0. -1.
</event>
<event>
 7    1  0.3758561E-013  0.7246161E+02  0.7816164E-02  0.1226708E+00
        -11   -1    0    0    0    0  0.00000000000E+00  0.00000000000E+00  0.45593999997E+02  0.45594000000E+02  0.51100000000E-03 0.  1.
         11   -1    0    0    0    0 -0.00000000000E+00 -0.00000000000E+00 -0.45593999997E+02  0.45594000000E+02  0.51100000000E-03 0. -1.
    9900012    2    1    2    0    0 -0.98207503394E+01 -0.11193844189E+02 -0.11354657410E+02  0.72461614074E+02  0.70000057031E+02 0.  0.
        -12    1    1    2    0    0  0.98207503394E+01  0.11193844189E+02  0.11354657410E+02  0.18726385926E+02  0.00000000000E+00 0.  1.
         11    1    3    3    0    0 -0.32836540878E+01  0.66564024589E+01  0.26447921455E+01  0.78794037602E+01  0.51100000000E-03 0. -1.
        -11    1    3    3    0    0 -0.20497075866E+02  0.14790057140E+02 -0.14379294000E+02  0.29079890052E+02  0.51100000000E-03 0.  1.
         12    1    3    3    0    0  0.13959979614E+02 -0.32640303787E+02  0.37984444400E+00  0.35502320262E+02  0.00000000000E+00 0. -1.
</event>
<event>
 7    1  0.3758561E-013  0.7246150E+02  0.7816164E-02  0.1226708E+00
        -11   -1    0    0    0    0  0.00000000000E+00  0.00000000000E+00  0.45593999997E+02  0.45594000000E+02  0.51100000000E-03 0.  1.
         11   -1    0    0    0    0 -0.00000000000E+00 -0.00000000000E+00 -0.45593999997E+02  0.45594000000E+02  0.51100000000E-03 0. -1.
    9900012    2    1    2    0    0  0.90573200151E+01  0.77222204496E+01 -0.14457318456E+02  0.72461500288E+02  0.69999908804E+02 0.  0.
        -12    1    1    2    0    0 -0.90573200151E+01 -0.77222204496E+01  0.14457318456E+02  0.18726499712E+02  0.00000000000E+00 0.  1.
         11    1    3    3    0    0  0.21602447079E+02 -0.12357328295E+02 -0.20236527681E+02  0.32076258124E+02  0.51100000000E-03 0. -1.
        -11    1    3    3    0    0  0.99178839976E+01  0.12565313243E+02  0.16759557901E-01  0.16007866848E+02  0.51100000000E-03 0.  1.
        -12    1    3    3    0    0 -0.22463011062E+02  0.75142355021E+01  0.57624496668E+01  0.24377375316E+02  0.00000000000E+00 0.  1.
</event>
<event>
 7    1  0.3758561E-013  0.7246156E+02  0.7816164E-02  0.1226708E+00
        -11   -1    0    0    0    0  0.00000000000E+00  0.00000000000E+00  0.45593999997E+02  0.45594000000E+02  0.51100000000E-03 0.  1.
         11   -1    0    0    0    0 -0.00000000000E+00 -0.00000000000E+00 -0.45593999997E+02  0.45594000000E+02  0.51100000000E-03 0. -1.
    9900012    2    1    2    0    0  0.30434198404E+00 -0.78910338114E+01 -0.16979945221E+02  0.72461559378E+02  0.69999985779E+02 0.  0.
        -12    1    1    2    0    0 -0.30434198404E+00  0.78910338114E+01  0.16979945221E+02  0.18726440622E+02  0.00000000000E+00 0.  1.
         11    1    3    3    0    0 -0.14025313161E+02  0.48447533380E+01 -0.29669600447E+02  0.33173275918E+02  0.51100000000E-03 0. -1.
        -11    1    3    3    0    0 -0.75197397934E+00 -0.10974497107E+02 -0.80165205335E+01  0.13611379553E+02  0.51100000000E-03 0.  1.
        -12    1    3    3    0    0  0.15081629125E+02 -0.17612900424E+01  0.20706175759E+02  0.25676903907E+02  0.00000000000E+00 0.  1.
</event>
<event>
 7    1  0.3758561E-013  0.7246156E+02  0.7816164E-02  0.1226708E+00
        -11   -1    0    0    0    0  0.00000000000E+00  0.00000000000E+00  0.45593999997E+02  0.45594000000E+02  0.51100000000E-03 0. -1.
         11   -1    0    0    0    0 -0.00000000000E+00 -0.00000000000E+00 -0.45593999997E+02  0.45594000000E+02  0.51100000000E-03 0.  1.
    9900012    2    1    2    0    0 -0.57602059014E+01  0.20828398134E+01  0.17696362426E+02  0.72461563157E+02  0.69999990702E+02 0.  0.
        -12    1    1    2    0    0  0.57602059014E+01 -0.20828398134E+01 -0.17696362426E+02  0.18726436843E+02  0.00000000000E+00 0.  1.
         11    1    3    3    0    0  0.96361750916E+01 -0.80025064777E+01  0.69806331786E+01  0.14339638076E+02  0.51100000000E-03 0. -1.
        -11    1    3    3    0    0 -0.50563490602E+01  0.28875324595E+02 -0.71891389393E+01  0.30183352286E+02  0.51100000000E-03 0.  1.
         12    1    3    3    0    0 -0.10340031933E+02 -0.18789978304E+02  0.17904868187E+02  0.27938572795E+02  0.00000000000E+00 0. -1.
</event>
<event>
 7    1  0.3758561E-013  0.7246155E+02  0.7816164E-02  0.1226708E+00
        -11   -1    0    0    0    0  0.00000000000E+00  0.00000000000E+00  0.45593999997E+02  0.45594000000E+02  0.51100000000E-03 0. -1.
         11   -1    0    0    0    0 -0.00000000000E+00 -0.00000000000E+00 -0.45593999997E+02  0.45594000000E+02  0.51100000000E-03 0.  1.
    9900012    2    1    2    0    0 -0.14675314368E+01 -0.10547038342E+02  0.15404102833E+02  0.72461546775E+02  0.69999969362E+02 0.  0.
        -12    1    1    2    0    0  0.14675314368E+01  0.10547038342E+02 -0.15404102833E+02  0.18726453225E+02  0.00000000000E+00 0.  1.
         11    1    3    3    0    0  0.14721211568E+02 -0.64795063002E+01  0.11765409168E+02  0.19927943323E+02  0.51100000000E-03 0. -1.
        -11    1    3    3    0    0 -0.88389332052E+01 -0.26425266600E+02  0.70768437046E+01  0.28748968193E+02  0.51100000000E-03 0.  1.
         12    1    3    3    0    0 -0.73498097997E+01  0.22357734559E+02 -0.34381500401E+01  0.23784635258E+02  0.00000000000E+00 0. -1.
</event>
<event>
 7    1  0.3758561E-013  0.7246154E+02  0.7816164E-02  0.1226708E+00
        -11   -1    0    0    0    0  0.00000000000E+00  0.00000000000E+00  0.45593999997E+02  0.45594000000E+02  0.51100000000E-03 0.  1.
         11   -1    0    0    0    0 -0.00000000000E+00 -0.00000000000E+00 -0.45593999997E+02  0.45594000000E+02  0.51100000000E-03 0. -1.
    9900012    2    1    2    0    0  0.17987450818E+02  0.38852011554E+01 -0.34694633187E+01  0.72461538758E+02  0.69999958917E+02 0.  0.
        -12    1    1    2    0    0 -0.17987450818E+02 -0.38852011554E+01  0.34694633187E+01  0.18726461242E+02  0.00000000000E+00 0.  1.
         11    1    3    3    0    0 -0.46945167119E+01 -0.18010787110E+02 -0.13461281634E+02  0.22970264320E+02  0.51100000000E-03 0. -1.
        -11    1    3    3    0    0  0.11272297209E+02 -0.36895448167E+01 -0.96389685725E+01  0.15283557855E+02  0.51100000000E-03 0.  1.
        -12    1    3    3    0    0  0.11409670321E+02  0.25585533082E+02  0.19630786888E+02  0.34207716582E+02  0.00000000000E+00 0.  1.
</event>
<event>
 7    1  0.3758561E-013  0.7246159E+02  0.7816164E-02  0.1226708E+00
        -11   -1    0    0    0    0  0.00000000000E+00  0.00000000000E+00  0.45593999997E+02  0.45594000000E+02  0.51100000000E-03 0. -1.
         11   -1    0    0    0    0 -0.00000000000E+00 -0.00000000000E+00 -0.45593999997E+02  0.45594000000E+02  0.51100000000E-03 0.  1.
    9900012    2    1    2    0    0  0.28478164709E+01  0.73596259899E+01  0.16982471837E+02  0.72461588089E+02  0.70000023181E+02 0.  0.
        -12    1    1    2    0    0 -0.28478164709E+01 -0.73596259899E+01 -0.16982471837E+02  0.18726411911E+02  0.00000000000E+00 0.  1.
         11    1    3    3    0    0  0.39735184214E+01  0.31457025494E+02  0.83172335159E+01  0.32779714386E+02  0.51100000000E-03 0. -1.
        -11    1    3    3    0    0  0.11514728736E+02 -0.10324295855E-01  0.29259217639E+01  0.11880660878E+02  0.51100000000E-03 0.  1.
        -12    1    3    3    0    0 -0.12640430687E+02 -0.24087075208E+02  0.57393165575E+01  0.27801212826E+02  0.00000000000E+00 0.  1.
</event>
<event>
 7    1  0.3758561E-013  0.7246154E+02  0.7816164E-02  0.1226708E+00
        -11   -1    0    0    0    0  0.00000000000E+00  0.00000000000E+00  0.45593999997E+02  0.45594000000E+02  0.51100000000E-03 0. -1.
         11   -1    0    0    0    0 -0.00000000000E+00 -0.00000000000E+00 -0.45593999997E+02  0.45594000000E+02  0.51100000000E-03 0.  1.
    9900012    2    1    2    0    0 -0.69617753445E+00  0.14821486029E+02  0.11424502294E+02  0.72461538404E+02  0.69999958456E+02 0.  0.
        -12    1    1    2    0    0  0.69617753445E+00 -0.14821486029E+02 -0.11424502294E+02  0.18726461596E+02  0.00000000000E+00 0.  1.
         11    1    3    3    0    0 -0.54973032856E+01 -0.35900636571E+01  0.23720087718E+02  0.24612018651E+02  0.51100000000E-03 0. -1.
        -11    1    3    3    0    0  0.44609883588E+01 -0.54428400058E+01  0.11928819612E+02  0.13849969750E+02  0.51100000000E-03 0.  1.
        -12    1    3    3    0    0  0.34013739230E+00  0.23854389692E+02 -0.24224405036E+02  0.33999550003E+02  0.00000000000E+00 0.  1.
</event>
<event>
 7    1  0.3758561E-013  0.7246154E+02  0.7816164E-02  0.1226708E+00
        -11   -1    0    0    0    0  0.00000000000E+00  0.00000000000E+00  0.45593999997E+02  0.45594000000E+02  0.51100000000E-03 0. -1.
         11   -1    0    0    0    0 -0.00000000000E+00 -0.00000000000E+00 -0.45593999997E+02  0.45594000000E+02  0.51100000000E-03 0.  1.
    9900012    2    1    2    0    0 -0.11902492560E+02  0.11078595100E+02  0.92884731668E+01  0.72461539248E+02  0.69999959556E+02 0.  0.
        -12    1    1    2    0    0  0.11902492560E+02 -0.11078595100E+02 -0.92884731668E+01  0.18726460752E+02  0.00000000000E+00 0.  1.
         11    1    3    3    0    0  0.62504984257E+01  0.98864594563E+01  0.10191914228E+02  0.15514055790E+02  0.51100000000E-03 0. -1.
        -11    1    3    3    0    0  0.77849609515E+01 -0.12200734802E+02 -0.18016420460E+02  0.23109629014E+02  0.51100000000E-03 0.  1.
         12    1    3    3    0    0 -0.25937951937E+02  0.13392870446E+02  0.17112979398E+02  0.33837854444E+02  0.00000000000E+00 0. -1.
</event>
<event>
 7    1  0.3758561E-013  0.7246158E+02  0.7816164E-02  0.1226708E+00
        -11   -1    0    0    0    0  0.00000000000E+00  0.00000000000E+00  0.45593999997E+02  0.45594000000E+02  0.51100000000E-03 0.  1.
         11   -1    0    0    0    0 -0.00000000000E+00 -0.00000000000E+00 -0.45593999997E+02  0.45594000000E+02  0.51100000000E-03 0. -1.
    9900012    2    1    2    0    0 -0.16456145150E+02 -0.77785608028E+01 -0.44009064159E+01  0.72461582866E+02  0.70000016378E+02 0.  0.
        -12    1    1    2    0    0  0.16456145150E+02  0.77785608028E+01  0.44009064159E+01  0.18726417134E+02  0.00000000000E+00 0.  1.
         11    1    3    3    0    0 -0.15978721261E+02 -0.17446135914E+02  0.25120538729E+02  0.34506936372E+02  0.51100000000E-03 0. -1.
        -11    1    3    3    0    0 -0.98689654127E+01  0.12629493537E+01 -0.19353744483E+02  0.21761409540E+02  0.51100000000E-03 0.  1.
        -12    1    3    3    0    0  0.93915415236E+01  0.84046257578E+01 -0.10167700662E+02  0.16193236955E+02  0.00000000000E+00 0.  1.
</event>
<event>
 7    1  0.3758561E-013  0.7246153E+02  0.7816164E-02  0.1226708E+00
        -11   -1    0    0    0    0  0.00000000000E+00  0.00000000000E+00  0.45593999997E+02  0.45594000000E+02  0.51100000000E-03 0. -1.
         11   -1    0    0    0    0 -0.00000000000E+00 -0.00000000000E+00 -0.45593999997E+02  0.45594000000E+02  0.51100000000E-03 0.  1.
    9900012    2    1    2    0    0  0.12079706928E+02 -0.84082904103E+01  0.11578520675E+02  0.72461526544E+02  0.69999943007E+02 0.  0.
        -12    1    1    2    0    0 -0.12079706928E+02  0.84082904103E+01 -0.11578520675E+02  0.18726473456E+02  0.00000000000E+00 0.  1.
         11    1    3    3    0    0  0.13149126972E+02 -0.10549658544E+02  0.90996500878E+01  0.19157204063E+02  0.51100000000E-03 0. -1.
        -11    1    3    3    0    0 -0.78334096717E+01 -0.13813583245E+02 -0.19607048905E+02  0.25231205999E+02  0.51100000000E-03 0.  1.
         12    1    3    3    0    0  0.67639896277E+01  0.15954951379E+02  0.22085919492E+02  0.28073116482E+02  0.00000000000E+00 0. -1.
</event>
<event>
 7    1  0.3758561E-013  0.7246149E+02  0.7816164E-02  0.1226708E+00
        -11   -1    0    0    0    0  0.00000000000E+00  0.00000000000E+00  0.45593999997E+02  0.45594000000E+02  0.51100000000E-03 0. -1.
         11   -1    0    0    0    0 -0.00000000000E+00 -0.00000000000E+00 -0.45593999997E+02  0.45594000000E+02  0.51100000000E-03 0.  1.
    9900012    2    1    2    0    0  0.15182119960E+02 -0.82267292327E+01  0.72461170662E+01  0.72461493308E+02  0.69999899711E+02 0.  0.
        -12    1    1    2    0    0 -0.15182119960E+02  0.82267292327E+01 -0.72461170662E+01  0.18726506692E+02  0.00000000000E+00 0.  1.
         11    1    3    3    0    0 -0.75238345539E+01 -0.24332557738E+02  0.20697925176E+02  0.32818981693E+02  0.51100000000E-03 0. -1.
        -11    1    3    3    0    0 -0.11205889029E+01  0.12988400283E+02 -0.68287982201E+01  0.14716886450E+02  0.51100000000E-03 0.  1.
        -12    1    3    3    0    0  0.23826543416E+02  0.31174282230E+01 -0.66230098899E+01  0.24925625166E+02  0.00000000000E+00 0.  1.
</event>
<event>
 7    1  0.3758561E-013  0.7246159E+02  0.7816164E-02  0.1226708E+00
        -11   -1    0    0    0    0  0.00000000000E+00  0.00000000000E+00  0.45593999997E+02  0.45594000000E+02  0.51100000000E-03 0. -1.
         11   -1    0    0    0    0 -0.00000000000E+00 -0.00000000000E+00 -0.45593999997E+02  0.45594000000E+02  0.51100000000E-03 0.  1.
    9900012    2    1    2    0    0 -0.10649688830E+02 -0.69244033427E+01  0.13759190659E+02  0.72461586531E+02  0.70000021151E+02 0.  0.
        -12    1    1    2    0    0  0.10649688830E+02  0.69244033427E+01 -0.13759190659E+02  0.18726413469E+02  0.00000000000E+00 0.  1.
         11    1    3    3    0    0  0.75554935740E+01 -0.87046061766E+01  0.19686958331E+02  0.22812978333E+02  0.51100000000E-03 0. -1.
        -11    1    3    3    0    0 -0.30729259402E+02 -0.55053212978E+01  0.48467848936E+01  0.31592519211E+02  0.51100000000E-03 0.  1.
         12    1    3    3    0    0  0.12524076999E+02  0.72855241317E+01 -0.10774552565E+02  0.18056088987E+02  0.00000000000E+00 0. -1.
</event>
<event>
 7    1  0.3758561E-013  0.7246159E+02  0.7816164E-02  0.1226708E+00
        -11   -1    0    0    0    0  0.00000000000E+00  0.00000000000E+00  0.45593999997E+02  0.45594000000E+02  0.51100000000E-03 0.  1.
         11   -1    0    0    0    0 -0.00000000000E+00 -0.00000000000E+00 -0.45593999997E+02  0.45594000000E+02  0.51100000000E-03 0. -1.
    9900012    2    1    2    0    0  0.35482380953E+00  0.14437192428E+02 -0.11921408789E+02  0.72461590502E+02  0.70000026325E+02 0.  0.
        -12    1    1    2    0    0 -0.35482380953E+00 -0.14437192428E+02  0.11921408789E+02  0.18726409498E+02  0.00000000000E+00 0.  1.
         11    1    3    3    0    0 -0.84762291121E+01  0.21146662742E+02 -0.95103169147E+00  0.22802023301E+02  0.51100000000E-03 0. -1.
        -11    1    3    3    0    0  0.44450157591E+01  0.32260994091E+01  0.17947716088E+02  0.18769293954E+02  0.51100000000E-03 0.  1.
         12    1    3    3    0    0  0.43860371626E+01 -0.99355697229E+01 -0.28918093186E+02  0.30890273247E+02  0.00000000000E+00 0. -1.
</event>
<event>
 7    1  0.3758561E-013  0.7246159E+02  0.7816164E-02  0.1226708E+00
        -11   -1    0    0    0    0  0.00000000000E+00  0.00000000000E+00  0.45593999997E+02  0.45594000000E+02  0.51100000000E-03 0.  1.
         11   -1    0    0    0    0 -0.00000000000E+00 -0.00000000000E+00 -0.45593999997E+02  0.45594000000E+02  0.51100000000E-03 0. -1.
    9900012    2    1    2    0    0 -0.18196697399E+02  0.33365536214E+01 -0.29027463638E+01  0.72461592904E+02  0.70000029453E+02 0.  0.
        -12    1    1    2    0    0  0.18196697399E+02 -0.33365536214E+01  0.29027463638E+01  0.18726407096E+02  0.00000000000E+00 0.  1.
         11    1    3    3    0    0  0.14390946624E+02  0.18774201485E+02 -0.54107230574E+01  0.24266147416E+02  0.51100000000E-03 0. -1.
        -11    1    3    3    0    0 -0.15688193746E+02  0.90117906387E+01 -0.17236529913E+01  0.18174233778E+02  0.51100000000E-03 0.  1.
        -12    1    3    3    0    0 -0.16899450277E+02 -0.24449438502E+02  0.42316296849E+01  0.30021211710E+02  0.00000000000E+00 0.  1.
</event>
<event>
 7    1  0.3758561E-013  0.7246159E+02  0.7816164E-02  0.1226708E+00
        -11   -1    0    0    0    0  0.00000000000E+00  0.00000000000E+00  0.45593999997E+02  0.45594000000E+02  0.51100000000E-03 0. -1.
         11   -1    0    0    0    0 -0.00000000000E+00 -0.00000000000E+00 -0.45593999997E+02  0.45594000000E+02  0.51100000000E-03 0.  1.
    9900012    2    1    2    0    0  0.45906676793E+01 -0.10229180263E+02  0.14998940086E+02  0.72461586507E+02  0.70000021120E+02 0.  0.
        -12    1    1    2    0    0 -0.45906676793E+01  0.10229180263E+02 -0.14998940086E+02  0.18726413493E+02  0.00000000000E+00 0.  1.
         11    1    3    3    0    0  0.70018892908E+01 -0.13920966610E+02  0.11175289015E+02  0.19175683816E+02  0.51100000000E-03 0. -1.
        -11    1    3    3    0    0  0.14204413588E+02  0.11068635934E+02  0.21420873604E+02  0.27984529530E+02  0.51100000000E-03 0.  1.
         12    1    3    3    0    0 -0.16615635199E+02 -0.73768495877E+01 -0.17597222533E+02  0.25301373160E+02  0.00000000000E+00 0. -1.
</event>
<event>
 7    1  0.3758561E-013  0.7246211E+02  0.7816164E-02  0.1226707E+00
        -11   -1    0    0    0    0  0.00000000000E+00  0.00000000000E+00  0.45593999997E+02  0.45594000000E+02  0.51100000000E-03 0.  1.
         11   -1    0    0    0    0 -0.00000000000E+00 -0.00000000000E+00 -0.45593999997E+02  0.45594000000E+02  0.51100000000E-03 0. -1.
    9900012    2    1    2    0    0 -0.17346679211E+02 -0.67086828585E+01  0.21783397697E+01  0.72462112318E+02  0.70000706082E+02 0.  0.
        -12    1    1    2    0    0  0.17346679211E+02  0.67086828585E+01 -0.21783397697E+01  0.18725887682E+02  0.00000000000E+00 0.  1.
         11    1    3    3    0    0 -0.32685962405E+02 -0.16974823289E+02  0.10091704516E+02  0.38188470306E+02  0.51100000000E-03 0. -1.
        -11    1    3    3    0    0  0.11757912965E+02 -0.49499301215E+01 -0.12623849738E+02  0.17947476368E+02  0.51100000000E-03 0.  1.
        -12    1    3    3    0    0  0.35813702296E+01  0.15216070552E+02  0.47104849925E+01  0.16326165644E+02  0.00000000000E+00 0.  1.
</event>
<event>
 7    1  0.3758561E-013  0.7246157E+02  0.7816164E-02  0.1226708E+00
        -11   -1    0    0    0    0  0.00000000000E+00  0.00000000000E+00  0.45593999997E+02  0.45594000000E+02  0.51100000000E-03 0.  1.
         11   -1    0    0    0    0 -0.00000000000E+00 -0.00000000000E+00 -0.45593999997E+02  0.45594000000E+02  0.51100000000E-03 0. -1.
    9900012    2    1    2    0    0  0.64929075887E+01 -0.17491421711E+02  0.16035434145E+01  0.72461573915E+02  0.70000004716E+02 0.  0.
        -12    1    1    2    0    0 -0.64929075887E+01  0.17491421711E+02 -0.16035434145E+01  0.18726426085E+02  0.00000000000E+00 0.  1.
         11    1    3    3    0    0  0.41444113371E+01 -0.67006038031E+00 -0.23901389826E+02  0.24267294083E+02  0.51100000000E-03 0. -1.
        -11    1    3    3    0    0 -0.90573757532E+01  0.35726019461E+00 -0.57614611656E+01  0.10740489998E+02  0.51100000000E-03 0.  1.
        -12    1    3    3    0    0  0.11405872005E+02 -0.17178621526E+02  0.31266394406E+02  0.37453789833E+02  0.00000000000E+00 0.  1.
</event>
<event>
 7    1  0.3758561E-013  0.7246155E+02  0.7816164E-02  0.1226708E+00
        -11   -1    0    0    0    0  0.00000000000E+00  0.00000000000E+00  0.45593999997E+02  0.45594000000E+02  0.51100000000E-03 0.  1.
         11   -1    0    0    0    0 -0.00000000000E+00 -0.00000000000E+00 -0.45593999997E+02  0.45594000000E+02  0.51100000000E-03 0. -1.
    9900012    2    1    2    0    0  0.81921699663E+00  0.81023002751E+01 -0.16863025359E+02  0.72461547841E+02  0.69999970750E+02 0.  0.
        -12    1    1    2    0    0 -0.81921699663E+00 -0.81023002751E+01  0.16863025359E+02  0.18726452159E+02  0.00000000000E+00 0.  1.
         11    1    3    3    0    0 -0.16475710868E+02  0.95266250478E+01 -0.18284235105E+01  0.19119329648E+02  0.51100000000E-03 0. -1.
        -11    1    3    3    0    0 -0.15776266727E+02 -0.71644463310E+01 -0.78208637277E+01  0.19010149730E+02  0.51100000000E-03 0.  1.
         12    1    3    3    0    0  0.33071194591E+02  0.57401215583E+01 -0.72137381205E+01  0.34332068462E+02  0.00000000000E+00 0. -1.
</event>
<event>
 7    1  0.3758561E-013  0.7246154E+02  0.7816164E-02  0.1226708E+00
        -11   -1    0    0    0    0  0.00000000000E+00  0.00000000000E+00  0.45593999997E+02  0.45594000000E+02  0.51100000000E-03 0. -1.
         11   -1    0    0    0    0 -0.00000000000E+00 -0.00000000000E+00 -0.45593999997E+02  0.45594000000E+02  0.51100000000E-03 0.  1.
    9900012    2    1    2    0    0  0.13304399495E+02 -0.89226416315E+01  0.96984301060E+01  0.72461544753E+02  0.69999966727E+02 0.  0.
        -12    1    1    2    0    0 -0.13304399495E+02  0.89226416315E+01 -0.96984301060E+01  0.18726455247E+02  0.00000000000E+00 0.  1.
         11    1    3    3    0    0  0.10092180787E+02 -0.11122823201E+02 -0.39922545788E+01  0.15540508546E+02  0.51100000000E-03 0. -1.
        -11    1    3    3    0    0 -0.24794971380E+02 -0.63741702312E+01  0.31612379490E+01  0.25795621286E+02  0.51100000000E-03 0.  1.
         12    1    3    3    0    0  0.28007190088E+02  0.85743518003E+01  0.10529446736E+02  0.31125414921E+02  0.00000000000E+00 0. -1.
</event>
<event>
 7    1  0.3758561E-013  0.7246171E+02  0.7816164E-02  0.1226708E+00
        -11   -1    0    0    0    0  0.00000000000E+00  0.00000000000E+00  0.45593999997E+02  0.45594000000E+02  0.51100000000E-03 0.  1.
         11   -1    0    0    0    0 -0.00000000000E+00 -0.00000000000E+00 -0.45593999997E+02  0.45594000000E+02  0.51100000000E-03 0. -1.
    9900012    2    1    2    0    0 -0.64008095321E+01  0.44763458466E+01 -0.17019573279E+02  0.72461710741E+02  0.70000182957E+02 0.  0.
        -12    1    1    2    0    0  0.64008095321E+01 -0.44763458466E+01  0.17019573279E+02  0.18726289259E+02  0.00000000000E+00 0.  1.
         11    1    3    3    0    0  0.17346760468E+02 -0.12193098782E+02  0.60718140814E+01  0.22055581678E+02  0.51100000000E-03 0. -1.
        -11    1    3    3    0    0 -0.84736818462E+01 -0.91968297221E+01 -0.14530494938E+02  0.19170817520E+02  0.51100000000E-03 0.  1.
         12    1    3    3    0    0 -0.15273888154E+02  0.25866274351E+02 -0.85608924228E+01  0.31235311543E+02  0.00000000000E+00 0. -1.
</event>
<event>
 7    1  0.3758561E-013  0.7246173E+02  0.7816164E-02  0.1226708E+00
        -11   -1    0    0    0    0  0.00000000000E+00  0.00000000000E+00  0.45593999997E+02  0.45594000000E+02  0.51100000000E-03 0.  1.
         11   -1    0    0    0    0 -0.00000000000E+00 -0.00000000000E+00 -0.45593999997E+02  0.45594000000E+02  0.51100000000E-03 0. -1.
    9900012    2    1    2    0    0  0.33066987656E+01  0.12505590280E+02  0.13540645551E+02  0.72461731634E+02  0.70000210175E+02 0.  0.
        -12    1    1    2    0    0 -0.33066987656E+01 -0.12505590280E+02 -0.13540645551E+02  0.18726268366E+02  0.00000000000E+00 0.  1.
         11    1    3    3    0    0 -0.11210490777E+02  0.11168050796E+02  0.27013684834E+02  0.31307181773E+02  0.51100000000E-03 0. -1.
        -11    1    3    3    0    0 -0.97751950330E+00 -0.15486359331E+02 -0.22570009339E+01  0.15680463105E+02  0.51100000000E-03 0.  1.
         12    1    3    3    0    0  0.15494709046E+02  0.16823898815E+02 -0.11216038349E+02  0.25474086755E+02  0.00000000000E+00 0. -1.
</event>
<event>
 7    1  0.3758561E-013  0.7246157E+02  0.7816164E-02  0.1226708E+00
        -11   -1    0    0    0    0  0.00000000000E+00  0.00000000000E+00  0.45593999997E+02  0.45594000000E+02  0.51100000000E-03 0.  1.
         11   -1    0    0    0    0 -0.00000000000E+00 -0.00000000000E+00 -0.45593999997E+02  0.45594000000E+02  0.51100000000E-03 0. -1.
    9900012    2    1    2    0    0  0.10717884943E+02  0.55166368827E+01 -0.14330832822E+02  0.72461571896E+02  0.70000002087E+02 0.  0.
        -12    1    1    2    0    0 -0.10717884943E+02 -0.55166368827E+01  0.14330832822E+02  0.18726428104E+02  0.00000000000E+00 0.  1.
         11    1    3    3    0    0  0.24247898754E+02 -0.46510728106E+01 -0.16117622749E+02  0.29485095143E+02  0.51100000000E-03 0. -1.
        -11    1    3    3    0    0 -0.88986196556E+01 -0.90322383514E+01 -0.13109552924E+02  0.18238068416E+02  0.51100000000E-03 0.  1.
         12    1    3    3    0    0 -0.46313941547E+01  0.19199948045E+02  0.14896342851E+02  0.24738408338E+02  0.00000000000E+00 0. -1.
</event>
<event>
 7    1  0.3758561E-013  0.7246162E+02  0.7816164E-02  0.1226708E+00
        -11   -1    0    0    0    0  0.00000000000E+00  0.00000000000E+00  0.45593999997E+02  0.45594000000E+02  0.51100000000E-03 0.  1.
         11   -1    0    0    0    0 -0.00000000000E+00 -0.00000000000E+00 -0.45593999997E+02  0.45594000000E+02  0.51100000000E-03 0. -1.
    9900012    2    1    2    0    0  0.43136611988E+01  0.15072421864E+02 -0.10241665339E+02  0.72461620673E+02  0.70000065627E+02 0.  0.
        -12    1    1    2    0    0 -0.43136611988E+01 -0.15072421864E+02  0.10241665339E+02  0.18726379327E+02  0.00000000000E+00 0.  1.
         11    1    3    3    0    0  0.11454303488E+02 -0.13089756790E+02  0.25586298688E+00  0.17395639319E+02  0.51100000000E-03 0. -1.
        -11    1    3    3    0    0  0.12233841955E+02  0.16296159520E+02  0.11536920505E+02  0.23416495021E+02  0.51100000000E-03 0.  1.
         12    1    3    3    0    0 -0.19374484244E+02  0.11866019134E+02 -0.22034448831E+02  0.31649486332E+02  0.00000000000E+00 0. -1.
</event>
<event>
 7    1  0.3758561E-013  0.7246157E+02  0.7816164E-02  0.1226708E+00
        -11   -1    0    0    0    0  0.00000000000E+00  0.00000000000E+00  0.45593999997E+02  0.45594000000E+02  0.51100000000E-03 0. -1.
         11   -1    0    0    0    0 -0.00000000000E+00 -0.00000000000E+00 -0.45593999997E+02  0.45594000000E+02  0.51100000000E-03 0.  1.
    9900012    2    1    2    0    0 -0.32161170042E+01  0.31886811023E+01  0.18170530388E+02  0.72461567603E+02  0.69999996494E+02 0.  0.
        -12    1    1    2    0    0  0.32161170042E+01 -0.31886811023E+01 -0.18170530388E+02  0.18726432397E+02  0.00000000000E+00 0.  1.
         11    1    3    3    0    0  0.24387766805E+00  0.26785399652E+02  0.48716615151E+01  0.27225910398E+02  0.51100000000E-03 0. -1.
        -11    1    3    3    0    0 -0.14862565440E+02 -0.45088860400E+01  0.16628144655E+02  0.22753485441E+02  0.51100000000E-03 0.  1.
         12    1    3    3    0    0  0.11402570768E+02 -0.19087832509E+02 -0.33292757822E+01  0.22482171764E+02  0.00000000000E+00 0. -1.
</event>
<event>
 7    1  0.3758561E-013  0.7246145E+02  0.7816164E-02  0.1226708E+00
        -11   -1    0    0    0    0  0.00000000000E+00  0.00000000000E+00  0.45593999997E+02  0.45594000000E+02  0.51100000000E-03 0. -1.
         11   -1    0    0    0    0 -0.00000000000E+00 -0.00000000000E+00 -0.45593999997E+02  0.45594000000E+02  0.51100000000E-03 0.  1.
    9900012    2    1    2    0    0 -0.64317054579E+01  0.17287636289E+02  0.32333206775E+01  0.72461452903E+02  0.69999847076E+02 0.  0.
        -12    1    1    2    0    0  0.64317054579E+01 -0.17287636289E+02 -0.32333206775E+01  0.18726547097E+02  0.00000000000E+00 0.  1.
         11    1    3    3    0    0  0.25484832235E+01  0.18669555149E+02  0.51351190891E+01  0.19529887468E+02  0.51100000000E-03 0. -1.
        -11    1    3    3    0    0 -0.18164482167E+02  0.18529809491E+02  0.10206023047E+02  0.27883062222E+02  0.51100000000E-03 0.  1.
        -12    1    3    3    0    0  0.91842934860E+01 -0.19911728351E+02 -0.12107821458E+02  0.25048503213E+02  0.00000000000E+00 0.  1.
</event>
<event>
 7    1  0.3758561E-013  0.7246160E+02  0.7816164E-02  0.1226708E+00
        -11   -1    0    0    0    0  0.00000000000E+00  0.00000000000E+00  0.45593999997E+02  0.45594000000E+02  0.51100000000E-03 0. -1.
         11   -1    0    0    0    0 -0.00000000000E+00 -0.00000000000E+00 -0.45593999997E+02  0.45594000000E+02  0.51100000000E-03 0.  1.
    9900012    2    1    2    0    0  0.11586467913E+02 -0.14441137499E+02 -0.28080993021E+01  0.72461598513E+02  0.70000036761E+02 0.  0.
        -12    1    1    2    0    0 -0.11586467913E+02  0.14441137499E+02  0.28080993021E+01  0.18726401487E+02  0.00000000000E+00 0.  1.
         11    1    3    3    0    0  0.16088560465E+02  0.10546786634E+02  0.15672692332E+02  0.24813499780E+02  0.51100000000E-03 0. -1.
        -11    1    3    3    0    0  0.27573331400E+01 -0.43191197054E+01  0.10284831655E+02  0.11490667671E+02  0.51100000000E-03 0.  1.
        -12    1    3    3    0    0 -0.72594256918E+01 -0.20668804427E+02 -0.28765623290E+02  0.36157431063E+02  0.00000000000E+00 0.  1.
</event>
<event>
 7    1  0.3758561E-013  0.7246158E+02  0.7816164E-02  0.1226708E+00
        -11   -1    0    0    0    0  0.00000000000E+00  0.00000000000E+00  0.45593999997E+02  0.45594000000E+02  0.51100000000E-03 0. -1.
         11   -1    0    0    0    0 -0.00000000000E+00 -0.00000000000E+00 -0.45593999997E+02  0.45594000000E+02  0.51100000000E-03 0.  1.
    9900012    2    1    2    0    0  0.90358056466E-01  0.88502044636E+01  0.16502859151E+02  0.72461584332E+02  0.70000018286E+02 0.  0.
        -12    1    1    2    0    0 -0.90358056466E-01 -0.88502044636E+01 -0.16502859151E+02  0.18726415668E+02  0.00000000000E+00 0.  1.
         11    1    3    3    0    0 -0.60209392683E+01  0.28135723204E+02  0.22191638032E+02  0.36336475183E+02  0.51100000000E-03 0. -1.
        -11    1    3    3    0    0 -0.72853295338E+01 -0.14291340871E+01  0.72052573087E+01  0.10345732637E+02  0.51100000000E-03 0.  1.
        -12    1    3    3    0    0  0.13396626859E+02 -0.17856384653E+02 -0.12894036190E+02  0.25779376512E+02  0.00000000000E+00 0.  1.
</event>
<event>
 7    1  0.3758561E-013  0.7246173E+02  0.7816164E-02  0.1226708E+00
        -11   -1    0    0    0    0  0.00000000000E+00  0.00000000000E+00  0.45593999997E+02  0.45594000000E+02  0.51100000000E-03 0.  1.
         11   -1    0    0    0    0 -0.00000000000E+00 -0.00000000000E+00 -0.45593999997E+02  0.45594000000E+02  0.51100000000E-03 0. -1.
    9900012    2    1    2    0    0  0.17878785230E+02 -0.55649686803E+01  0.23113465549E+00  0.72461728055E+02  0.70000205513E+02 0.  0.
        -12    1    1    2    0    0 -0.17878785230E+02  0.55649686803E+01 -0.23113465549E+00  0.18726271945E+02  0.00000000000E+00 0.  1.
         11    1    3    3    0    0  0.98216550441E+01 -0.20721087114E+01 -0.11995267025E+02  0.15641130828E+02  0.51100000000E-03 0. -1.
        -11    1    3    3    0    0  0.25679686093E+02  0.11184775368E+02 -0.45876460279E+01  0.28382952176E+02  0.51100000000E-03 0.  1.
         12    1    3    3    0    0 -0.17622555907E+02 -0.14677635337E+02  0.16814047708E+02  0.28437645052E+02  0.00000000000E+00 0. -1.
</event>
<event>
 7    1  0.3758561E-013  0.7246156E+02  0.7816164E-02  0.1226708E+00
        -11   -1    0    0    0    0  0.00000000000E+00  0.00000000000E+00  0.45593999997E+02  0.45594000000E+02  0.51100000000E-03 0.  1.
         11   -1    0    0    0    0 -0.00000000000E+00 -0.00000000000E+00 -0.45593999997E+02  0.45594000000E+02  0.51100000000E-03 0. -1.
    9900012    2    1    2    0    0  0.85140853774E+00 -0.18591134037E+02 -0.20795016716E+01  0.72461561778E+02  0.69999988906E+02 0.  0.
        -12    1    1    2    0    0 -0.85140853774E+00  0.18591134037E+02  0.20795016716E+01  0.18726438222E+02  0.00000000000E+00 0.  1.
         11    1    3    3    0    0  0.78798050252E+01 -0.58667310005E-01 -0.65332507811E+01  0.10236119143E+02  0.51100000000E-03 0. -1.
        -11    1    3    3    0    0  0.19685364205E+02 -0.10408152251E+02  0.20290128699E+02  0.30125280415E+02  0.51100000000E-03 0.  1.
         12    1    3    3    0    0 -0.26713760692E+02 -0.81243144756E+01 -0.15836379590E+02  0.32100162220E+02  0.00000000000E+00 0. -1.
</event>
<event>
 7    1  0.3758561E-013  0.7246158E+02  0.7816164E-02  0.1226708E+00
        -11   -1    0    0    0    0  0.00000000000E+00  0.00000000000E+00  0.45593999997E+02  0.45594000000E+02  0.51100000000E-03 0.  1.
         11   -1    0    0    0    0 -0.00000000000E+00 -0.00000000000E+00 -0.45593999997E+02  0.45594000000E+02  0.51100000000E-03 0. -1.
    9900012    2    1    2    0    0  0.67299075487E+01 -0.15541548510E+02 -0.79904594114E+01  0.72461579432E+02  0.70000011903E+02 0.  0.
        -12    1    1    2    0    0 -0.67299075487E+01  0.15541548510E+02  0.79904594114E+01  0.18726420568E+02  0.00000000000E+00 0.  1.
         11    1    3    3    0    0  0.15157440136E+02 -0.13867529152E+02 -0.15677126067E+02  0.25842380661E+02  0.51100000000E-03 0. -1.
        -11    1    3    3    0    0  0.94237384478E+01 -0.11831730374E+02  0.18102474383E+02  0.23590173145E+02  0.51100000000E-03 0.  1.
        -12    1    3    3    0    0 -0.17851271035E+02  0.10157711016E+02 -0.10415807728E+02  0.23029025626E+02  0.00000000000E+00 0.  1.
</event>
<event>
 7    1  0.3758561E-013  0.7246162E+02  0.7816164E-02  0.1226708E+00
        -11   -1    0    0    0    0  0.00000000000E+00  0.00000000000E+00  0.45593999997E+02  0.45594000000E+02  0.51100000000E-03 0.  1.
         11   -1    0    0    0    0 -0.00000000000E+00 -0.00000000000E+00 -0.45593999997E+02  0.45594000000E+02  0.51100000000E-03 0. -1.
    9900012    2    1    2    0    0  0.87912994600E+01 -0.14424547199E+02 -0.80822522955E+01  0.72461619937E+02  0.70000064669E+02 0.  0.
        -12    1    1    2    0    0 -0.87912994600E+01  0.14424547199E+02  0.80822522955E+01  0.18726380063E+02  0.00000000000E+00 0.  1.
         11    1    3    3    0    0 -0.49819591189E+01 -0.11474414817E+02  0.19232702441E+02  0.22942950017E+02  0.51100000000E-03 0. -1.
        -11    1    3    3    0    0 -0.10126289625E+02 -0.82377272246E+01 -0.20159397673E+02  0.24016727632E+02  0.51100000000E-03 0.  1.
         12    1    3    3    0    0  0.23899548204E+02  0.52875948421E+01 -0.71555570635E+01  0.25501942288E+02  0.00000000000E+00 0. -1.
</event>
<event>
 7    1  0.3758561E-013  0.7246155E+02  0.7816164E-02  0.1226708E+00
        -11   -1    0    0    0    0  0.00000000000E+00  0.00000000000E+00  0.45593999997E+02  0.45594000000E+02  0.51100000000E-03 0. -1.
         11   -1    0    0    0    0 -0.00000000000E+00 -0.00000000000E+00 -0.45593999997E+02  0.45594000000E+02  0.51100000000E-03 0.  1.
    9900012    2    1    2    0    0 -0.12721496454E+02 -0.12686807774E+02  0.52809473392E+01  0.72461548966E+02  0.69999972216E+02 0.  0.
        -12    1    1    2    0    0  0.12721496454E+02  0.12686807774E+02 -0.52809473392E+01  0.18726451034E+02  0.00000000000E+00 0.  1.
         11    1    3    3    0    0 -0.15824207243E+02  0.86786644241E+01  0.17858679808E+02  0.25390100350E+02  0.51100000000E-03 0. -1.
        -11    1    3    3    0    0 -0.14261012483E+02 -0.21399279334E+02 -0.14619028284E+00  0.25716278987E+02  0.51100000000E-03 0.  1.
        -12    1    3    3    0    0  0.17363723272E+02  0.33807136622E-01 -0.12431542186E+02  0.21355169629E+02  0.00000000000E+00 0.  1.
</event>
<event>
 7    1  0.3758561E-013  0.7246157E+02  0.7816164E-02  0.1226708E+00
        -11   -1    0    0    0    0  0.00000000000E+00  0.00000000000E+00  0.45593999997E+02  0.45594000000E+02  0.51100000000E-03 0.  1.
         11   -1    0    0    0    0 -0.00000000000E+00 -0.00000000000E+00 -0.45593999997E+02  0.45594000000E+02  0.51100000000E-03 0. -1.
    9900012    2    1    2    0    0  0.19776406216E+01 -0.62167314515E+01 -0.17553362786E+02  0.72461565276E+02  0.69999993463E+02 0.  0.
        -12    1    1    2    0    0 -0.19776406216E+01  0.62167314515E+01  0.17553362786E+02  0.18726434724E+02  0.00000000000E+00 0.  1.
         11    1    3    3    0    0  0.48589123373E+01 -0.14086834199E+01  0.17611835075E+01  0.53567887477E+01  0.51100000000E-03 0. -1.
        -11    1    3    3    0    0  0.94627477867E+01 -0.30835500868E+02  0.29725439827E+00  0.32256163285E+02  0.51100000000E-03 0.  1.
         12    1    3    3    0    0 -0.12344019502E+02  0.26027452836E+02 -0.19611800692E+02  0.34848613243E+02  0.00000000000E+00 0. -1.
</event>
<event>
 7    1  0.3758561E-013  0.7246196E+02  0.7816164E-02  0.1226707E+00
        -11   -1    0    0    0    0  0.00000000000E+00  0.00000000000E+00  0.45593999997E+02  0.45594000000E+02  0.51100000000E-03 0. -1.
         11   -1    0    0    0    0 -0.00000000000E+00 -0.00000000000E+00 -0.45593999997E+02  0.45594000000E+02  0.51100000000E-03 0.  1.
    9900012    2    1    2    0    0  0.16121807017E+02  0.92059217601E+01  0.24500886358E+01  0.72461959541E+02  0.70000507064E+02 0.  0.
        -12    1    1    2    0    0 -0.16121807017E+02 -0.92059217601E+01 -0.24500886358E+01  0.18726040459E+02  0.00000000000E+00 0.  1.
         11    1    3    3    0    0  0.23343503086E+02  0.59199402130E+01 -0.18809038727E+02  0.30557237547E+02  0.51100000000E-03 0. -1.
        -11    1    3    3    0    0  0.11550778670E+02 -0.78564859474E+01  0.56532554440E+01  0.15069975339E+02  0.51100000000E-03 0.  1.
        -12    1    3    3    0    0 -0.18772474739E+02  0.11142467495E+02  0.15605871919E+02  0.26834746655E+02  0.00000000000E+00 0.  1.
</event>
<event>
 7    1  0.3758561E-013  0.7246150E+02  0.7816164E-02  0.1226708E+00
        -11   -1    0    0    0    0  0.00000000000E+00  0.00000000000E+00  0.45593999997E+02  0.45594000000E+02  0.51100000000E-03 0.  1.
         11   -1    0    0    0    0 -0.00000000000E+00 -0.00000000000E+00 -0.45593999997E+02  0.45594000000E+02  0.51100000000E-03 0. -1.
    9900012    2    1    2    0    0 -0.91129106501E+01 -0.15715017454E+02  0.45469637292E+01  0.72461500240E+02  0.69999908742E+02 0.  0.
        -12    1    1    2    0    0  0.91129106501E+01  0.15715017454E+02 -0.45469637292E+01  0.18726499760E+02  0.00000000000E+00 0.  1.
         11    1    3    3    0    0 -0.88234195014E+01 -0.57524778267E+01  0.18630532682E+02  0.21401880317E+02  0.51100000000E-03 0. -1.
        -11    1    3    3    0    0  0.16762323634E+02 -0.86994191317E+01  0.10119789541E+02  0.21425814511E+02  0.51100000000E-03 0.  1.
         12    1    3    3    0    0 -0.17051814783E+02 -0.12631204955E+01 -0.24203358494E+02  0.29633805412E+02  0.00000000000E+00 0. -1.
</event>
<event>
 7    1  0.3758561E-013  0.7246161E+02  0.7816164E-02  0.1226708E+00
        -11   -1    0    0    0    0  0.00000000000E+00  0.00000000000E+00  0.45593999997E+02  0.45594000000E+02  0.51100000000E-03 0.  1.
         11   -1    0    0    0    0 -0.00000000000E+00 -0.00000000000E+00 -0.45593999997E+02  0.45594000000E+02  0.51100000000E-03 0. -1.
    9900012    2    1    2    0    0 -0.15737631616E+02  0.57126147619E+01 -0.83887195904E+01  0.72461611329E+02  0.70000053455E+02 0.  0.
        -12    1    1    2    0    0  0.15737631616E+02 -0.57126147619E+01  0.83887195904E+01  0.18726388671E+02  0.00000000000E+00 0.  1.
         11    1    3    3    0    0 -0.25809777522E+02 -0.68811597123E+00 -0.93922410234E+01  0.27474211745E+02  0.51100000000E-03 0. -1.
        -11    1    3    3    0    0 -0.93242524965E+01  0.19468859064E+02  0.67864618677E+00  0.21597192381E+02  0.51100000000E-03 0.  1.
        -12    1    3    3    0    0  0.19396398402E+02 -0.13068128330E+02  0.32487524625E+00  0.23390207202E+02  0.00000000000E+00 0.  1.
</event>
<event>
 7    1  0.3758561E-013  0.7246158E+02  0.7816164E-02  0.1226708E+00
        -11   -1    0    0    0    0  0.00000000000E+00  0.00000000000E+00  0.45593999997E+02  0.45594000000E+02  0.51100000000E-03 0. -1.
         11   -1    0    0    0    0 -0.00000000000E+00 -0.00000000000E+00 -0.45593999997E+02  0.45594000000E+02  0.51100000000E-03 0.  1.
    9900012    2    1    2    0    0  0.12918823164E+01  0.78031907301E+01  0.16974102982E+02  0.72461577023E+02  0.70000008765E+02 0.  0.
        -12    1    1    2    0    0 -0.12918823164E+01 -0.78031907301E+01 -0.16974102982E+02  0.18726422977E+02  0.00000000000E+00 0.  1.
         11    1    3    3    0    0 -0.19251409449E+02  0.15362158728E+01 -0.84322986366E+01  0.21073214884E+02  0.51100000000E-03 0. -1.
        -11    1    3    3    0    0 -0.65254229212E+00  0.16696930316E+02  0.18152540576E-01  0.16709686508E+02  0.51100000000E-03 0.  1.
        -12    1    3    3    0    0  0.21195834057E+02 -0.10429955459E+02  0.25388249078E+02  0.34678675631E+02  0.00000000000E+00 0.  1.
</event>
<event>
 7    1  0.3758561E-013  0.7246160E+02  0.7816164E-02  0.1226708E+00
        -11   -1    0    0    0    0  0.00000000000E+00  0.00000000000E+00  0.45593999997E+02  0.45594000000E+02  0.51100000000E-03 0.  1.
         11   -1    0    0    0    0 -0.00000000000E+00 -0.00000000000E+00 -0.45593999997E+02  0.45594000000E+02  0.51100000000E-03 0. -1.
    9900012    2    1    2    0    0  0.13146215911E+02  0.43500878746E-01 -0.13336165730E+02  0.72461596141E+02  0.70000033670E+02 0.  0.
        -12    1    1    2    0    0 -0.13146215911E+02 -0.43500878746E-01  0.13336165730E+02  0.18726403859E+02  0.00000000000E+00 0.  1.
         11    1    3    3    0    0 -0.60721507558E+01  0.18988087458E+01 -0.13268648683E+02  0.14715078239E+02  0.51100000000E-03 0. -1.
        -11    1    3    3    0    0 -0.69901213153E+01  0.14678369021E+02 -0.16079503436E+02  0.22866279631E+02  0.51100000000E-03 0.  1.
         12    1    3    3    0    0  0.26208487982E+02 -0.16533676888E+02  0.16011986389E+02  0.34880238271E+02  0.00000000000E+00 0. -1.
</event>
<event>
 7    1  0.3758561E-013  0.7246165E+02  0.7816164E-02  0.1226708E+00
        -11   -1    0    0    0    0  0.00000000000E+00  0.00000000000E+00  0.45593999997E+02  0.45594000000E+02  0.51100000000E-03 0.  1.
         11   -1    0    0    0    0 -0.00000000000E+00 -0.00000000000E+00 -0.45593999997E+02  0.45594000000E+02  0.51100000000E-03 0. -1.
    9900012    2    1    2    0    0  0.83121821992E+01  0.50644791403E+01 -0.15997959616E+02  0.72461654020E+02  0.70000109068E+02 0.  0.
        -12    1    1    2    0    0 -0.83121821992E+01 -0.50644791403E+01  0.15997959616E+02  0.18726345980E+02  0.00000000000E+00 0.  1.
         11    1    3    3    0    0 -0.12278733297E+02 -0.34951125770E+01  0.31445542712E-01  0.12766522330E+02  0.51100000000E-03 0.  1.
        -11    1    3    3    0    0  0.29878701944E+02 -0.14077689579E+02 -0.96033241933E+01  0.34396831388E+02  0.51100000000E-03 0. -1.
         12    1    3    3    0    0 -0.92877864471E+01  0.22637281297E+02 -0.64260809656E+01  0.25298300302E+02  0.00000000000E+00 0. -1.
</event>
<event>
 7    1  0.3758561E-013  0.7246164E+02  0.7816164E-02  0.1226708E+00
        -11   -1    0    0    0    0  0.00000000000E+00  0.00000000000E+00  0.45593999997E+02  0.45594000000E+02  0.51100000000E-03 0. -1.
         11   -1    0    0    0    0 -0.00000000000E+00 -0.00000000000E+00 -0.45593999997E+02  0.45594000000E+02  0.51100000000E-03 0.  1.
    9900012    2    1    2    0    0 -0.60620961158E+01 -0.13695657265E+02  0.11240849869E+02  0.72461635083E+02  0.70000084399E+02 0.  0.
        -12    1    1    2    0    0  0.60620961158E+01  0.13695657265E+02 -0.11240849869E+02  0.18726364917E+02  0.00000000000E+00 0.  1.
         11    1    3    3    0    0 -0.93435053607E+01 -0.15878555809E+02 -0.79639696144E+01  0.20071234125E+02  0.51100000000E-03 0.  1.
        -11    1    3    3    0    0  0.23449096210E+02  0.98857970198E+00  0.21786301859E+02  0.32023122144E+02  0.51100000000E-03 0. -1.
         12    1    3    3    0    0 -0.20167686965E+02  0.11943188424E+01 -0.25814823757E+01  0.20367278814E+02  0.00000000000E+00 0. -1.
</event>
<event>
 7    1  0.3758561E-013  0.7246158E+02  0.7816164E-02  0.1226708E+00
        -11   -1    0    0    0    0  0.00000000000E+00  0.00000000000E+00  0.45593999997E+02  0.45594000000E+02  0.51100000000E-03 0.  1.
         11   -1    0    0    0    0 -0.00000000000E+00 -0.00000000000E+00 -0.45593999997E+02  0.45594000000E+02  0.51100000000E-03 0. -1.
    9900012    2    1    2    0    0 -0.14720290442E+02 -0.11575379874E+02  0.49342754851E-01  0.72461580037E+02  0.70000012691E+02 0.  0.
        -12    1    1    2    0    0  0.14720290442E+02  0.11575379874E+02 -0.49342754851E-01  0.18726419963E+02  0.00000000000E+00 0.  1.
         11    1    3    3    0    0 -0.22067297073E+02 -0.12950170457E+02 -0.19459869648E+02  0.32145902413E+02  0.51100000000E-03 0. -1.
        -11    1    3    3    0    0 -0.46218817665E+01 -0.12731383870E+01 -0.84903486337E+01  0.97503175640E+01  0.51100000000E-03 0.  1.
        -12    1    3    3    0    0  0.11968888398E+02  0.26479289701E+01  0.27999561037E+02  0.30565360059E+02  0.00000000000E+00 0.  1.
</event>
<event>
 7    1  0.3758561E-013  0.7246158E+02  0.7816164E-02  0.1226708E+00
        -11   -1    0    0    0    0  0.00000000000E+00  0.00000000000E+00  0.45593999997E+02  0.45594000000E+02  0.51100000000E-03 0.  1.
         11   -1    0    0    0    0 -0.00000000000E+00 -0.00000000000E+00 -0.45593999997E+02  0.45594000000E+02  0.51100000000E-03 0. -1.
    9900012    2    1    2    0    0  0.15032409868E+02  0.44856270924E+01 -0.10226655034E+02  0.72461583631E+02  0.70000017373E+02 0.  0.
        -12    1    1    2    0    0 -0.15032409868E+02 -0.44856270924E+01  0.10226655034E+02  0.18726416369E+02  0.00000000000E+00 0.  1.
         11    1    3    3    0    0 -0.14160744038E+02 -0.11299821936E+02 -0.19719198194E+02  0.26777965292E+02  0.51100000000E-03 0. -1.
        -11    1    3    3    0    0  0.86141850293E+01 -0.78373367354E+01 -0.28847421679E+01  0.11997906837E+02  0.51100000000E-03 0.  1.
        -12    1    3    3    0    0  0.20578968877E+02  0.23622785764E+02  0.12377285328E+02  0.33685711502E+02  0.00000000000E+00 0.  1.
</event>
<event>
 7    1  0.3758561E-013  0.7246157E+02  0.7816164E-02  0.1226708E+00
        -11   -1    0    0    0    0  0.00000000000E+00  0.00000000000E+00  0.45593999997E+02  0.45594000000E+02  0.51100000000E-03 0.  1.
         11   -1    0    0    0    0 -0.00000000000E+00 -0.00000000000E+00 -0.45593999997E+02  0.45594000000E+02  0.51100000000E-03 0. -1.
    9900012    2    1    2    0    0 -0.17935921534E+02  0.52599059674E+01 -0.11469092628E+01  0.72461566999E+02  0.69999995708E+02 0.  0.
        -12    1    1    2    0    0  0.17935921534E+02 -0.52599059674E+01  0.11469092628E+01  0.18726433001E+02  0.00000000000E+00 0.  1.
         11    1    3    3    0    0 -0.38854379573E+01 -0.18401499940E+02  0.85655979512E+01  0.20665945337E+02  0.51100000000E-03 0. -1.
        -11    1    3    3    0    0  0.35354470918E+01 -0.49157958015E+01  0.10861717933E+02  0.12435487575E+02  0.51100000000E-03 0.  1.
         12    1    3    3    0    0 -0.17585930669E+02  0.28577201709E+02 -0.20574225147E+02  0.39360134088E+02  0.00000000000E+00 0. -1.
</event>
<event>
 7    1  0.3758561E-013  0.7246135E+02  0.7816164E-02  0.1226709E+00
        -11   -1    0    0    0    0  0.00000000000E+00  0.00000000000E+00  0.45593999997E+02  0.45594000000E+02  0.51100000000E-03 0. -1.
         11   -1    0    0    0    0 -0.00000000000E+00 -0.00000000000E+00 -0.45593999997E+02  0.45594000000E+02  0.51100000000E-03 0.  1.
    9900012    2    1    2    0    0 -0.79348222467E+01 -0.34736154039E+01  0.16603009908E+02  0.72461351980E+02  0.69999715605E+02 0.  0.
        -12    1    1    2    0    0  0.79348222467E+01  0.34736154039E+01 -0.16603009908E+02  0.18726648020E+02  0.00000000000E+00 0.  1.
         11    1    3    3    0    0 -0.55589133285E+01 -0.48061297754E+01  0.23678377863E+01  0.77205606568E+01  0.51100000000E-03 0. -1.
        -11    1    3    3    0    0  0.71317607127E+00 -0.30392193097E+02  0.12340495127E+02  0.32809782712E+02  0.51100000000E-03 0.  1.
         12    1    3    3    0    0 -0.30890849895E+01  0.31724707469E+02  0.18946769946E+01  0.31931008612E+02  0.00000000000E+00 0. -1.
</event>
<event>
 7    1  0.3758561E-013  0.7246155E+02  0.7816164E-02  0.1226708E+00
        -11   -1    0    0    0    0  0.00000000000E+00  0.00000000000E+00  0.45593999997E+02  0.45594000000E+02  0.51100000000E-03 0.  1.
         11   -1    0    0    0    0 -0.00000000000E+00 -0.00000000000E+00 -0.45593999997E+02  0.45594000000E+02  0.51100000000E-03 0. -1.
    9900012    2    1    2    0    0 -0.17364733537E+02 -0.47360398828E+00 -0.69943909523E+01  0.72461554092E+02  0.69999978893E+02 0.  0.
        -12    1    1    2    0    0  0.17364733537E+02  0.47360398828E+00  0.69943909523E+01  0.18726445908E+02  0.00000000000E+00 0.  1.
         11    1    3    3    0    0 -0.15524422920E+02 -0.92831595018E+01  0.19515761787E+02  0.26609203590E+02  0.51100000000E-03 0.  1.
        -11    1    3    3    0    0 -0.17823191051E+02 -0.22528796695E+01 -0.13236829708E+02  0.22314911316E+02  0.51100000000E-03 0. -1.
        -12    1    3    3    0    0  0.15982880434E+02  0.11062435183E+02 -0.13273323031E+02  0.23537439186E+02  0.00000000000E+00 0.  1.
</event>
<event>
 7    1  0.3758561E-013  0.7246154E+02  0.7816164E-02  0.1226708E+00
        -11   -1    0    0    0    0  0.00000000000E+00  0.00000000000E+00  0.45593999997E+02  0.45594000000E+02  0.51100000000E-03 0. -1.
         11   -1    0    0    0    0 -0.00000000000E+00 -0.00000000000E+00 -0.45593999997E+02  0.45594000000E+02  0.51100000000E-03 0.  1.
    9900012    2    1    2    0    0  0.97608903749E+01  0.91270592191E+01  0.13118768933E+02  0.72461540398E+02  0.69999961055E+02 0.  0.
        -12    1    1    2    0    0 -0.97608903749E+01 -0.91270592191E+01 -0.13118768933E+02  0.18726459602E+02  0.00000000000E+00 0.  1.
         11    1    3    3    0    0  0.43138514627E+01  0.23756445088E+02  0.27717274997E+02  0.36759017005E+02  0.51100000000E-03 0. -1.
        -11    1    3    3    0    0  0.79270253315E+00  0.87215824836E+01 -0.34700181576E+01  0.94199471654E+01  0.51100000000E-03 0.  1.
        -12    1    3    3    0    0  0.46543363790E+01 -0.23350968352E+02 -0.11128487906E+02  0.26282576228E+02  0.00000000000E+00 0.  1.
</event>
<event>
 7    1  0.3758561E-013  0.7246158E+02  0.7816164E-02  0.1226708E+00
        -11   -1    0    0    0    0  0.00000000000E+00  0.00000000000E+00  0.45593999997E+02  0.45594000000E+02  0.51100000000E-03 0. -1.
         11   -1    0    0    0    0 -0.00000000000E+00 -0.00000000000E+00 -0.45593999997E+02  0.45594000000E+02  0.51100000000E-03 0.  1.
    9900012    2    1    2    0    0  0.13285305277E+02 -0.18742413217E+01  0.13063942159E+02  0.72461582789E+02  0.70000016276E+02 0.  0.
        -12    1    1    2    0    0 -0.13285305277E+02  0.18742413217E+01 -0.13063942159E+02  0.18726417211E+02  0.00000000000E+00 0.  1.
         11    1    3    3    0    0 -0.48298713493E+00 -0.12380237063E+01  0.19963184529E+02  0.20007366545E+02  0.51100000000E-03 0. -1.
        -11    1    3    3    0    0 -0.10571424768E+02  0.15611981569E+02  0.69284100210E+01  0.20087106706E+02  0.51100000000E-03 0.  1.
         12    1    3    3    0    0  0.24339717180E+02 -0.16248199185E+02 -0.13827652391E+02  0.32367109537E+02  0.00000000000E+00 0. -1.
</event>
<event>
 7    1  0.3758561E-013  0.7246161E+02  0.7816164E-02  0.1226708E+00
        -11   -1    0    0    0    0  0.00000000000E+00  0.00000000000E+00  0.45593999997E+02  0.45594000000E+02  0.51100000000E-03 0.  1.
         11   -1    0    0    0    0 -0.00000000000E+00 -0.00000000000E+00 -0.45593999997E+02  0.45594000000E+02  0.51100000000E-03 0. -1.
    9900012    2    1    2    0    0 -0.35404152968E+01 -0.17430308292E+02 -0.58589747127E+01  0.72461607600E+02  0.70000048597E+02 0.  0.
        -12    1    1    2    0    0  0.35404152968E+01  0.17430308292E+02  0.58589747127E+01  0.18726392400E+02  0.00000000000E+00 0.  1.
         11    1    3    3    0    0 -0.52248619645E+01 -0.11619106324E+02 -0.83475787131E+01  0.15231050027E+02  0.51100000000E-03 0. -1.
        -11    1    3    3    0    0 -0.16025967969E+02 -0.23802184731E+02  0.10788627159E+02  0.30655670333E+02  0.51100000000E-03 0.  1.
         12    1    3    3    0    0  0.17710414637E+02  0.17990982762E+02 -0.83000231585E+01  0.26574887240E+02  0.00000000000E+00 0. -1.
</event>
<event>
 7    1  0.3758561E-013  0.7246165E+02  0.7816164E-02  0.1226708E+00
        -11   -1    0    0    0    0  0.00000000000E+00  0.00000000000E+00  0.45593999997E+02  0.45594000000E+02  0.51100000000E-03 0. -1.
         11   -1    0    0    0    0 -0.00000000000E+00 -0.00000000000E+00 -0.45593999997E+02  0.45594000000E+02  0.51100000000E-03 0.  1.
    9900012    2    1    2    0    0 -0.81715754835E+01 -0.15315573811E+02 -0.70238766045E+01  0.72461647189E+02  0.70000100169E+02 0.  0.
        -12    1    1    2    0    0  0.81715754835E+01  0.15315573811E+02  0.70238766045E+01  0.18726352811E+02  0.00000000000E+00 0.  1.
         11    1    3    3    0    0  0.37895314596E+01 -0.43707197096E+01  0.16655156202E+02  0.17631164676E+02  0.51100000000E-03 0. -1.
        -11    1    3    3    0    0  0.12093450465E+02 -0.18447896562E+02 -0.30556055383E+01  0.22269107687E+02  0.51100000000E-03 0.  1.
        -12    1    3    3    0    0 -0.24054557408E+02  0.75030424601E+01 -0.20623427268E+02  0.32561374826E+02  0.00000000000E+00 0.  1.
</event>
<event>
 7    1  0.3758561E-013  0.7246155E+02  0.7816164E-02  0.1226708E+00
        -11   -1    0    0    0    0  0.00000000000E+00  0.00000000000E+00  0.45593999997E+02  0.45594000000E+02  0.51100000000E-03 0.  1.
         11   -1    0    0    0    0 -0.00000000000E+00 -0.00000000000E+00 -0.45593999997E+02  0.45594000000E+02  0.51100000000E-03 0. -1.
    9900012    2    1    2    0    0  0.82822103707E+00 -0.18320194587E+02 -0.37900684677E+01  0.72461545483E+02  0.69999967678E+02 0.  0.
        -12    1    1    2    0    0 -0.82822103707E+00  0.18320194587E+02  0.37900684677E+01  0.18726454517E+02  0.00000000000E+00 0.  1.
         11    1    3    3    0    0  0.20839157092E+02  0.82397829551E+01 -0.64482026259E+01  0.23318314880E+02  0.51100000000E-03 0. -1.
        -11    1    3    3    0    0 -0.41080823137E+01  0.83596655429E+00 -0.13106143399E+02  0.13760311603E+02  0.51100000000E-03 0.  1.
        -12    1    3    3    0    0 -0.15902853741E+02 -0.27395944097E+02  0.15764277557E+02  0.35382919000E+02  0.00000000000E+00 0.  1.
</event>
<event>
 7    1  0.3758561E-013  0.7246164E+02  0.7816164E-02  0.1226708E+00
        -11   -1    0    0    0    0  0.00000000000E+00  0.00000000000E+00  0.45593999997E+02  0.45594000000E+02  0.51100000000E-03 0.  1.
         11   -1    0    0    0    0 -0.00000000000E+00 -0.00000000000E+00 -0.45593999997E+02  0.45594000000E+02  0.51100000000E-03 0. -1.
    9900012    2    1    2    0    0 -0.69724468633E+01 -0.75174372490E+01 -0.15670028847E+02  0.72461636708E+02  0.70000086516E+02 0.  0.
        -12    1    1    2    0    0  0.69724468633E+01  0.75174372490E+01  0.15670028847E+02  0.18726363292E+02  0.00000000000E+00 0.  1.
         11    1    3    3    0    0 -0.31604430538E+01  0.23501999772E+00 -0.47252798990E+01  0.56896313660E+01  0.51100000000E-03 0. -1.
        -11    1    3    3    0    0 -0.17440861522E+02 -0.29428739154E+02  0.77414813590E+01  0.35073706287E+02  0.51100000000E-03 0.  1.
         12    1    3    3    0    0  0.13628857712E+02  0.21676281908E+02 -0.18686230307E+02  0.31698299055E+02  0.00000000000E+00 0. -1.
</event>
<event>
 7    1  0.3758561E-013  0.7246156E+02  0.7816164E-02  0.1226708E+00
        -11   -1    0    0    0    0  0.00000000000E+00  0.00000000000E+00  0.45593999997E+02  0.45594000000E+02  0.51100000000E-03 0.  1.
         11   -1    0    0    0    0 -0.00000000000E+00 -0.00000000000E+00 -0.45593999997E+02  0.45594000000E+02  0.51100000000E-03 0. -1.
    9900012    2    1    2    0    0  0.13317723266E+02  0.43621267009E+01 -0.12421339753E+02  0.72461559238E+02  0.69999985597E+02 0.  0.
        -12    1    1    2    0    0 -0.13317723266E+02 -0.43621267009E+01  0.12421339753E+02  0.18726440762E+02  0.00000000000E+00 0.  1.
         11    1    3    3    0    0 -0.23705861357E+02  0.51344552699E+01 -0.43312234142E+01  0.24639196215E+02  0.51100000000E-03 0. -1.
        -11    1    3    3    0    0 -0.21241549135E+01 -0.44934092362E+01  0.43212515451E+01  0.65860440203E+01  0.51100000000E-03 0.  1.
        -12    1    3    3    0    0  0.39147739537E+02  0.37210806672E+01 -0.12411367884E+02  0.41236319003E+02  0.00000000000E+00 0.  1.
</event>
<event>
 7    1  0.3758561E-013  0.7246162E+02  0.7816164E-02  0.1226708E+00
        -11   -1    0    0    0    0  0.00000000000E+00  0.00000000000E+00  0.45593999997E+02  0.45594000000E+02  0.51100000000E-03 0.  1.
         11   -1    0    0    0    0 -0.00000000000E+00 -0.00000000000E+00 -0.45593999997E+02  0.45594000000E+02  0.51100000000E-03 0. -1.
    9900012    2    1    2    0    0  0.98048097697E+01 -0.14162626682E+02 -0.73459482702E+01  0.72461621676E+02  0.70000066934E+02 0.  0.
        -12    1    1    2    0    0 -0.98048097697E+01  0.14162626682E+02  0.73459482702E+01  0.18726378324E+02  0.00000000000E+00 0.  1.
         11    1    3    3    0    0  0.10042502774E+02  0.67219838443E+01 -0.10143878383E+02  0.15777680364E+02  0.51100000000E-03 0. -1.
        -11    1    3    3    0    0  0.19327943420E+02  0.44615341428E+01  0.12231051148E+02  0.23303933062E+02  0.51100000000E-03 0.  1.
        -12    1    3    3    0    0 -0.19565636423E+02 -0.25346144669E+02 -0.94331210351E+01  0.33380008249E+02  0.00000000000E+00 0.  1.
</event>
<event>
 7    1  0.3758561E-013  0.7246154E+02  0.7816164E-02  0.1226708E+00
        -11   -1    0    0    0    0  0.00000000000E+00  0.00000000000E+00  0.45593999997E+02  0.45594000000E+02  0.51100000000E-03 0. -1.
         11   -1    0    0    0    0 -0.00000000000E+00 -0.00000000000E+00 -0.45593999997E+02  0.45594000000E+02  0.51100000000E-03 0.  1.
    9900012    2    1    2    0    0 -0.43032108062E+01  0.14095052063E+02 -0.11553885649E+02  0.72461537721E+02  0.69999957568E+02 0.  0.
        -12    1    1    2    0    0  0.43032108062E+01 -0.14095052063E+02  0.11553885649E+02  0.18726462279E+02  0.00000000000E+00 0.  1.
         11    1    3    3    0    0 -0.43454491409E+01 -0.45047423862E+01  0.57169027134E+01  0.84769457411E+01  0.51100000000E-03 0. -1.
        -11    1    3    3    0    0 -0.10255106732E+02 -0.16174708290E+02 -0.19904445010E+02  0.27622008141E+02  0.51100000000E-03 0.  1.
        -12    1    3    3    0    0  0.10297345066E+02  0.34774502739E+02  0.26336566476E+01  0.36362583839E+02  0.00000000000E+00 0.  1.
</event>
<event>
 7    1  0.3758561E-013  0.7246158E+02  0.7816164E-02  0.1226708E+00
        -11   -1    0    0    0    0  0.00000000000E+00  0.00000000000E+00  0.45593999997E+02  0.45594000000E+02  0.51100000000E-03 0. -1.
         11   -1    0    0    0    0 -0.00000000000E+00 -0.00000000000E+00 -0.45593999997E+02  0.45594000000E+02  0.51100000000E-03 0.  1.
    9900012    2    1    2    0    0 -0.13124963761E+02  0.50125586827E+01  0.12380965644E+02  0.72461582069E+02  0.70000015338E+02 0.  0.
        -12    1    1    2    0    0  0.13124963761E+02 -0.50125586827E+01 -0.12380965644E+02  0.18726417931E+02  0.00000000000E+00 0.  1.
         11    1    3    3    0    0 -0.12168067099E+02 -0.18827516626E+02  0.96462686545E+00  0.22438086917E+02  0.51100000000E-03 0. -1.
        -11    1    3    3    0    0 -0.10214047948E+02 -0.95654505470E+01  0.23125247939E+01  0.14183525332E+02  0.51100000000E-03 0.  1.
        -12    1    3    3    0    0  0.92571512864E+01  0.33405525856E+02  0.91038139842E+01  0.35839969820E+02  0.00000000000E+00 0.  1.
</event>
<event>
 7    1  0.3758561E-013  0.7246161E+02  0.7816164E-02  0.1226708E+00
        -11   -1    0    0    0    0  0.00000000000E+00  0.00000000000E+00  0.45593999997E+02  0.45594000000E+02  0.51100000000E-03 0.  1.
         11   -1    0    0    0    0 -0.00000000000E+00 -0.00000000000E+00 -0.45593999997E+02  0.45594000000E+02  0.51100000000E-03 0. -1.
    9900012    2    1    2    0    0  0.47663510771E+01 -0.66926324935E+01 -0.16827604853E+02  0.72461609067E+02  0.70000050509E+02 0.  0.
        -12    1    1    2    0    0 -0.47663510771E+01  0.66926324935E+01  0.16827604853E+02  0.18726390933E+02  0.00000000000E+00 0.  1.
         11    1    3    3    0    0  0.65957764716E+01  0.41161545763E+01 -0.25115784981E+02  0.26291627018E+02  0.51100000000E-03 0. -1.
        -11    1    3    3    0    0  0.92587085686E+01 -0.12321946064E+02 -0.14259862631E+02  0.20997564661E+02  0.51100000000E-03 0.  1.
        -12    1    3    3    0    0 -0.11088133963E+02  0.15131589942E+01  0.22548042760E+02  0.25172417389E+02  0.00000000000E+00 0.  1.
</event>
<event>
 7    1  0.4897183E-013  0.7246156E+02  0.7816164E-02  0.1226708E+00
        -11   -1    0    0    0    0  0.00000000000E+00  0.00000000000E+00  0.45593999997E+02  0.45594000000E+02  0.51100000000E-03 0. -1.
         11   -1    0    0    0    0 -0.00000000000E+00 -0.00000000000E+00 -0.45593999997E+02  0.45594000000E+02  0.51100000000E-03 0.  1.
    9900012    2    1    2    0    0 -0.10200308920E+02 -0.14142632739E+00  0.15703924620E+02  0.72461560084E+02  0.69999986699E+02 0.  0.
        -12    1    1    2    0    0  0.10200308920E+02  0.14142632739E+00 -0.15703924620E+02  0.18726439916E+02  0.00000000000E+00 0.  1.
         11    1    3    3    0    0  0.34370123036E+01  0.91828303849E+01  0.38040133545E+02  0.39283446740E+02  0.51100000000E-03 0. -1.
        -11    1    3    3    0    0  0.31678521712E+01 -0.20102234074E+01  0.62031031352E+00  0.38027714462E+01  0.51100000000E-03 0.  1.
        -12    1    3    3    0    0 -0.16805173395E+02 -0.73140333049E+01 -0.22956519238E+02  0.29375341897E+02  0.00000000000E+00 0.  1.
</event>
<event>
 7    1  0.3758561E-013  0.7246173E+02  0.7816164E-02  0.1226708E+00
        -11   -1    0    0    0    0  0.00000000000E+00  0.00000000000E+00  0.45593999997E+02  0.45594000000E+02  0.51100000000E-03 0.  1.
         11   -1    0    0    0    0 -0.00000000000E+00 -0.00000000000E+00 -0.45593999997E+02  0.45594000000E+02  0.51100000000E-03 0. -1.
    9900012    2    1    2    0    0 -0.50350851768E+01 -0.14297574908E+02 -0.10995469948E+02  0.72461732610E+02  0.70000211446E+02 0.  0.
        -12    1    1    2    0    0  0.50350851768E+01  0.14297574908E+02  0.10995469948E+02  0.18726267390E+02  0.00000000000E+00 0.  1.
         11    1    3    3    0    0  0.97895977760E+01  0.17997586546E+02 -0.11177488140E+02  0.23338500112E+02  0.51100000000E-03 0. -1.
        -11    1    3    3    0    0 -0.68350425527E+01  0.62653294012E+01 -0.26460905905E+01  0.96423002896E+01  0.51100000000E-03 0.  1.
        -12    1    3    3    0    0 -0.79896404001E+01 -0.38560490855E+02  0.28281087827E+01  0.39480932208E+02  0.00000000000E+00 0.  1.
</event>
<event>
 7    1  0.3758561E-013  0.7246173E+02  0.7816164E-02  0.1226708E+00
        -11   -1    0    0    0    0  0.00000000000E+00  0.00000000000E+00  0.45593999997E+02  0.45594000000E+02  0.51100000000E-03 0.  1.
         11   -1    0    0    0    0 -0.00000000000E+00 -0.00000000000E+00 -0.45593999997E+02  0.45594000000E+02  0.51100000000E-03 0. -1.
    9900012    2    1    2    0    0 -0.78779820633E+01  0.91268880754E+01 -0.14328660013E+02  0.72461730081E+02  0.70000208151E+02 0.  0.
        -12    1    1    2    0    0  0.78779820633E+01 -0.91268880754E+01  0.14328660013E+02  0.18726269919E+02  0.00000000000E+00 0.  1.
         11    1    3    3    0    0  0.12299488555E+02  0.25553165776E+02 -0.17832407849E+02  0.33499798057E+02  0.51100000000E-03 0. -1.
        -11    1    3    3    0    0 -0.29214321801E+01  0.62973945371E+01 -0.56988034153E+01  0.89815535720E+01  0.51100000000E-03 0.  1.
        -12    1    3    3    0    0 -0.17256038438E+02 -0.22723672238E+02  0.92025512518E+01  0.29980378452E+02  0.00000000000E+00 0.  1.
</event>
<event>
 7    1  0.3758561E-013  0.7246158E+02  0.7816164E-02  0.1226708E+00
        -11   -1    0    0    0    0  0.00000000000E+00  0.00000000000E+00  0.45593999997E+02  0.45594000000E+02  0.51100000000E-03 0.  1.
         11   -1    0    0    0    0 -0.00000000000E+00 -0.00000000000E+00 -0.45593999997E+02  0.45594000000E+02  0.51100000000E-03 0. -1.
    9900012    2    1    2    0    0 -0.71576447871E+01 -0.92221803305E+01 -0.14642342246E+02  0.72461583488E+02  0.70000017187E+02 0.  0.
        -12    1    1    2    0    0  0.71576447871E+01  0.92221803305E+01  0.14642342246E+02  0.18726416512E+02  0.00000000000E+00 0.  1.
         11    1    3    3    0    0 -0.12006052840E+02  0.11474230361E+02 -0.17467239629E+02  0.24102027460E+02  0.51100000000E-03 0. -1.
        -11    1    3    3    0    0 -0.13824416763E+02  0.63130315234E+01  0.31572870985E+01  0.15522156034E+02  0.51100000000E-03 0.  1.
         12    1    3    3    0    0  0.18672824817E+02 -0.27009442215E+02 -0.33238971541E+00  0.32837399993E+02  0.00000000000E+00 0. -1.
</event>
<event>
 7    1  0.3758561E-013  0.7246155E+02  0.7816164E-02  0.1226708E+00
        -11   -1    0    0    0    0  0.00000000000E+00  0.00000000000E+00  0.45593999997E+02  0.45594000000E+02  0.51100000000E-03 0.  1.
         11   -1    0    0    0    0 -0.00000000000E+00 -0.00000000000E+00 -0.45593999997E+02  0.45594000000E+02  0.51100000000E-03 0. -1.
    9900012    2    1    2    0    0 -0.17431651255E+02  0.67589248490E+01  0.10651623385E+01  0.72461545413E+02  0.69999967587E+02 0.  0.
        -12    1    1    2    0    0  0.17431651255E+02 -0.67589248490E+01 -0.10651623385E+01  0.18726454587E+02  0.00000000000E+00 0.  1.
         11    1    3    3    0    0  0.16833833080E+02  0.17825910958E+01 -0.11066441543E+02  0.20224284805E+02  0.51100000000E-03 0. -1.
        -11    1    3    3    0    0 -0.28447911444E+02  0.12619797735E+02 -0.60222840706E+01  0.31698751807E+02  0.51100000000E-03 0.  1.
         12    1    3    3    0    0 -0.58175728914E+01 -0.76434639821E+01  0.18153887952E+02  0.20538508801E+02  0.00000000000E+00 0. -1.
</event>
<event>
 7    1  0.3758561E-013  0.7246161E+02  0.7816164E-02  0.1226708E+00
        -11   -1    0    0    0    0  0.00000000000E+00  0.00000000000E+00  0.45593999997E+02  0.45594000000E+02  0.51100000000E-03 0.  1.
         11   -1    0    0    0    0 -0.00000000000E+00 -0.00000000000E+00 -0.45593999997E+02  0.45594000000E+02  0.51100000000E-03 0. -1.
    9900012    2    1    2    0    0  0.12925428928E+02 -0.13097505414E+02 -0.34736484860E+01  0.72461612339E+02  0.70000054771E+02 0.  0.
        -12    1    1    2    0    0 -0.12925428928E+02  0.13097505414E+02  0.34736484860E+01  0.18726387661E+02  0.00000000000E+00 0.  1.
         11    1    3    3    0    0 -0.13468777258E+02  0.35115895396E+01 -0.85149345014E+01  0.16316964539E+02  0.51100000000E-03 0. -1.
        -11    1    3    3    0    0  0.49556725230E+01  0.11506198049E+01  0.22643172537E+02  0.23207668536E+02  0.51100000000E-03 0.  1.
        -12    1    3    3    0    0  0.21438533664E+02 -0.17759714758E+02 -0.17601886521E+02  0.32936979264E+02  0.00000000000E+00 0.  1.
</event>
<event>
 7    1  0.3758561E-013  0.7246161E+02  0.7816164E-02  0.1226708E+00
        -11   -1    0    0    0    0  0.00000000000E+00  0.00000000000E+00  0.45593999997E+02  0.45594000000E+02  0.51100000000E-03 0. -1.
         11   -1    0    0    0    0 -0.00000000000E+00 -0.00000000000E+00 -0.45593999997E+02  0.45594000000E+02  0.51100000000E-03 0.  1.
    9900012    2    1    2    0    0  0.50325224013E+01 -0.16431870769E+02  0.74394293802E+01  0.72461607711E+02  0.70000048742E+02 0.  0.
        -12    1    1    2    0    0 -0.50325224013E+01  0.16431870769E+02 -0.74394293802E+01  0.18726392289E+02  0.00000000000E+00 0.  1.
         11    1    3    3    0    0  0.15528642172E+01 -0.13448223011E+02 -0.39698487523E+01  0.14107650010E+02  0.51100000000E-03 0. -1.
        -11    1    3    3    0    0  0.25091819945E+02 -0.93283191007E+01  0.20849877733E+02  0.33931318382E+02  0.51100000000E-03 0.  1.
        -12    1    3    3    0    0 -0.21612161761E+02  0.63446713432E+01 -0.94405996007E+01  0.24422639318E+02  0.00000000000E+00 0.  1.
</event>
<event>
 7    1  0.3758561E-013  0.7246159E+02  0.7816164E-02  0.1226708E+00
        -11   -1    0    0    0    0  0.00000000000E+00  0.00000000000E+00  0.45593999997E+02  0.45594000000E+02  0.51100000000E-03 0. -1.
         11   -1    0    0    0    0 -0.00000000000E+00 -0.00000000000E+00 -0.45593999997E+02  0.45594000000E+02  0.51100000000E-03 0.  1.
    9900012    2    1    2    0    0 -0.17613829863E+02 -0.38112429645E+01  0.50897823172E+01  0.72461589255E+02  0.70000024700E+02 0.  0.
        -12    1    1    2    0    0  0.17613829863E+02  0.38112429645E+01 -0.50897823172E+01  0.18726410745E+02  0.00000000000E+00 0.  1.
         11    1    3    3    0    0  0.12033259177E+01 -0.53647595240E+01  0.70500826501E+01  0.89404867680E+01  0.51100000000E-03 0. -1.
        -11    1    3    3    0    0  0.12860664873E+02  0.22125769189E+02 -0.27647634678E+01  0.25740829056E+02  0.51100000000E-03 0.  1.
         12    1    3    3    0    0 -0.31677820654E+02 -0.20572252629E+02  0.80446313483E+00  0.37780273431E+02  0.00000000000E+00 0. -1.
</event>
<event>
 7    1  0.3758561E-013  0.7246158E+02  0.7816164E-02  0.1226708E+00
        -11   -1    0    0    0    0  0.00000000000E+00  0.00000000000E+00  0.45593999997E+02  0.45594000000E+02  0.51100000000E-03 0.  1.
         11   -1    0    0    0    0 -0.00000000000E+00 -0.00000000000E+00 -0.45593999997E+02  0.45594000000E+02  0.51100000000E-03 0. -1.
    9900012    2    1    2    0    0 -0.90436691354E+01  0.39037676822E+01 -0.15926435604E+02  0.72461582708E+02  0.70000016171E+02 0.  0.
        -12    1    1    2    0    0  0.90436691354E+01 -0.39037676822E+01  0.15926435604E+02  0.18726417292E+02  0.00000000000E+00 0.  1.
         11    1    3    3    0    0 -0.88227785245E+00 -0.52194011944E+01  0.22795923810E+01  0.57634282091E+01  0.51100000000E-03 0. -1.
        -11    1    3    3    0    0 -0.11072279030E+02 -0.25957118468E+02 -0.30889044502E+01  0.28388531013E+02  0.51100000000E-03 0.  1.
         12    1    3    3    0    0  0.29108877474E+01  0.35080287345E+02 -0.15117123535E+02  0.38309623486E+02  0.00000000000E+00 0. -1.
</event>
<event>
 7    1  0.3758561E-013  0.7246157E+02  0.7816164E-02  0.1226708E+00
        -11   -1    0    0    0    0  0.00000000000E+00  0.00000000000E+00  0.45593999997E+02  0.45594000000E+02  0.51100000000E-03 0.  1.
         11   -1    0    0    0    0 -0.00000000000E+00 -0.00000000000E+00 -0.45593999997E+02  0.45594000000E+02  0.51100000000E-03 0. -1.
    9900012    2    1    2    0    0 -0.11946563568E+02 -0.31447913170E+01 -0.14073696322E+02  0.72461574242E+02  0.70000005142E+02 0.  0.
        -12    1    1    2    0    0  0.11946563568E+02  0.31447913170E+01  0.14073696322E+02  0.18726425758E+02  0.00000000000E+00 0.  1.
         11    1    3    3    0    0  0.55495754208E+01  0.43787697126E+01 -0.26055908871E+02  0.26997811002E+02  0.51100000000E-03 0. -1.
        -11    1    3    3    0    0 -0.26613969678E+02  0.29443214828E+01 -0.52055877239E+00  0.26781400126E+02  0.51100000000E-03 0.  1.
        -12    1    3    3    0    0  0.91178306890E+01 -0.10467882512E+02  0.12502771322E+02  0.18682363113E+02  0.00000000000E+00 0.  1.
</event>
<event>
 7    1  0.3758561E-013  0.7246164E+02  0.7816164E-02  0.1226708E+00
        -11   -1    0    0    0    0  0.00000000000E+00  0.00000000000E+00  0.45593999997E+02  0.45594000000E+02  0.51100000000E-03 0. -1.
         11   -1    0    0    0    0 -0.00000000000E+00 -0.00000000000E+00 -0.45593999997E+02  0.45594000000E+02  0.51100000000E-03 0.  1.
    9900012    2    1    2    0    0  0.25569521517E+00  0.16260619428E+02  0.92845736748E+01  0.72461643373E+02  0.70000095198E+02 0.  0.
        -12    1    1    2    0    0 -0.25569521517E+00 -0.16260619428E+02 -0.92845736748E+01  0.18726356627E+02  0.00000000000E+00 0.  1.
         11    1    3    3    0    0  0.15323640636E+02  0.45174918162E+01  0.90453079469E+01  0.18358629872E+02  0.51100000000E-03 0. -1.
        -11    1    3    3    0    0  0.13994775412E+02  0.17115179104E+02  0.80581717589E+01  0.23531196888E+02  0.51100000000E-03 0.  1.
        -12    1    3    3    0    0 -0.29062720833E+02 -0.53720514930E+01 -0.78189060309E+01  0.30571816613E+02  0.00000000000E+00 0.  1.
</event>
<event>
 7    1  0.3758561E-013  0.7246114E+02  0.7816164E-02  0.1226709E+00
        -11   -1    0    0    0    0  0.00000000000E+00  0.00000000000E+00  0.45593999997E+02  0.45594000000E+02  0.51100000000E-03 0.  1.
         11   -1    0    0    0    0 -0.00000000000E+00 -0.00000000000E+00 -0.45593999997E+02  0.45594000000E+02  0.51100000000E-03 0. -1.
    9900012    2    1    2    0    0  0.15060891851E+02  0.10387792460E+02 -0.39948414112E+01  0.72461135515E+02  0.69999433616E+02 0.  0.
        -12    1    1    2    0    0 -0.15060891851E+02 -0.10387792460E+02  0.39948414112E+01  0.18726864485E+02  0.00000000000E+00 0.  1.
         11    1    3    3    0    0 -0.63491783381E+00  0.26050844690E+01  0.22260381725E+01  0.34849436083E+01  0.51100000000E-03 0. -1.
        -11    1    3    3    0    0  0.26631887307E+02  0.29754169903E+02 -0.15363988610E+02  0.42785747562E+02  0.51100000000E-03 0.  1.
         12    1    3    3    0    0 -0.10936077622E+02 -0.21971461911E+02  0.91431090266E+01  0.26190444344E+02  0.00000000000E+00 0. -1.
</event>
<event>
 7    1  0.3758561E-013  0.7246158E+02  0.7816164E-02  0.1226708E+00
        -11   -1    0    0    0    0  0.00000000000E+00  0.00000000000E+00  0.45593999997E+02  0.45594000000E+02  0.51100000000E-03 0. -1.
         11   -1    0    0    0    0 -0.00000000000E+00 -0.00000000000E+00 -0.45593999997E+02  0.45594000000E+02  0.51100000000E-03 0.  1.
    9900012    2    1    2    0    0  0.13974612117E+02  0.10768617273E+02 -0.62789929210E+01  0.72461584062E+02  0.70000017934E+02 0.  0.
        -12    1    1    2    0    0 -0.13974612117E+02 -0.10768617273E+02  0.62789929210E+01  0.18726415938E+02  0.00000000000E+00 0.  1.
         11    1    3    3    0    0  0.27035452108E+02 -0.84886582147E+01 -0.42874466978E+01  0.28659294974E+02  0.51100000000E-03 0. -1.
        -11    1    3    3    0    0  0.98212231983E+01  0.21759835119E+00 -0.88866597970E+01  0.13246754197E+02  0.51100000000E-03 0.  1.
         12    1    3    3    0    0 -0.22882063189E+02  0.19039677136E+02  0.68951135737E+01  0.30555534890E+02  0.00000000000E+00 0. -1.
</event>
<event>
 7    1  0.3758561E-013  0.7246164E+02  0.7816164E-02  0.1226708E+00
        -11   -1    0    0    0    0  0.00000000000E+00  0.00000000000E+00  0.45593999997E+02  0.45594000000E+02  0.51100000000E-03 0.  1.
         11   -1    0    0    0    0 -0.00000000000E+00 -0.00000000000E+00 -0.45593999997E+02  0.45594000000E+02  0.51100000000E-03 0. -1.
    9900012    2    1    2    0    0 -0.13089351815E+02  0.10162871283E+02 -0.87213243838E+01  0.72461639364E+02  0.70000089976E+02 0.  0.
        -12    1    1    2    0    0  0.13089351815E+02 -0.10162871283E+02  0.87213243838E+01  0.18726360636E+02  0.00000000000E+00 0.  1.
         11    1    3    3    0    0 -0.42952975785E+01 -0.13251680529E+02  0.41962143535E+01  0.14548705554E+02  0.51100000000E-03 0. -1.
        -11    1    3    3    0    0  0.32385403916E+01  0.16643606864E+02  0.17586858768E+02  0.24429396122E+02  0.51100000000E-03 0.  1.
         12    1    3    3    0    0 -0.12032594628E+02  0.67709449473E+01 -0.30504397505E+02  0.33483537688E+02  0.00000000000E+00 0. -1.
</event>
<event>
 7    1  0.3758561E-013  0.7246155E+02  0.7816164E-02  0.1226708E+00
        -11   -1    0    0    0    0  0.00000000000E+00  0.00000000000E+00  0.45593999997E+02  0.45594000000E+02  0.51100000000E-03 0. -1.
         11   -1    0    0    0    0 -0.00000000000E+00 -0.00000000000E+00 -0.45593999997E+02  0.45594000000E+02  0.51100000000E-03 0.  1.
    9900012    2    1    2    0    0 -0.15420903552E+02  0.43056495519E+00  0.10615560935E+02  0.72461553821E+02  0.69999978540E+02 0.  0.
        -12    1    1    2    0    0  0.15420903552E+02 -0.43056495519E+00 -0.10615560935E+02  0.18726446179E+02  0.00000000000E+00 0.  1.
         11    1    3    3    0    0 -0.19348481783E+02 -0.13121407201E+02  0.26722873124E+02  0.35505591426E+02  0.51100000000E-03 0. -1.
        -11    1    3    3    0    0 -0.12077152845E+02  0.12227600225E+02 -0.88852994315E+01  0.19347360914E+02  0.51100000000E-03 0.  1.
        -12    1    3    3    0    0  0.16004731076E+02  0.13243719309E+01 -0.72220127575E+01  0.17608601480E+02  0.00000000000E+00 0.  1.
</event>
<event>
 7    1  0.3758561E-013  0.7246161E+02  0.7816164E-02  0.1226708E+00
        -11   -1    0    0    0    0  0.00000000000E+00  0.00000000000E+00  0.45593999997E+02  0.45594000000E+02  0.51100000000E-03 0. -1.
         11   -1    0    0    0    0 -0.00000000000E+00 -0.00000000000E+00 -0.45593999997E+02  0.45594000000E+02  0.51100000000E-03 0.  1.
    9900012    2    1    2    0    0 -0.15565717264E+02 -0.69731366931E+01  0.77305586031E+01  0.72461608848E+02  0.70000050223E+02 0.  0.
        -12    1    1    2    0    0  0.15565717264E+02  0.69731366931E+01 -0.77305586031E+01  0.18726391152E+02  0.00000000000E+00 0.  1.
         11    1    3    3    0    0  0.49508039353E+01  0.12129172946E+02  0.12891944631E+02  0.18380139624E+02  0.51100000000E-03 0. -1.
        -11    1    3    3    0    0 -0.21677007925E+02  0.51602864333E+01  0.11056082365E+02  0.24874850476E+02  0.51100000000E-03 0.  1.
        -12    1    3    3    0    0  0.11604867261E+01 -0.24262596073E+02 -0.16217468393E+02  0.29206618748E+02  0.00000000000E+00 0.  1.
</event>
<event>
 7    1  0.3758561E-013  0.7246158E+02  0.7816164E-02  0.1226708E+00
        -11   -1    0    0    0    0  0.00000000000E+00  0.00000000000E+00  0.45593999997E+02  0.45594000000E+02  0.51100000000E-03 0.  1.
         11   -1    0    0    0    0 -0.00000000000E+00 -0.00000000000E+00 -0.45593999997E+02  0.45594000000E+02  0.51100000000E-03 0. -1.
    9900012    2    1    2    0    0  0.11811534969E+00 -0.95877216562E+01 -0.16085415342E+02  0.72461576302E+02  0.70000007826E+02 0.  0.
        -12    1    1    2    0    0 -0.11811534969E+00  0.95877216562E+01  0.16085415342E+02  0.18726423698E+02  0.00000000000E+00 0.  1.
         11    1    3    3    0    0  0.36173130854E+01  0.11817265521E+02 -0.84450330792E+01  0.14968343339E+02  0.51100000000E-03 0. -1.
        -11    1    3    3    0    0  0.42995289349E+01 -0.24880667898E+02 -0.26614820402E+02  0.36686267859E+02  0.51100000000E-03 0.  1.
        -12    1    3    3    0    0 -0.77987266706E+01  0.34756807213E+01  0.18974438139E+02  0.20806965105E+02  0.00000000000E+00 0.  1.
</event>
<event>
 7    1  0.3758561E-013  0.7246156E+02  0.7816164E-02  0.1226708E+00
        -11   -1    0    0    0    0  0.00000000000E+00  0.00000000000E+00  0.45593999997E+02  0.45594000000E+02  0.51100000000E-03 0.  1.
         11   -1    0    0    0    0 -0.00000000000E+00 -0.00000000000E+00 -0.45593999997E+02  0.45594000000E+02  0.51100000000E-03 0. -1.
    9900012    2    1    2    0    0  0.17810853304E+02  0.45795441622E+01 -0.35328112137E+01  0.72461562132E+02  0.69999989367E+02 0.  0.
        -12    1    1    2    0    0 -0.17810853304E+02 -0.45795441622E+01  0.35328112137E+01  0.18726437868E+02  0.00000000000E+00 0.  1.
         11    1    3    3    0    0 -0.17557402700E+02  0.30718290989E+01  0.13468253390E+01  0.17874911534E+02  0.51100000000E-03 0. -1.
        -11    1    3    3    0    0  0.31301872946E+01 -0.16664826662E+02  0.15427087287E+01  0.17026287636E+02  0.51100000000E-03 0.  1.
         12    1    3    3    0    0  0.32238068710E+02  0.18172541725E+02 -0.64223452814E+01  0.37560362962E+02  0.00000000000E+00 0. -1.
</event>
<event>
 7    1  0.3758561E-013  0.7246158E+02  0.7816164E-02  0.1226708E+00
        -11   -1    0    0    0    0  0.00000000000E+00  0.00000000000E+00  0.45593999997E+02  0.45594000000E+02  0.51100000000E-03 0.  1.
         11   -1    0    0    0    0 -0.00000000000E+00 -0.00000000000E+00 -0.45593999997E+02  0.45594000000E+02  0.51100000000E-03 0. -1.
    9900012    2    1    2    0    0  0.36428770956E+01 -0.14695581387E+02 -0.11020356569E+02  0.72461576830E+02  0.70000008514E+02 0.  0.
        -12    1    1    2    0    0 -0.36428770956E+01  0.14695581387E+02  0.11020356569E+02  0.18726423170E+02  0.00000000000E+00 0.  1.
         11    1    3    3    0    0 -0.21437946831E+02 -0.16999267855E+01  0.48898031872E+01  0.22054149063E+02  0.51100000000E-03 0. -1.
        -11    1    3    3    0    0 -0.43842756756E+01  0.44174287308E+01 -0.14921344605E+02  0.16167315017E+02  0.51100000000E-03 0.  1.
        -12    1    3    3    0    0  0.29465099603E+02 -0.17413083332E+02 -0.98881515167E+00  0.34240112750E+02  0.00000000000E+00 0.  1.
</event>
<event>
 7    1  0.3758561E-013  0.7246164E+02  0.7816164E-02  0.1226708E+00
        -11   -1    0    0    0    0  0.00000000000E+00  0.00000000000E+00  0.45593999997E+02  0.45594000000E+02  0.51100000000E-03 0. -1.
         11   -1    0    0    0    0 -0.00000000000E+00 -0.00000000000E+00 -0.45593999997E+02  0.45594000000E+02  0.51100000000E-03 0.  1.
    9900012    2    1    2    0    0  0.11454585863E+02 -0.87679769114E+01  0.11941174051E+02  0.72461639058E+02  0.70000089578E+02 0.  0.
        -12    1    1    2    0    0 -0.11454585863E+02  0.87679769114E+01 -0.11941174051E+02  0.18726360942E+02  0.00000000000E+00 0.  1.
         11    1    3    3    0    0  0.27904849673E+02 -0.32399823300E+01 -0.36884599449E+00  0.28094735600E+02  0.51100000000E-03 0. -1.
        -11    1    3    3    0    0 -0.97004730068E+01  0.16058343038E+02  0.10919317683E+02  0.21707166020E+02  0.51100000000E-03 0.  1.
         12    1    3    3    0    0 -0.67497908035E+01 -0.21586337620E+02  0.13907023623E+01  0.22659737439E+02  0.00000000000E+00 0. -1.
</event>
<event>
 7    1  0.3758561E-013  0.7246202E+02  0.7816164E-02  0.1226707E+00
        -11   -1    0    0    0    0  0.00000000000E+00  0.00000000000E+00  0.45593999997E+02  0.45594000000E+02  0.51100000000E-03 0.  1.
         11   -1    0    0    0    0 -0.00000000000E+00 -0.00000000000E+00 -0.45593999997E+02  0.45594000000E+02  0.51100000000E-03 0. -1.
    9900012    2    1    2    0    0 -0.45802812168E-01  0.38457025520E+01 -0.18326775007E+02  0.72462023172E+02  0.70000589955E+02 0.  0.
        -12    1    1    2    0    0  0.45802812168E-01 -0.38457025520E+01  0.18326775007E+02  0.18725976828E+02  0.00000000000E+00 0.  1.
         11    1    3    3    0    0  0.49283846154E+01 -0.84612100457E+01 -0.36959895215E+02  0.38234995814E+02  0.51100000000E-03 0. -1.
        -11    1    3    3    0    0 -0.19052935531E+01 -0.79733934609E+01  0.54788619658E+01  0.98601762411E+01  0.51100000000E-03 0.  1.
        -12    1    3    3    0    0 -0.30688938745E+01  0.20280306059E+02  0.13154258242E+02  0.24366851117E+02  0.00000000000E+00 0.  1.
</event>
<event>
 7    1  0.3758561E-013  0.7246160E+02  0.7816164E-02  0.1226708E+00
        -11   -1    0    0    0    0  0.00000000000E+00  0.00000000000E+00  0.45593999997E+02  0.45594000000E+02  0.51100000000E-03 0.  1.
         11   -1    0    0    0    0 -0.00000000000E+00 -0.00000000000E+00 -0.45593999997E+02  0.45594000000E+02  0.51100000000E-03 0. -1.
    9900012    2    1    2    0    0  0.17276925621E+02  0.83698066412E+00  0.71753426956E+01  0.72461595157E+02  0.70000032388E+02 0.  0.
        -12    1    1    2    0    0 -0.17276925621E+02 -0.83698066412E+00 -0.71753426956E+01  0.18726404843E+02  0.00000000000E+00 0.  1.
         11    1    3    3    0    0 -0.12208713758E+02 -0.12391306440E+02  0.10541177147E+02  0.20339950413E+02  0.51100000000E-03 0. -1.
        -11    1    3    3    0    0 -0.30695492614E+00  0.20796195358E+02  0.20872482840E+01  0.20902932052E+02  0.51100000000E-03 0.  1.
        -12    1    3    3    0    0  0.29792594305E+02 -0.75679082545E+01 -0.54530827357E+01  0.31218712692E+02  0.00000000000E+00 0.  1.
</event>
<event>
 7    1  0.3758561E-013  0.7246161E+02  0.7816164E-02  0.1226708E+00
        -11   -1    0    0    0    0  0.00000000000E+00  0.00000000000E+00  0.45593999997E+02  0.45594000000E+02  0.51100000000E-03 0. -1.
         11   -1    0    0    0    0 -0.00000000000E+00 -0.00000000000E+00 -0.45593999997E+02  0.45594000000E+02  0.51100000000E-03 0.  1.
    9900012    2    1    2    0    0 -0.14027359056E+02 -0.11138730627E+02  0.54625518444E+01  0.72461612342E+02  0.70000054775E+02 0.  0.
        -12    1    1    2    0    0  0.14027359056E+02  0.11138730627E+02 -0.54625518444E+01  0.18726387658E+02  0.00000000000E+00 0.  1.
         11    1    3    3    0    0 -0.23286478116E+02 -0.24361093817E+02  0.11125104371E+02  0.35489306876E+02  0.51100000000E-03 0. -1.
        -11    1    3    3    0    0 -0.70403252442E+01 -0.72075562596E+01 -0.38088079631E+01  0.10771353914E+02  0.51100000000E-03 0.  1.
         12    1    3    3    0    0  0.16299444303E+02  0.20429919450E+02 -0.18537445637E+01  0.26200951552E+02  0.00000000000E+00 0. -1.
</event>
<event>
 7    1  0.3758561E-013  0.7246161E+02  0.7816164E-02  0.1226708E+00
        -11   -1    0    0    0    0  0.00000000000E+00  0.00000000000E+00  0.45593999997E+02  0.45594000000E+02  0.51100000000E-03 0.  1.
         11   -1    0    0    0    0 -0.00000000000E+00 -0.00000000000E+00 -0.45593999997E+02  0.45594000000E+02  0.51100000000E-03 0. -1.
    9900012    2    1    2    0    0  0.73695802935E+01 -0.17196144491E+02  0.81224840612E+00  0.72461605618E+02  0.70000046016E+02 0.  0.
        -12    1    1    2    0    0 -0.73695802935E+01  0.17196144491E+02 -0.81224840612E+00  0.18726394382E+02  0.00000000000E+00 0.  1.
         11    1    3    3    0    0 -0.14563627229E+01  0.39890860071E+01 -0.13385746548E+02  0.14043219377E+02  0.51100000000E-03 0. -1.
        -11    1    3    3    0    0 -0.82811761232E+01 -0.10031966055E+02 -0.16831014594E+02  0.21272077318E+02  0.51100000000E-03 0.  1.
        -12    1    3    3    0    0  0.17107119140E+02 -0.11153264444E+02  0.31029009549E+02  0.37146308923E+02  0.00000000000E+00 0.  1.
</event>
<event>
 7    1  0.3758561E-013  0.7246161E+02  0.7816164E-02  0.1226708E+00
        -11   -1    0    0    0    0  0.00000000000E+00  0.00000000000E+00  0.45593999997E+02  0.45594000000E+02  0.51100000000E-03 0. -1.
         11   -1    0    0    0    0 -0.00000000000E+00 -0.00000000000E+00 -0.45593999997E+02  0.45594000000E+02  0.51100000000E-03 0.  1.
    9900012    2    1    2    0    0  0.12190933497E+01  0.17574922554E+02  0.63492870013E+01  0.72461613888E+02  0.70000056789E+02 0.  0.
        -12    1    1    2    0    0 -0.12190933497E+01 -0.17574922554E+02 -0.63492870013E+01  0.18726386112E+02  0.00000000000E+00 0.  1.
         11    1    3    3    0    0  0.10961908396E+02 -0.14570880283E+02 -0.10440175081E+01  0.18263733483E+02  0.51100000000E-03 0. -1.
        -11    1    3    3    0    0 -0.14071113499E+02 -0.52615556380E+01  0.69153744546E+01  0.16537914225E+02  0.51100000000E-03 0.  1.
         12    1    3    3    0    0  0.43282984519E+01  0.37407358475E+02  0.47793005473E+00  0.37659966180E+02  0.00000000000E+00 0. -1.
</event>
<event>
 7    1  0.3758561E-013  0.7246160E+02  0.7816164E-02  0.1226708E+00
        -11   -1    0    0    0    0  0.00000000000E+00  0.00000000000E+00  0.45593999997E+02  0.45594000000E+02  0.51100000000E-03 0. -1.
         11   -1    0    0    0    0 -0.00000000000E+00 -0.00000000000E+00 -0.45593999997E+02  0.45594000000E+02  0.51100000000E-03 0.  1.
    9900012    2    1    2    0    0  0.31647673171E+01 -0.12727850654E+02  0.13366536911E+02  0.72461595021E+02  0.70000032211E+02 0.  0.
        -12    1    1    2    0    0 -0.31647673171E+01  0.12727850654E+02 -0.13366536911E+02  0.18726404979E+02  0.00000000000E+00 0.  1.
         11    1    3    3    0    0  0.10178241498E+02 -0.21329998273E+02  0.96425290305E+00  0.23653651098E+02  0.51100000000E-03 0. -1.
        -11    1    3    3    0    0  0.20852209870E+01 -0.15012431402E+02  0.17333199539E+02  0.23025226376E+02  0.51100000000E-03 0.  1.
        -12    1    3    3    0    0 -0.90986951681E+01  0.23614579022E+02 -0.49309155306E+01  0.25782717547E+02  0.00000000000E+00 0.  1.
</event>
<event>
 7    1  0.3758561E-013  0.7246162E+02  0.7816164E-02  0.1226708E+00
        -11   -1    0    0    0    0  0.00000000000E+00  0.00000000000E+00  0.45593999997E+02  0.45594000000E+02  0.51100000000E-03 0. -1.
         11   -1    0    0    0    0 -0.00000000000E+00 -0.00000000000E+00 -0.45593999997E+02  0.45594000000E+02  0.51100000000E-03 0.  1.
    9900012    2    1    2    0    0 -0.18355962009E+01  0.90798639931E+01  0.16274641397E+02  0.72461620314E+02  0.70000065160E+02 0.  0.
        -12    1    1    2    0    0  0.18355962009E+01 -0.90798639931E+01 -0.16274641397E+02  0.18726379686E+02  0.00000000000E+00 0.  1.
         11    1    3    3    0    0  0.11827738426E+02  0.27713145532E+02 -0.69324595624E+01  0.30918810252E+02  0.51100000000E-03 0. -1.
        -11    1    3    3    0    0  0.51415803239E+01 -0.10359901041E+01 -0.18970420100E+01  0.55774449680E+01  0.51100000000E-03 0.  1.
        -12    1    3    3    0    0 -0.18804914951E+02 -0.17597291434E+02  0.25104142970E+02  0.35965365094E+02  0.00000000000E+00 0.  1.
</event>
<event>
 7    1  0.3758561E-013  0.7246166E+02  0.7816164E-02  0.1226708E+00
        -11   -1    0    0    0    0  0.00000000000E+00  0.00000000000E+00  0.45593999997E+02  0.45594000000E+02  0.51100000000E-03 0. -1.
         11   -1    0    0    0    0 -0.00000000000E+00 -0.00000000000E+00 -0.45593999997E+02  0.45594000000E+02  0.51100000000E-03 0.  1.
    9900012    2    1    2    0    0 -0.10694542140E+02 -0.50860429680E+01  0.14506369334E+02  0.72461659837E+02  0.70000116646E+02 0.  0.
        -12    1    1    2    0    0  0.10694542140E+02  0.50860429680E+01 -0.14506369334E+02  0.18726340163E+02  0.00000000000E+00 0.  1.
         11    1    3    3    0    0 -0.93321251316E+01  0.90241013868E+01 -0.13069893623E+02  0.18421321475E+02  0.51100000000E-03 0. -1.
        -11    1    3    3    0    0 -0.64393582367E+01  0.54779038828E+01  0.32193426424E+02  0.33284973646E+02  0.51100000000E-03 0.  1.
        -12    1    3    3    0    0  0.50769412284E+01 -0.19588048237E+02 -0.46171634669E+01  0.20755364715E+02  0.00000000000E+00 0.  1.
</event>
<event>
 7    1  0.3758561E-013  0.7246171E+02  0.7816164E-02  0.1226708E+00
        -11   -1    0    0    0    0  0.00000000000E+00  0.00000000000E+00  0.45593999997E+02  0.45594000000E+02  0.51100000000E-03 0.  1.
         11   -1    0    0    0    0 -0.00000000000E+00 -0.00000000000E+00 -0.45593999997E+02  0.45594000000E+02  0.51100000000E-03 0. -1.
    9900012    2    1    2    0    0 -0.29829491718E+01 -0.12184687547E+02 -0.13903569894E+02  0.72461712269E+02  0.70000184948E+02 0.  0.
        -12    1    1    2    0    0  0.29829491718E+01  0.12184687547E+02  0.13903569894E+02  0.18726287731E+02  0.00000000000E+00 0.  1.
         11    1    3    3    0    0 -0.12709560959E+02 -0.49310745761E+01 -0.21598743097E+02  0.25541224322E+02  0.51100000000E-03 0. -1.
        -11    1    3    3    0    0  0.50924856829E+01  0.14738677787E+02 -0.98184643048E+01  0.18427269871E+02  0.51100000000E-03 0.  1.
         12    1    3    3    0    0  0.46341261048E+01 -0.21992290758E+02  0.17513637508E+02  0.28493218076E+02  0.00000000000E+00 0. -1.
</event>
<event>
 7    1  0.3758561E-013  0.7246167E+02  0.7816164E-02  0.1226708E+00
        -11   -1    0    0    0    0  0.00000000000E+00  0.00000000000E+00  0.45593999997E+02  0.45594000000E+02  0.51100000000E-03 0.  1.
         11   -1    0    0    0    0 -0.00000000000E+00 -0.00000000000E+00 -0.45593999997E+02  0.45594000000E+02  0.51100000000E-03 0. -1.
    9900012    2    1    2    0    0 -0.13079461574E+02 -0.23947487900E+00 -0.13399467688E+02  0.72461671005E+02  0.70000131195E+02 0.  0.
        -12    1    1    2    0    0  0.13079461574E+02  0.23947487900E+00  0.13399467688E+02  0.18726328995E+02  0.00000000000E+00 0.  1.
         11    1    3    3    0    0 -0.26879404519E+01 -0.25178557221E+01 -0.22458642707E+01  0.43137602963E+01  0.51100000000E-03 0. -1.
        -11    1    3    3    0    0  0.38630603833E+01 -0.24847701811E+02  0.13751030236E+02  0.28660466737E+02  0.51100000000E-03 0.  1.
         12    1    3    3    0    0 -0.14254581506E+02  0.27126082654E+02 -0.24904633653E+02  0.39487443972E+02  0.00000000000E+00 0. -1.
</event>
<event>
 7    1  0.3758561E-013  0.7246157E+02  0.7816164E-02  0.1226708E+00
        -11   -1    0    0    0    0  0.00000000000E+00  0.00000000000E+00  0.45593999997E+02  0.45594000000E+02  0.51100000000E-03 0.  1.
         11   -1    0    0    0    0 -0.00000000000E+00 -0.00000000000E+00 -0.45593999997E+02  0.45594000000E+02  0.51100000000E-03 0. -1.
    9900012    2    1    2    0    0 -0.87264856532E+00  0.51590198756E+01 -0.17980610105E+02  0.72461565707E+02  0.69999994024E+02 0.  0.
        -12    1    1    2    0    0  0.87264856532E+00 -0.51590198756E+01  0.17980610105E+02  0.18726434293E+02  0.00000000000E+00 0.  1.
         11    1    3    3    0    0 -0.15694532384E+02 -0.70924737959E+01 -0.91219527776E+01  0.19489267663E+02  0.51100000000E-03 0. -1.
        -11    1    3    3    0    0 -0.15297626615E+02  0.96802129920E+01  0.62837388564E+01  0.19162705391E+02  0.51100000000E-03 0.  1.
        -12    1    3    3    0    0  0.30119510434E+02  0.25712806796E+01 -0.15142396184E+02  0.33809592652E+02  0.00000000000E+00 0.  1.
</event>
<event>
 7    1  0.3758561E-013  0.7246156E+02  0.7816164E-02  0.1226708E+00
        -11   -1    0    0    0    0  0.00000000000E+00  0.00000000000E+00  0.45593999997E+02  0.45594000000E+02  0.51100000000E-03 0. -1.
         11   -1    0    0    0    0 -0.00000000000E+00 -0.00000000000E+00 -0.45593999997E+02  0.45594000000E+02  0.51100000000E-03 0.  1.
    9900012    2    1    2    0    0 -0.58856048191E+00  0.13507286791E+02  0.12957092970E+02  0.72461562588E+02  0.69999989962E+02 0.  0.
        -12    1    1    2    0    0  0.58856048191E+00 -0.13507286791E+02 -0.12957092970E+02  0.18726437412E+02  0.00000000000E+00 0.  1.
         11    1    3    3    0    0  0.21486574906E+02  0.82461606927E+01 -0.50526301770E+01  0.23562706536E+02  0.51100000000E-03 0. -1.
        -11    1    3    3    0    0  0.27222098795E+01  0.57706820583E+01 -0.97630941940E+01  0.11663155943E+02  0.51100000000E-03 0.  1.
        -12    1    3    3    0    0 -0.24797345267E+02 -0.50955596036E+00  0.27772817341E+02  0.37235700109E+02  0.00000000000E+00 0.  1.
</event>
<event>
 7    1  0.3758561E-013  0.7246157E+02  0.7816164E-02  0.1226708E+00
        -11   -1    0    0    0    0  0.00000000000E+00  0.00000000000E+00  0.45593999997E+02  0.45594000000E+02  0.51100000000E-03 0. -1.
         11   -1    0    0    0    0 -0.00000000000E+00 -0.00000000000E+00 -0.45593999997E+02  0.45594000000E+02  0.51100000000E-03 0.  1.
    9900012    2    1    2    0    0  0.58388135427E+01  0.12327783855E+02  0.12830167550E+02  0.72461569541E+02  0.69999999019E+02 0.  0.
        -12    1    1    2    0    0 -0.58388135427E+01 -0.12327783855E+02 -0.12830167550E+02  0.18726430459E+02  0.00000000000E+00 0.  1.
         11    1    3    3    0    0 -0.16058641740E+02 -0.14568203399E+02 -0.46763452591E+01  0.22180638631E+02  0.51100000000E-03 0. -1.
        -11    1    3    3    0    0 -0.16327498186E+01  0.23247844752E+02  0.79567740926E+01  0.24625970271E+02  0.51100000000E-03 0.  1.
        -12    1    3    3    0    0  0.23530205102E+02  0.36481425022E+01  0.95497387169E+01  0.25654960639E+02  0.00000000000E+00 0.  1.
</event>
<event>
 7    1  0.3758561E-013  0.7246159E+02  0.7816164E-02  0.1226708E+00
        -11   -1    0    0    0    0  0.00000000000E+00  0.00000000000E+00  0.45593999997E+02  0.45594000000E+02  0.51100000000E-03 0.  1.
         11   -1    0    0    0    0 -0.00000000000E+00 -0.00000000000E+00 -0.45593999997E+02  0.45594000000E+02  0.51100000000E-03 0. -1.
    9900012    2    1    2    0    0 -0.12180733326E+01 -0.18685038451E+02 -0.25321289014E+00  0.72461588670E+02  0.70000023937E+02 0.  0.
        -12    1    1    2    0    0  0.12180733326E+01  0.18685038451E+02  0.25321289014E+00  0.18726411330E+02  0.00000000000E+00 0.  1.
         11    1    3    3    0    0 -0.45258424098E+01 -0.48406370646E+01  0.32025486895E+01  0.73601178713E+01  0.51100000000E-03 0. -1.
        -11    1    3    3    0    0 -0.28040534536E+01 -0.13557766009E+02  0.28967501666E+02  0.32105947860E+02  0.51100000000E-03 0.  1.
         12    1    3    3    0    0  0.61118225308E+01 -0.28663537661E+00 -0.32423263246E+02  0.32995522939E+02  0.00000000000E+00 0. -1.
</event>
<event>
 7    1  0.3758561E-013  0.7246161E+02  0.7816164E-02  0.1226708E+00
        -11   -1    0    0    0    0  0.00000000000E+00  0.00000000000E+00  0.45593999997E+02  0.45594000000E+02  0.51100000000E-03 0.  1.
         11   -1    0    0    0    0 -0.00000000000E+00 -0.00000000000E+00 -0.45593999997E+02  0.45594000000E+02  0.51100000000E-03 0. -1.
    9900012    2    1    2    0    0  0.41488019608E+01 -0.91511505763E+01 -0.15802578004E+02  0.72461612571E+02  0.70000055073E+02 0.  0.
        -12    1    1    2    0    0 -0.41488019608E+01  0.91511505763E+01  0.15802578004E+02  0.18726387429E+02  0.00000000000E+00 0.  1.
         11    1    3    3    0    0  0.19190978362E+02 -0.20989636570E+02  0.95780817712E+01  0.30009967420E+02  0.51100000000E-03 0. -1.
        -11    1    3    3    0    0  0.67921842639E+01  0.88231783564E+01 -0.42523490794E+01  0.11919090416E+02  0.51100000000E-03 0.  1.
        -12    1    3    3    0    0 -0.21834360665E+02  0.30153076376E+01 -0.21128310696E+02  0.30532554735E+02  0.00000000000E+00 0.  1.
</event>
<event>
 7    1  0.3758561E-013  0.7246152E+02  0.7816164E-02  0.1226708E+00
        -11   -1    0    0    0    0  0.00000000000E+00  0.00000000000E+00  0.45593999997E+02  0.45594000000E+02  0.51100000000E-03 0.  1.
         11   -1    0    0    0    0 -0.00000000000E+00 -0.00000000000E+00 -0.45593999997E+02  0.45594000000E+02  0.51100000000E-03 0. -1.
    9900012    2    1    2    0    0  0.15925296120E+02 -0.67083597880E+01 -0.72155350762E+01  0.72461518911E+02  0.69999933063E+02 0.  0.
        -12    1    1    2    0    0 -0.15925296120E+02  0.67083597880E+01  0.72155350762E+01  0.18726481089E+02  0.00000000000E+00 0.  1.
         11    1    3    3    0    0  0.24891736654E+02 -0.83788801494E+01 -0.59669483734E+01  0.26933411581E+02  0.51100000000E-03 0. -1.
        -11    1    3    3    0    0  0.10648879219E+02 -0.15901921253E+02  0.38595006828E+00  0.19142065873E+02  0.51100000000E-03 0.  1.
         12    1    3    3    0    0 -0.19615319754E+02  0.17572441614E+02 -0.16345367710E+01  0.26386041457E+02  0.00000000000E+00 0. -1.
</event>
<event>
 7    1  0.3758561E-013  0.7246157E+02  0.7816164E-02  0.1226708E+00
        -11   -1    0    0    0    0  0.00000000000E+00  0.00000000000E+00  0.45593999997E+02  0.45594000000E+02  0.51100000000E-03 0.  1.
         11   -1    0    0    0    0 -0.00000000000E+00 -0.00000000000E+00 -0.45593999997E+02  0.45594000000E+02  0.51100000000E-03 0. -1.
    9900012    2    1    2    0    0  0.10167900703E+02 -0.11978862996E+02 -0.10188212148E+02  0.72461574016E+02  0.70000004848E+02 0.  0.
        -12    1    1    2    0    0 -0.10167900703E+02  0.11978862996E+02  0.10188212148E+02  0.18726425984E+02  0.00000000000E+00 0.  1.
         11    1    3    3    0    0  0.15652349453E+02 -0.36667581760E+00 -0.38497871983E+01  0.16123007049E+02  0.51100000000E-03 0. -1.
        -11    1    3    3    0    0  0.35818766577E+01  0.21400723785E+02 -0.13323788355E+01  0.21739274426E+02  0.51100000000E-03 0.  1.
         12    1    3    3    0    0 -0.90663254081E+01 -0.33012910963E+02 -0.50060461140E+01  0.34599292542E+02  0.00000000000E+00 0. -1.
</event>
<event>
 7    1  0.3758561E-013  0.7246150E+02  0.7816164E-02  0.1226708E+00
        -11   -1    0    0    0    0  0.00000000000E+00  0.00000000000E+00  0.45593999997E+02  0.45594000000E+02  0.51100000000E-03 0. -1.
         11   -1    0    0    0    0 -0.00000000000E+00 -0.00000000000E+00 -0.45593999997E+02  0.45594000000E+02  0.51100000000E-03 0.  1.
    9900012    2    1    2    0    0 -0.96978327687E+01  0.97898341871E+01  0.12680417034E+02  0.72461500328E+02  0.69999908856E+02 0.  0.
        -12    1    1    2    0    0  0.96978327687E+01 -0.97898341871E+01 -0.12680417034E+02  0.18726499672E+02  0.00000000000E+00 0.  1.
         11    1    3    3    0    0  0.16166336860E+02  0.11261699423E+02  0.11935313410E+02  0.23035364721E+02  0.51100000000E-03 0. -1.
        -11    1    3    3    0    0  0.23460185259E+01  0.13303697153E+02  0.93614889612E+01  0.16435620971E+02  0.51100000000E-03 0.  1.
        -12    1    3    3    0    0 -0.28210188155E+02 -0.14775562389E+02 -0.86163853374E+01  0.32990514636E+02  0.00000000000E+00 0.  1.
</event>
<event>
 7    1  0.3758561E-013  0.7246155E+02  0.7816164E-02  0.1226708E+00
        -11   -1    0    0    0    0  0.00000000000E+00  0.00000000000E+00  0.45593999997E+02  0.45594000000E+02  0.51100000000E-03 0.  1.
         11   -1    0    0    0    0 -0.00000000000E+00 -0.00000000000E+00 -0.45593999997E+02  0.45594000000E+02  0.51100000000E-03 0. -1.
    9900012    2    1    2    0    0 -0.12448792066E+02 -0.13775630818E+02 -0.24371125652E+01  0.72461549562E+02  0.69999972993E+02 0.  0.
        -12    1    1    2    0    0  0.12448792066E+02  0.13775630818E+02  0.24371125652E+01  0.18726450438E+02  0.00000000000E+00 0.  1.
         11    1    3    3    0    0  0.53787785681E+01 -0.11985708643E+01 -0.25908480496E+02  0.26488057552E+02  0.51100000000E-03 0. -1.
        -11    1    3    3    0    0  0.51162475266E+01 -0.61456366005E+01 -0.45422208809E+01  0.91965541792E+01  0.51100000000E-03 0.  1.
        -12    1    3    3    0    0 -0.22943818161E+02 -0.64314233536E+01  0.28013588812E+02  0.36776937831E+02  0.00000000000E+00 0.  1.
</event>
<event>
 7    1  0.3758561E-013  0.7246155E+02  0.7816164E-02  0.1226708E+00
        -11   -1    0    0    0    0  0.00000000000E+00  0.00000000000E+00  0.45593999997E+02  0.45594000000E+02  0.51100000000E-03 0.  1.
         11   -1    0    0    0    0 -0.00000000000E+00 -0.00000000000E+00 -0.45593999997E+02  0.45594000000E+02  0.51100000000E-03 0. -1.
    9900012    2    1    2    0    0 -0.78519534514E+01  0.14408579514E+02  0.90232872937E+01  0.72461546780E+02  0.69999969368E+02 0.  0.
        -12    1    1    2    0    0  0.78519534514E+01 -0.14408579514E+02 -0.90232872937E+01  0.18726453220E+02  0.00000000000E+00 0.  1.
         11    1    3    3    0    0  0.13297806819E+02  0.20101514720E+02  0.94069895257E+01  0.25872649892E+02  0.51100000000E-03 0. -1.
        -11    1    3    3    0    0 -0.33003129949E+01 -0.21740077672E+02  0.35264088788E+01  0.22270128040E+02  0.51100000000E-03 0.  1.
        -12    1    3    3    0    0 -0.17849447275E+02  0.16047142467E+02 -0.39101111108E+01  0.24318768848E+02  0.00000000000E+00 0.  1.
</event>
<event>
 7    1  0.3758561E-013  0.7246155E+02  0.7816164E-02  0.1226708E+00
        -11   -1    0    0    0    0  0.00000000000E+00  0.00000000000E+00  0.45593999997E+02  0.45594000000E+02  0.51100000000E-03 0.  1.
         11   -1    0    0    0    0 -0.00000000000E+00 -0.00000000000E+00 -0.45593999997E+02  0.45594000000E+02  0.51100000000E-03 0. -1.
    9900012    2    1    2    0    0 -0.14478745576E+02 -0.43366357096E+01 -0.11056200273E+02  0.72461546860E+02  0.69999969472E+02 0.  0.
        -12    1    1    2    0    0  0.14478745576E+02  0.43366357096E+01  0.11056200273E+02  0.18726453140E+02  0.00000000000E+00 0.  1.
         11    1    3    3    0    0 -0.96034522286E+01 -0.83522873007E+01 -0.12117996675E+01  0.12784969947E+02  0.51100000000E-03 0. -1.
        -11    1    3    3    0    0  0.10638712644E+01 -0.26879349399E+02 -0.68276790990E+00  0.26909058298E+02  0.51100000000E-03 0.  1.
         12    1    3    3    0    0 -0.59391646123E+01  0.30895000990E+02 -0.91616326955E+01  0.32767518614E+02  0.00000000000E+00 0. -1.
</event>
<event>
 7    1  0.3758561E-013  0.7246158E+02  0.7816164E-02  0.1226708E+00
        -11   -1    0    0    0    0  0.00000000000E+00  0.00000000000E+00  0.45593999997E+02  0.45594000000E+02  0.51100000000E-03 0. -1.
         11   -1    0    0    0    0 -0.00000000000E+00 -0.00000000000E+00 -0.45593999997E+02  0.45594000000E+02  0.51100000000E-03 0.  1.
    9900012    2    1    2    0    0  0.81138628133E+01  0.88656777557E+00  0.16854021127E+02  0.72461580152E+02  0.70000012841E+02 0.  0.
        -12    1    1    2    0    0 -0.81138628133E+01 -0.88656777557E+00 -0.16854021127E+02  0.18726419848E+02  0.00000000000E+00 0.  1.
         11    1    3    3    0    0  0.40479195425E+01 -0.92343751254E+01 -0.16376307410E+01  0.10214752630E+02  0.51100000000E-03 0. -1.
        -11    1    3    3    0    0  0.29033865207E+02  0.82437057480E+01 -0.14816633765E+01  0.30217864582E+02  0.51100000000E-03 0.  1.
         12    1    3    3    0    0 -0.24967921936E+02  0.18772371530E+01  0.19973315245E+02  0.32028962940E+02  0.00000000000E+00 0. -1.
</event>
<event>
 7    1  0.3758561E-013  0.7246171E+02  0.7816164E-02  0.1226708E+00
        -11   -1    0    0    0    0  0.00000000000E+00  0.00000000000E+00  0.45593999997E+02  0.45594000000E+02  0.51100000000E-03 0.  1.
         11   -1    0    0    0    0 -0.00000000000E+00 -0.00000000000E+00 -0.45593999997E+02  0.45594000000E+02  0.51100000000E-03 0. -1.
    9900012    2    1    2    0    0  0.72319895247E+01  0.16402965163E+02  0.54143459125E+01  0.72461706179E+02  0.70000177014E+02 0.  0.
        -12    1    1    2    0    0 -0.72319895247E+01 -0.16402965163E+02 -0.54143459125E+01  0.18726293821E+02  0.00000000000E+00 0.  1.
         11    1    3    3    0    0 -0.51687041732E+01  0.42159031632E+01  0.45018386396E+01  0.80471046787E+01  0.51100000000E-03 0.  1.
        -11    1    3    3    0    0 -0.15206339969E+02 -0.10680187557E+02 -0.16236261860E+02  0.24676210831E+02  0.51100000000E-03 0. -1.
         12    1    3    3    0    0  0.27607033667E+02  0.22867249557E+02  0.17148769133E+02  0.39738390669E+02  0.00000000000E+00 0. -1.
</event>
<event>
 7    1  0.3758561E-013  0.7246151E+02  0.7816164E-02  0.1226708E+00
        -11   -1    0    0    0    0  0.00000000000E+00  0.00000000000E+00  0.45593999997E+02  0.45594000000E+02  0.51100000000E-03 0.  1.
         11   -1    0    0    0    0 -0.00000000000E+00 -0.00000000000E+00 -0.45593999997E+02  0.45594000000E+02  0.51100000000E-03 0. -1.
    9900012    2    1    2    0    0  0.57766179191E+01 -0.17445870241E+02 -0.35991131809E+01  0.72461512910E+02  0.69999925246E+02 0.  0.
        -12    1    1    2    0    0 -0.57766179191E+01  0.17445870241E+02  0.35991131809E+01  0.18726487090E+02  0.00000000000E+00 0.  1.
         11    1    3    3    0    0  0.12060013118E+02 -0.15863850656E+02 -0.75214571031E+01  0.21299718103E+02  0.51100000000E-03 0. -1.
        -11    1    3    3    0    0  0.72667073326E+01 -0.23154646522E+02  0.75823192461E+01  0.25425071415E+02  0.51100000000E-03 0.  1.
         12    1    3    3    0    0 -0.13550102532E+02  0.21572626937E+02 -0.36599753239E+01  0.25736723392E+02  0.00000000000E+00 0. -1.
</event>
<event>
 7    1  0.4103608E-013  0.7246157E+02  0.7816164E-02  0.1226708E+00
        -11   -1    0    0    0    0  0.00000000000E+00  0.00000000000E+00  0.45593999997E+02  0.45594000000E+02  0.51100000000E-03 0. -1.
         11   -1    0    0    0    0 -0.00000000000E+00 -0.00000000000E+00 -0.45593999997E+02  0.45594000000E+02  0.51100000000E-03 0.  1.
    9900012    2    1    2    0    0  0.71384467987E+01 -0.52933891026E+01  0.16483381280E+02  0.72461568164E+02  0.69999997224E+02 0.  0.
        -12    1    1    2    0    0 -0.71384467987E+01  0.52933891026E+01 -0.16483381280E+02  0.18726431836E+02  0.00000000000E+00 0.  1.
         11    1    3    3    0    0  0.23263991796E+02  0.26397303022E+01  0.18942808044E+02  0.30116631074E+02  0.51100000000E-03 0. -1.
        -11    1    3    3    0    0 -0.14137877467E+02 -0.81659388734E+01  0.16539780191E+02  0.23240621033E+02  0.51100000000E-03 0.  1.
        -12    1    3    3    0    0 -0.19876675305E+01  0.23281946861E+00 -0.18999206955E+02  0.19104316057E+02  0.00000000000E+00 0.  1.
</event>
<event>
 7    1  0.3758561E-013  0.7246154E+02  0.7816164E-02  0.1226708E+00
        -11   -1    0    0    0    0  0.00000000000E+00  0.00000000000E+00  0.45593999997E+02  0.45594000000E+02  0.51100000000E-03 0.  1.
         11   -1    0    0    0    0 -0.00000000000E+00 -0.00000000000E+00 -0.45593999997E+02  0.45594000000E+02  0.51100000000E-03 0. -1.
    9900012    2    1    2    0    0 -0.10377878588E+02 -0.14901842650E+02  0.45732869238E+01  0.72461541936E+02  0.69999963057E+02 0.  0.
        -12    1    1    2    0    0  0.10377878588E+02  0.14901842650E+02 -0.45732869238E+01  0.18726458064E+02  0.00000000000E+00 0.  1.
         11    1    3    3    0    0 -0.59544245639E+01  0.87689553167E+01  0.57363784112E+01  0.12052210867E+02  0.51100000000E-03 0. -1.
        -11    1    3    3    0    0 -0.28239970654E+02 -0.38397328870E+01  0.46508796128E+01  0.28876810292E+02  0.51100000000E-03 0.  1.
         12    1    3    3    0    0  0.23816516630E+02 -0.19831065080E+02 -0.58139711002E+01  0.31532520777E+02  0.00000000000E+00 0. -1.
</event>
<event>
 7    1  0.3758561E-013  0.7246174E+02  0.7816164E-02  0.1226708E+00
        -11   -1    0    0    0    0  0.00000000000E+00  0.00000000000E+00  0.45593999997E+02  0.45594000000E+02  0.51100000000E-03 0.  1.
         11   -1    0    0    0    0 -0.00000000000E+00 -0.00000000000E+00 -0.45593999997E+02  0.45594000000E+02  0.51100000000E-03 0. -1.
    9900012    2    1    2    0    0 -0.43371652819E+01 -0.38313751997E+01 -0.17809616931E+02  0.72461737857E+02  0.70000218281E+02 0.  0.
        -12    1    1    2    0    0  0.43371652819E+01  0.38313751997E+01  0.17809616931E+02  0.18726262143E+02  0.00000000000E+00 0.  1.
         11    1    3    3    0    0 -0.76137672019E+01 -0.46857426006E+01 -0.19385670690E+02  0.21347830407E+02  0.51100000000E-03 0. -1.
        -11    1    3    3    0    0 -0.22204166071E+02  0.89074603353E+01  0.40959542401E+01  0.24272302773E+02  0.51100000000E-03 0.  1.
        -12    1    3    3    0    0  0.25480767991E+02 -0.80530929344E+01 -0.25199004817E+01  0.26841604677E+02  0.00000000000E+00 0.  1.
</event>
<event>
 7    1  0.3758561E-013  0.7246156E+02  0.7816164E-02  0.1226708E+00
        -11   -1    0    0    0    0  0.00000000000E+00  0.00000000000E+00  0.45593999997E+02  0.45594000000E+02  0.51100000000E-03 0. -1.
         11   -1    0    0    0    0 -0.00000000000E+00 -0.00000000000E+00 -0.45593999997E+02  0.45594000000E+02  0.51100000000E-03 0.  1.
    9900012    2    1    2    0    0 -0.36355827082E+01  0.15857331076E+02  0.92740054356E+01  0.72461559139E+02  0.69999985469E+02 0.  0.
        -12    1    1    2    0    0  0.36355827082E+01 -0.15857331076E+02 -0.92740054356E+01  0.18726440861E+02  0.00000000000E+00 0.  1.
         11    1    3    3    0    0  0.11916560450E+02  0.82547565563E+01  0.97053483334E+01  0.17445320441E+02  0.51100000000E-03 0. -1.
        -11    1    3    3    0    0 -0.25028206545E+02 -0.14212896026E+02 -0.83146635766E+01  0.29959158315E+02  0.51100000000E-03 0.  1.
         12    1    3    3    0    0  0.94760633867E+01  0.21815470545E+02  0.78833206788E+01  0.25057080384E+02  0.00000000000E+00 0. -1.
</event>
<event>
 7    1  0.3758561E-013  0.7246156E+02  0.7816164E-02  0.1226708E+00
        -11   -1    0    0    0    0  0.00000000000E+00  0.00000000000E+00  0.45593999997E+02  0.45594000000E+02  0.51100000000E-03 0.  1.
         11   -1    0    0    0    0 -0.00000000000E+00 -0.00000000000E+00 -0.45593999997E+02  0.45594000000E+02  0.51100000000E-03 0. -1.
    9900012    2    1    2    0    0 -0.14189625532E+02  0.11471510674E+02 -0.42117045052E+01  0.72461561878E+02  0.69999989036E+02 0.  0.
        -12    1    1    2    0    0  0.14189625532E+02 -0.11471510674E+02  0.42117045052E+01  0.18726438122E+02  0.00000000000E+00 0.  1.
         11    1    3    3    0    0  0.99992446963E+00  0.30040997905E+01 -0.64646536520E+01  0.71983478381E+01  0.51100000000E-03 0. -1.
        -11    1    3    3    0    0 -0.20345887387E+01 -0.28182938084E+01 -0.29170324814E+02  0.29376694528E+02  0.51100000000E-03 0.  1.
        -12    1    3    3    0    0 -0.13154961263E+02  0.11285704692E+02  0.31423273961E+02  0.35886519512E+02  0.00000000000E+00 0.  1.
</event>
<event>
 7    1  0.3758561E-013  0.7246155E+02  0.7816164E-02  0.1226708E+00
        -11   -1    0    0    0    0  0.00000000000E+00  0.00000000000E+00  0.45593999997E+02  0.45594000000E+02  0.51100000000E-03 0. -1.
         11   -1    0    0    0    0 -0.00000000000E+00 -0.00000000000E+00 -0.45593999997E+02  0.45594000000E+02  0.51100000000E-03 0.  1.
    9900012    2    1    2    0    0 -0.16088791272E+01  0.91317162517E+01  0.16269701546E+02  0.72461550199E+02  0.69999973822E+02 0.  0.
        -12    1    1    2    0    0  0.16088791272E+01 -0.91317162517E+01 -0.16269701546E+02  0.18726449801E+02  0.00000000000E+00 0.  1.
         11    1    3    3    0    0 -0.55553003085E+01  0.10000510782E+02  0.36638135316E+02  0.38382607221E+02  0.51100000000E-03 0. -1.
        -11    1    3    3    0    0 -0.79300447056E+01  0.78950034368E+01 -0.36338928662E+01  0.11765282229E+02  0.51100000000E-03 0.  1.
         12    1    3    3    0    0  0.11876465887E+02 -0.87637979675E+01 -0.16734540904E+02  0.22313660749E+02  0.00000000000E+00 0. -1.
</event>
<event>
 7    1  0.3758561E-013  0.7246157E+02  0.7816164E-02  0.1226708E+00
        -11   -1    0    0    0    0  0.00000000000E+00  0.00000000000E+00  0.45593999997E+02  0.45594000000E+02  0.51100000000E-03 0. -1.
         11   -1    0    0    0    0 -0.00000000000E+00 -0.00000000000E+00 -0.45593999997E+02  0.45594000000E+02  0.51100000000E-03 0.  1.
    9900012    2    1    2    0    0 -0.52872570954E+01  0.10748482452E+02  0.14394243304E+02  0.72461569403E+02  0.69999998839E+02 0.  0.
        -12    1    1    2    0    0  0.52872570954E+01 -0.10748482452E+02 -0.14394243304E+02  0.18726430597E+02  0.00000000000E+00 0.  1.
         11    1    3    3    0    0 -0.12107591443E+02  0.11294728977E+02  0.25258290318E+00  0.16559845156E+02  0.51100000000E-03 0.  1.
        -11    1    3    3    0    0 -0.32103164930E+01 -0.12584316868E+02 -0.16790484602E+02  0.21227141505E+02  0.51100000000E-03 0. -1.
         12    1    3    3    0    0  0.10030650840E+02  0.12038070343E+02  0.30932145003E+02  0.34674582742E+02  0.00000000000E+00 0. -1.
</event>
<event>
 7    1  0.3758561E-013  0.7246158E+02  0.7816164E-02  0.1226708E+00
        -11   -1    0    0    0    0  0.00000000000E+00  0.00000000000E+00  0.45593999997E+02  0.45594000000E+02  0.51100000000E-03 0.  1.
         11   -1    0    0    0    0 -0.00000000000E+00 -0.00000000000E+00 -0.45593999997E+02  0.45594000000E+02  0.51100000000E-03 0. -1.
    9900012    2    1    2    0    0  0.15017783191E+02 -0.79787890258E+01 -0.78411698132E+01  0.72461579351E+02  0.70000011798E+02 0.  0.
        -12    1    1    2    0    0 -0.15017783191E+02  0.79787890258E+01  0.78411698132E+01  0.18726420649E+02  0.00000000000E+00 0.  1.
         11    1    3    3    0    0  0.16944591066E+02 -0.10347153164E+02 -0.32305403141E+02  0.37918620984E+02  0.51100000000E-03 0. -1.
        -11    1    3    3    0    0 -0.42934926910E+01 -0.77701084549E+01  0.10762578800E+01  0.89424267498E+01  0.51100000000E-03 0.  1.
        -12    1    3    3    0    0  0.23666848157E+01  0.10138472593E+02  0.23387975448E+02  0.25600531617E+02  0.00000000000E+00 0.  1.
</event>
<event>
 7    1  0.3758561E-013  0.7246170E+02  0.7816164E-02  0.1226708E+00
        -11   -1    0    0    0    0  0.00000000000E+00  0.00000000000E+00  0.45593999997E+02  0.45594000000E+02  0.51100000000E-03 0.  1.
         11   -1    0    0    0    0 -0.00000000000E+00 -0.00000000000E+00 -0.45593999997E+02  0.45594000000E+02  0.51100000000E-03 0. -1.
    9900012    2    1    2    0    0  0.95943820764E+01 -0.15729645908E+02  0.33467009050E+01  0.72461699384E+02  0.70000168163E+02 0.  0.
        -12    1    1    2    0    0 -0.95943820764E+01  0.15729645908E+02 -0.33467009050E+01  0.18726300616E+02  0.00000000000E+00 0.  1.
         11    1    3    3    0    0  0.86579949403E+01  0.23373352230E+01  0.59229086478E+01  0.10747318709E+02  0.51100000000E-03 0. -1.
        -11    1    3    3    0    0 -0.46995588390E+01  0.32121953480E+01  0.25448847995E+02  0.26077728366E+02  0.51100000000E-03 0.  1.
         12    1    3    3    0    0  0.56359459751E+01 -0.21279176479E+02 -0.28025055737E+02  0.35636652308E+02  0.00000000000E+00 0. -1.
</event>
<event>
 7    1  0.3758561E-013  0.7246152E+02  0.7816164E-02  0.1226708E+00
        -11   -1    0    0    0    0  0.00000000000E+00  0.00000000000E+00  0.45593999997E+02  0.45594000000E+02  0.51100000000E-03 0. -1.
         11   -1    0    0    0    0 -0.00000000000E+00 -0.00000000000E+00 -0.45593999997E+02  0.45594000000E+02  0.51100000000E-03 0.  1.
    9900012    2    1    2    0    0 -0.14955214769E+01  0.28920163318E+01  0.18441275748E+02  0.72461521576E+02  0.69999936535E+02 0.  0.
        -12    1    1    2    0    0  0.14955214769E+01 -0.28920163318E+01 -0.18441275748E+02  0.18726478424E+02  0.00000000000E+00 0.  1.
         11    1    3    3    0    0  0.93782634602E+01  0.64195817274E+01  0.18203302329E+02  0.21459801281E+02  0.51100000000E-03 0. -1.
        -11    1    3    3    0    0  0.18250324837E+01  0.20845862620E+02  0.80646174523E+01  0.22425850861E+02  0.51100000000E-03 0.  1.
         12    1    3    3    0    0 -0.12698817421E+02 -0.24373428015E+02 -0.78266440327E+01  0.28575869434E+02  0.00000000000E+00 0. -1.
</event>
<event>
 7    1  0.3758561E-013  0.7246162E+02  0.7816164E-02  0.1226708E+00
        -11   -1    0    0    0    0  0.00000000000E+00  0.00000000000E+00  0.45593999997E+02  0.45594000000E+02  0.51100000000E-03 0. -1.
         11   -1    0    0    0    0 -0.00000000000E+00 -0.00000000000E+00 -0.45593999997E+02  0.45594000000E+02  0.51100000000E-03 0.  1.
    9900012    2    1    2    0    0 -0.12178053676E+02 -0.81018115507E+01  0.11693284058E+02  0.72461621979E+02  0.70000067328E+02 0.  0.
        -12    1    1    2    0    0  0.12178053676E+02  0.81018115507E+01 -0.11693284058E+02  0.18726378021E+02  0.00000000000E+00 0.  1.
         11    1    3    3    0    0  0.49315329071E+01  0.15163829878E+01  0.32593057003E+01  0.61026640157E+01  0.51100000000E-03 0. -1.
        -11    1    3    3    0    0  0.66299544447E+00  0.25969136819E+02  0.47727819682E+01  0.26412403868E+02  0.51100000000E-03 0.  1.
         12    1    3    3    0    0 -0.17772582028E+02 -0.35587331358E+02  0.36611963890E+01  0.39946554095E+02  0.00000000000E+00 0. -1.
</event>
<event>
 7    1  0.3758561E-013  0.7246200E+02  0.7816164E-02  0.1226707E+00
        -11   -1    0    0    0    0  0.00000000000E+00  0.00000000000E+00  0.45593999997E+02  0.45594000000E+02  0.51100000000E-03 0. -1.
         11   -1    0    0    0    0 -0.00000000000E+00 -0.00000000000E+00 -0.45593999997E+02  0.45594000000E+02  0.51100000000E-03 0.  1.
    9900012    2    1    2    0    0 -0.51427831938E+01  0.95280787501E+01  0.15278436896E+02  0.72461998355E+02  0.70000557626E+02 0.  0.
        -12    1    1    2    0    0  0.51427831938E+01 -0.95280787501E+01 -0.15278436896E+02  0.18726001645E+02  0.00000000000E+00 0.  1.
         11    1    3    3    0    0  0.14937911494E+02  0.29642113559E+02 -0.88285378293E+01  0.34347331432E+02  0.51100000000E-03 0.  1.
        -11    1    3    3    0    0 -0.37304237201E+01 -0.99360671403E+00  0.59351755765E+01  0.70802277378E+01  0.51100000000E-03 0. -1.
        -12    1    3    3    0    0 -0.16350270967E+02 -0.19120428095E+02  0.18171799148E+02  0.31034439185E+02  0.00000000000E+00 0.  1.
</event>
<event>
 7    1  0.3758561E-013  0.7246160E+02  0.7816164E-02  0.1226708E+00
        -11   -1    0    0    0    0  0.00000000000E+00  0.00000000000E+00  0.45593999997E+02  0.45594000000E+02  0.51100000000E-03 0.  1.
         11   -1    0    0    0    0 -0.00000000000E+00 -0.00000000000E+00 -0.45593999997E+02  0.45594000000E+02  0.51100000000E-03 0. -1.
    9900012    2    1    2    0    0  0.11043430350E+02 -0.11581523661E+02 -0.97256954471E+01  0.72461596284E+02  0.70000033857E+02 0.  0.
        -12    1    1    2    0    0 -0.11043430350E+02  0.11581523661E+02  0.97256954471E+01  0.18726403716E+02  0.00000000000E+00 0.  1.
         11    1    3    3    0    0  0.18799980004E+02  0.18260208235E+02 -0.15000773026E+02  0.30197643030E+02  0.51100000000E-03 0. -1.
        -11    1    3    3    0    0  0.89463087474E+01 -0.15099610087E+02  0.89232875086E+01  0.19689076292E+02  0.51100000000E-03 0.  1.
        -12    1    3    3    0    0 -0.16702858401E+02 -0.14742121808E+02 -0.36482099296E+01  0.22574876963E+02  0.00000000000E+00 0.  1.
</event>
<event>
 7    1  0.3758561E-013  0.7246160E+02  0.7816164E-02  0.1226708E+00
        -11   -1    0    0    0    0  0.00000000000E+00  0.00000000000E+00  0.45593999997E+02  0.45594000000E+02  0.51100000000E-03 0.  1.
         11   -1    0    0    0    0 -0.00000000000E+00 -0.00000000000E+00 -0.45593999997E+02  0.45594000000E+02  0.51100000000E-03 0. -1.
    9900012    2    1    2    0    0  0.16812148865E+02 -0.74769647460E+01  0.34820594497E+01  0.72461599137E+02  0.70000037573E+02 0.  0.
        -12    1    1    2    0    0 -0.16812148865E+02  0.74769647460E+01 -0.34820594497E+01  0.18726400863E+02  0.00000000000E+00 0.  1.
         11    1    3    3    0    0  0.19952363017E+00  0.11572725383E+02  0.23913671896E+02  0.26567489273E+02  0.51100000000E-03 0. -1.
        -11    1    3    3    0    0  0.70447974978E+01 -0.15016823892E+02  0.58874222055E+01  0.17601020200E+02  0.51100000000E-03 0.  1.
         12    1    3    3    0    0  0.95678277372E+01 -0.40328662364E+01 -0.26319034652E+02  0.28293089664E+02  0.00000000000E+00 0. -1.
</event>
<event>
 7    1  0.3758561E-013  0.7246158E+02  0.7816164E-02  0.1226708E+00
        -11   -1    0    0    0    0  0.00000000000E+00  0.00000000000E+00  0.45593999997E+02  0.45594000000E+02  0.51100000000E-03 0. -1.
         11   -1    0    0    0    0 -0.00000000000E+00 -0.00000000000E+00 -0.45593999997E+02  0.45594000000E+02  0.51100000000E-03 0.  1.
    9900012    2    1    2    0    0 -0.18483144806E+01  0.14020780888E+02 -0.12275188645E+02  0.72461579643E+02  0.70000012178E+02 0.  0.
        -12    1    1    2    0    0  0.18483144806E+01 -0.14020780888E+02  0.12275188645E+02  0.18726420357E+02  0.00000000000E+00 0.  1.
         11    1    3    3    0    0 -0.13456499330E+02  0.14946163725E+02 -0.41962119888E+01  0.20544424539E+02  0.51100000000E-03 0. -1.
        -11    1    3    3    0    0 -0.30996059491E+00  0.19479045152E+02  0.10248412468E+02  0.22012706195E+02  0.51100000000E-03 0.  1.
        -12    1    3    3    0    0  0.11918145445E+02 -0.20404427990E+02 -0.18327389125E+02  0.29904448909E+02  0.00000000000E+00 0.  1.
</event>
<event>
 7    1  0.3758561E-013  0.7246160E+02  0.7816164E-02  0.1226708E+00
        -11   -1    0    0    0    0  0.00000000000E+00  0.00000000000E+00  0.45593999997E+02  0.45594000000E+02  0.51100000000E-03 0.  1.
         11   -1    0    0    0    0 -0.00000000000E+00 -0.00000000000E+00 -0.45593999997E+02  0.45594000000E+02  0.51100000000E-03 0. -1.
    9900012    2    1    2    0    0  0.72020088323E+01 -0.10883747854E+02  0.13429567734E+02  0.72461596499E+02  0.70000034137E+02 0.  0.
        -12    1    1    2    0    0 -0.72020088323E+01  0.10883747854E+02 -0.13429567734E+02  0.18726403501E+02  0.00000000000E+00 0.  1.
         11    1    3    3    0    0  0.40588874826E+01  0.95384015642E+01  0.18494202377E+01  0.10529768633E+02  0.51100000000E-03 0. -1.
        -11    1    3    3    0    0  0.13224558828E+02 -0.27442192818E+01  0.30992360498E+02  0.33807485933E+02  0.51100000000E-03 0.  1.
         12    1    3    3    0    0 -0.10081437478E+02 -0.17677930136E+02 -0.19412213002E+02  0.28124341933E+02  0.00000000000E+00 0. -1.
</event>
<event>
 7    1  0.3758561E-013  0.7246156E+02  0.7816164E-02  0.1226708E+00
        -11   -1    0    0    0    0  0.00000000000E+00  0.00000000000E+00  0.45593999997E+02  0.45594000000E+02  0.51100000000E-03 0.  1.
         11   -1    0    0    0    0 -0.00000000000E+00 -0.00000000000E+00 -0.45593999997E+02  0.45594000000E+02  0.51100000000E-03 0. -1.
    9900012    2    1    2    0    0 -0.48820145279E+01  0.10997005220E+02 -0.14349613078E+02  0.72461559197E+02  0.69999985544E+02 0.  0.
        -12    1    1    2    0    0  0.48820145279E+01 -0.10997005220E+02  0.14349613078E+02  0.18726440803E+02  0.00000000000E+00 0.  1.
         11    1    3    3    0    0 -0.16697637161E+02 -0.53366240413E+01 -0.18384924489E+02  0.25402678828E+02  0.51100000000E-03 0. -1.
        -11    1    3    3    0    0 -0.45157924937E+01  0.26953959161E+02  0.36664125656E+01  0.27574460605E+02  0.51100000000E-03 0.  1.
        -12    1    3    3    0    0  0.16331415127E+02 -0.10620329899E+02  0.36889884554E+00  0.19484419764E+02  0.00000000000E+00 0.  1.
</event>
<event>
 7    1  0.3758561E-013  0.7246159E+02  0.7816164E-02  0.1226708E+00
        -11   -1    0    0    0    0  0.00000000000E+00  0.00000000000E+00  0.45593999997E+02  0.45594000000E+02  0.51100000000E-03 0.  1.
         11   -1    0    0    0    0 -0.00000000000E+00 -0.00000000000E+00 -0.45593999997E+02  0.45594000000E+02  0.51100000000E-03 0. -1.
    9900012    2    1    2    0    0  0.13511203600E+02 -0.30086975746E+01 -0.12612431055E+02  0.72461593486E+02  0.70000030211E+02 0.  0.
        -12    1    1    2    0    0 -0.13511203600E+02  0.30086975746E+01  0.12612431055E+02  0.18726406514E+02  0.00000000000E+00 0.  1.
         11    1    3    3    0    0  0.14555719510E+02 -0.23310020540E+02  0.22660754262E+01  0.27574646438E+02  0.51100000000E-03 0. -1.
        -11    1    3    3    0    0  0.17076375229E+02  0.35008169432E+01 -0.39833241586E+01  0.17880860769E+02  0.51100000000E-03 0.  1.
         12    1    3    3    0    0 -0.18120891139E+02  0.16800506023E+02 -0.10895182323E+02  0.27006086279E+02  0.00000000000E+00 0. -1.
</event>
<event>
 7    1  0.3758561E-013  0.7246162E+02  0.7816164E-02  0.1226708E+00
        -11   -1    0    0    0    0  0.00000000000E+00  0.00000000000E+00  0.45593999997E+02  0.45594000000E+02  0.51100000000E-03 0.  1.
         11   -1    0    0    0    0 -0.00000000000E+00 -0.00000000000E+00 -0.45593999997E+02  0.45594000000E+02  0.51100000000E-03 0. -1.
    9900012    2    1    2    0    0  0.11938539236E+02 -0.99398579177E+00 -0.14393078117E+02  0.72461616886E+02  0.70000060694E+02 0.  0.
        -12    1    1    2    0    0 -0.11938539236E+02  0.99398579177E+00  0.14393078117E+02  0.18726383114E+02  0.00000000000E+00 0.  1.
         11    1    3    3    0    0  0.65754162690E+01 -0.53441051027E+01 -0.30780450243E+02  0.31925407998E+02  0.51100000000E-03 0. -1.
        -11    1    3    3    0    0  0.14383139705E+02 -0.87466953897E+01 -0.11368170437E+01  0.16872218030E+02  0.51100000000E-03 0.  1.
        -12    1    3    3    0    0 -0.90200167381E+01  0.13096814701E+02  0.17524189169E+02  0.23663990857E+02  0.00000000000E+00 0.  1.
</event>
<event>
 7    1  0.3758561E-013  0.7246160E+02  0.7816164E-02  0.1226708E+00
        -11   -1    0    0    0    0  0.00000000000E+00  0.00000000000E+00  0.45593999997E+02  0.45594000000E+02  0.51100000000E-03 0.  1.
         11   -1    0    0    0    0 -0.00000000000E+00 -0.00000000000E+00 -0.45593999997E+02  0.45594000000E+02  0.51100000000E-03 0. -1.
    9900012    2    1    2    0    0  0.15487873278E+02 -0.83012277930E+01 -0.64725162514E+01  0.72461599701E+02  0.70000038307E+02 0.  0.
        -12    1    1    2    0    0 -0.15487873278E+02  0.83012277930E+01  0.64725162514E+01  0.18726400299E+02  0.00000000000E+00 0.  1.
         11    1    3    3    0    0  0.32873016988E+02  0.13712782780E+02 -0.11013020237E+02  0.37282197795E+02  0.51100000000E-03 0. -1.
        -11    1    3    3    0    0  0.31521327916E+00 -0.38734419746E+01 -0.64687231453E+01  0.75463429245E+01  0.51100000000E-03 0.  1.
        -12    1    3    3    0    0 -0.17700356989E+02 -0.18140568599E+02  0.11009227131E+02  0.27633058981E+02  0.00000000000E+00 0.  1.
</event>
<event>
 7    1  0.3758561E-013  0.7246157E+02  0.7816164E-02  0.1226708E+00
        -11   -1    0    0    0    0  0.00000000000E+00  0.00000000000E+00  0.45593999997E+02  0.45594000000E+02  0.51100000000E-03 0. -1.
         11   -1    0    0    0    0 -0.00000000000E+00 -0.00000000000E+00 -0.45593999997E+02  0.45594000000E+02  0.51100000000E-03 0.  1.
    9900012    2    1    2    0    0  0.69846575541E+01 -0.16791055111E+02  0.44670125468E+01  0.72461570176E+02  0.69999999845E+02 0.  0.
        -12    1    1    2    0    0 -0.69846575541E+01  0.16791055111E+02 -0.44670125468E+01  0.18726429824E+02  0.00000000000E+00 0.  1.
         11    1    3    3    0    0  0.22160404948E+02 -0.15593743376E+02 -0.19236056571E+01  0.27165210084E+02  0.51100000000E-03 0. -1.
        -11    1    3    3    0    0  0.12606553750E+02 -0.71820467970E+00 -0.70154316755E+01  0.14444974810E+02  0.51100000000E-03 0.  1.
         12    1    3    3    0    0 -0.27782301144E+02 -0.47910705508E+00  0.13406049879E+02  0.30851385281E+02  0.00000000000E+00 0. -1.
</event>
<event>
 7    1  0.3758561E-013  0.7246160E+02  0.7816164E-02  0.1226708E+00
        -11   -1    0    0    0    0  0.00000000000E+00  0.00000000000E+00  0.45593999997E+02  0.45594000000E+02  0.51100000000E-03 0. -1.
         11   -1    0    0    0    0 -0.00000000000E+00 -0.00000000000E+00 -0.45593999997E+02  0.45594000000E+02  0.51100000000E-03 0.  1.
    9900012    2    1    2    0    0 -0.76712615145E+01 -0.48527053504E+01  0.16379292735E+02  0.72461595302E+02  0.70000032577E+02 0.  0.
        -12    1    1    2    0    0  0.76712615145E+01  0.48527053504E+01 -0.16379292735E+02  0.18726404698E+02  0.00000000000E+00 0.  1.
         11    1    3    3    0    0 -0.11666223144E+02 -0.11606867070E+02  0.14730023464E+02  0.22086052547E+02  0.51100000000E-03 0. -1.
        -11    1    3    3    0    0  0.12554076051E+02  0.23450131344E+02  0.11736979196E+02  0.29073530340E+02  0.51100000000E-03 0.  1.
         12    1    3    3    0    0 -0.85591144218E+01 -0.16695969624E+02 -0.10087709925E+02  0.21302012414E+02  0.00000000000E+00 0. -1.
</event>
<event>
 7    1  0.3758561E-013  0.7246143E+02  0.7816164E-02  0.1226708E+00
        -11   -1    0    0    0    0  0.00000000000E+00  0.00000000000E+00  0.45593999997E+02  0.45594000000E+02  0.51100000000E-03 0.  1.
         11   -1    0    0    0    0 -0.00000000000E+00 -0.00000000000E+00 -0.45593999997E+02  0.45594000000E+02  0.51100000000E-03 0. -1.
    9900012    2    1    2    0    0  0.88895987713E+01  0.85140760650E+01 -0.14112756040E+02  0.72461432226E+02  0.69999820140E+02 0.  0.
        -12    1    1    2    0    0 -0.88895987713E+01 -0.85140760650E+01  0.14112756040E+02  0.18726567774E+02  0.00000000000E+00 0.  1.
         11    1    3    3    0    0  0.87785227616E+01 -0.13615351757E+02 -0.63778218031E+01  0.17410252053E+02  0.51100000000E-03 0. -1.
        -11    1    3    3    0    0  0.44039883345E+01 -0.48581156318E+00  0.19151217404E+02  0.19657066273E+02  0.51100000000E-03 0.  1.
        -12    1    3    3    0    0 -0.42929123248E+01  0.22615239385E+02 -0.26886151641E+02  0.35394113900E+02  0.00000000000E+00 0.  1.
</event>
<event>
 7    1  0.3758561E-013  0.7246157E+02  0.7816164E-02  0.1226708E+00
        -11   -1    0    0    0    0  0.00000000000E+00  0.00000000000E+00  0.45593999997E+02  0.45594000000E+02  0.51100000000E-03 0.  1.
         11   -1    0    0    0    0 -0.00000000000E+00 -0.00000000000E+00 -0.45593999997E+02  0.45594000000E+02  0.51100000000E-03 0. -1.
    9900012    2    1    2    0    0  0.18401041896E+01 -0.32316480404E+01 -0.18353461385E+02  0.72461572757E+02  0.70000003208E+02 0.  0.
        -12    1    1    2    0    0 -0.18401041896E+01  0.32316480404E+01  0.18353461385E+02  0.18726427243E+02  0.00000000000E+00 0.  1.
         11    1    3    3    0    0 -0.99056853382E+01 -0.61962643252E+01 -0.27638122998E+01  0.12006454610E+02  0.51100000000E-03 0. -1.
        -11    1    3    3    0    0 -0.60448346426E+01 -0.20135458072E+02  0.84579602783E+01  0.22660842658E+02  0.51100000000E-03 0.  1.
         12    1    3    3    0    0  0.17790624170E+02  0.23100074357E+02 -0.24047609363E+02  0.37794275489E+02  0.00000000000E+00 0. -1.
</event>
<event>
 7    1  0.3758561E-013  0.7246156E+02  0.7816164E-02  0.1226708E+00
        -11   -1    0    0    0    0  0.00000000000E+00  0.00000000000E+00  0.45593999997E+02  0.45594000000E+02  0.51100000000E-03 0. -1.
         11   -1    0    0    0    0 -0.00000000000E+00 -0.00000000000E+00 -0.45593999997E+02  0.45594000000E+02  0.51100000000E-03 0.  1.
    9900012    2    1    2    0    0 -0.12774400236E+02 -0.17462177704E+01  0.13581052763E+02  0.72461559547E+02  0.69999985999E+02 0.  0.
        -12    1    1    2    0    0  0.12774400236E+02  0.17462177704E+01 -0.13581052763E+02  0.18726440453E+02  0.00000000000E+00 0.  1.
         11    1    3    3    0    0  0.37031774985E+01  0.16755200965E+01 -0.22931143879E+02  0.23288586283E+02  0.51100000000E-03 0.  1.
        -11    1    3    3    0    0 -0.19607115918E+02  0.26381273629E+01  0.10734741459E+02  0.22508518056E+02  0.51100000000E-03 0. -1.
        -12    1    3    3    0    0  0.31295381836E+01 -0.60598652299E+01  0.25777455183E+02  0.26664455208E+02  0.00000000000E+00 0.  1.
</event>
<event>
 7    1  0.3758561E-013  0.7246146E+02  0.7816164E-02  0.1226708E+00
        -11   -1    0    0    0    0  0.00000000000E+00  0.00000000000E+00  0.45593999997E+02  0.45594000000E+02  0.51100000000E-03 0. -1.
         11   -1    0    0    0    0 -0.00000000000E+00 -0.00000000000E+00 -0.45593999997E+02  0.45594000000E+02  0.51100000000E-03 0.  1.
    9900012    2    1    2    0    0 -0.78485136839E+01 -0.15759538380E+02  0.63813030738E+01  0.72461461454E+02  0.69999858215E+02 0.  0.
        -12    1    1    2    0    0  0.78485136839E+01  0.15759538380E+02 -0.63813030738E+01  0.18726538546E+02  0.00000000000E+00 0.  1.
         11    1    3    3    0    0 -0.16665837371E+02  0.14132175864E+02  0.84611806604E+01  0.23432031674E+02  0.51100000000E-03 0.  1.
        -11    1    3    3    0    0 -0.66104965331E+01 -0.16949602831E+02  0.14244747896E+02  0.23106287963E+02  0.51100000000E-03 0. -1.
        -12    1    3    3    0    0  0.15427820220E+02 -0.12942111413E+02 -0.16324625482E+02  0.25923141818E+02  0.00000000000E+00 0.  1.
</event>
<event>
 7    1  0.3758561E-013  0.7246154E+02  0.7816164E-02  0.1226708E+00
        -11   -1    0    0    0    0  0.00000000000E+00  0.00000000000E+00  0.45593999997E+02  0.45594000000E+02  0.51100000000E-03 0.  1.
         11   -1    0    0    0    0 -0.00000000000E+00 -0.00000000000E+00 -0.45593999997E+02  0.45594000000E+02  0.51100000000E-03 0. -1.
    9900012    2    1    2    0    0  0.12836488713E+02  0.14384654997E+01 -0.13558603374E+02  0.72461538751E+02  0.69999958909E+02 0.  0.
        -12    1    1    2    0    0 -0.12836488713E+02 -0.14384654997E+01  0.13558603374E+02  0.18726461249E+02  0.00000000000E+00 0.  1.
         11    1    3    3    0    0  0.50541427499E+01 -0.14269532464E+01 -0.98807606605E+01  0.11189726806E+02  0.51100000000E-03 0. -1.
        -11    1    3    3    0    0  0.20946314559E+02 -0.21761521462E+02  0.76160888800E+01  0.31149907224E+02  0.51100000000E-03 0.  1.
         12    1    3    3    0    0 -0.13163968597E+02  0.24626940208E+02 -0.11293931593E+02  0.30121904721E+02  0.00000000000E+00 0. -1.
</event>
<event>
 7    1  0.3758561E-013  0.7246158E+02  0.7816164E-02  0.1226708E+00
        -11   -1    0    0    0    0  0.00000000000E+00  0.00000000000E+00  0.45593999997E+02  0.45594000000E+02  0.51100000000E-03 0.  1.
         11   -1    0    0    0    0 -0.00000000000E+00 -0.00000000000E+00 -0.45593999997E+02  0.45594000000E+02  0.51100000000E-03 0. -1.
    9900012    2    1    2    0    0 -0.23245008211E+01 -0.18577881503E+02  0.37120592770E+00  0.72461580720E+02  0.70000013581E+02 0.  0.
        -12    1    1    2    0    0  0.23245008211E+01  0.18577881503E+02 -0.37120592770E+00  0.18726419280E+02  0.00000000000E+00 0.  1.
         11    1    3    3    0    0  0.45982545017E+01  0.21180995292E+01 -0.25639120580E+01  0.56748511329E+01  0.51100000000E-03 0. -1.
        -11    1    3    3    0    0 -0.73514158392E+01  0.20083011290E+02  0.12672816381E+02  0.24859021151E+02  0.51100000000E-03 0.  1.
         12    1    3    3    0    0  0.42866051640E+00 -0.40778992322E+02 -0.97376983948E+01  0.41927708436E+02  0.00000000000E+00 0. -1.
</event>
<event>
 7    1  0.3758561E-013  0.7246168E+02  0.7816164E-02  0.1226708E+00
        -11   -1    0    0    0    0  0.00000000000E+00  0.00000000000E+00  0.45593999997E+02  0.45594000000E+02  0.51100000000E-03 0. -1.
         11   -1    0    0    0    0 -0.00000000000E+00 -0.00000000000E+00 -0.45593999997E+02  0.45594000000E+02  0.51100000000E-03 0.  1.
    9900012    2    1    2    0    0  0.12955178171E+02 -0.75629651782E+01  0.11208928618E+02  0.72461677229E+02  0.70000139303E+02 0.  0.
        -12    1    1    2    0    0 -0.12955178171E+02  0.75629651782E+01 -0.11208928618E+02  0.18726322771E+02  0.00000000000E+00 0.  1.
         11    1    3    3    0    0  0.40459775332E+00 -0.22032072350E+00  0.37374610666E+02  0.37377449930E+02  0.51100000000E-03 0. -1.
        -11    1    3    3    0    0  0.45182840687E+01 -0.98112783571E+01 -0.42410541025E+01  0.11604422178E+02  0.51100000000E-03 0.  1.
        -12    1    3    3    0    0  0.80322963492E+01  0.24686339023E+01 -0.21924627945E+02  0.23479805121E+02  0.00000000000E+00 0.  1.
</event>
<event>
 7    1  0.3758561E-013  0.7246157E+02  0.7816164E-02  0.1226708E+00
        -11   -1    0    0    0    0  0.00000000000E+00  0.00000000000E+00  0.45593999997E+02  0.45594000000E+02  0.51100000000E-03 0.  1.
         11   -1    0    0    0    0 -0.00000000000E+00 -0.00000000000E+00 -0.45593999997E+02  0.45594000000E+02  0.51100000000E-03 0. -1.
    9900012    2    1    2    0    0 -0.53207515676E+01  0.17627711185E+02  0.34106357151E+01  0.72461573890E+02  0.70000004684E+02 0.  0.
        -12    1    1    2    0    0  0.53207515676E+01 -0.17627711185E+02 -0.34106357151E+01  0.18726426110E+02  0.00000000000E+00 0.  1.
         11    1    3    3    0    0  0.62191875052E-01  0.13232490894E+02 -0.16906896207E+00  0.13233717077E+02  0.51100000000E-03 0. -1.
        -11    1    3    3    0    0 -0.23003252366E+02  0.16203915000E+02  0.18159853987E+02  0.33488755991E+02  0.51100000000E-03 0.  1.
        -12    1    3    3    0    0  0.17620308923E+02 -0.11808694709E+02 -0.14580149309E+02  0.25739100823E+02  0.00000000000E+00 0.  1.
</event>
<event>
 7    1  0.3758561E-013  0.7246155E+02  0.7816164E-02  0.1226708E+00
        -11   -1    0    0    0    0  0.00000000000E+00  0.00000000000E+00  0.45593999997E+02  0.45594000000E+02  0.51100000000E-03 0. -1.
         11   -1    0    0    0    0 -0.00000000000E+00 -0.00000000000E+00 -0.45593999997E+02  0.45594000000E+02  0.51100000000E-03 0.  1.
    9900012    2    1    2    0    0  0.17576890709E+02 -0.70508081509E+00  0.64214933329E+01  0.72461553391E+02  0.69999977981E+02 0.  0.
        -12    1    1    2    0    0 -0.17576890709E+02  0.70508081509E+00 -0.64214933329E+01  0.18726446609E+02  0.00000000000E+00 0.  1.
         11    1    3    3    0    0  0.65362121578E+01  0.12161964123E+02 -0.36624379009E+01  0.14284568329E+02  0.51100000000E-03 0. -1.
        -11    1    3    3    0    0 -0.21060816267E+01  0.20840850702E+02  0.58540988711E+01  0.21749646242E+02  0.51100000000E-03 0.  1.
         12    1    3    3    0    0  0.13146760178E+02 -0.33707895641E+02  0.42298323627E+01  0.36427338820E+02  0.00000000000E+00 0. -1.
</event>
<event>
 7    1  0.3758561E-013  0.7246160E+02  0.7816164E-02  0.1226708E+00
        -11   -1    0    0    0    0  0.00000000000E+00  0.00000000000E+00  0.45593999997E+02  0.45594000000E+02  0.51100000000E-03 0.  1.
         11   -1    0    0    0    0 -0.00000000000E+00 -0.00000000000E+00 -0.45593999997E+02  0.45594000000E+02  0.51100000000E-03 0. -1.
    9900012    2    1    2    0    0 -0.54237674369E+01  0.16080363394E+02 -0.79172452314E+01  0.72461598527E+02  0.70000036778E+02 0.  0.
        -12    1    1    2    0    0  0.54237674369E+01 -0.16080363394E+02  0.79172452314E+01  0.18726401473E+02  0.00000000000E+00 0.  1.
         11    1    3    3    0    0  0.72751972535E+01 -0.28953465145E+01 -0.89979133862E+01  0.11927865362E+02  0.51100000000E-03 0. -1.
        -11    1    3    3    0    0 -0.22666538628E+02 -0.12985635592E+02 -0.47475709741E+01  0.26550671094E+02  0.51100000000E-03 0.  1.
         12    1    3    3    0    0  0.99675739377E+01  0.31961345501E+02  0.58282391290E+01  0.33983062071E+02  0.00000000000E+00 0. -1.
</event>
<event>
 7    1  0.3758561E-013  0.7246158E+02  0.7816164E-02  0.1226708E+00
        -11   -1    0    0    0    0  0.00000000000E+00  0.00000000000E+00  0.45593999997E+02  0.45594000000E+02  0.51100000000E-03 0. -1.
         11   -1    0    0    0    0 -0.00000000000E+00 -0.00000000000E+00 -0.45593999997E+02  0.45594000000E+02  0.51100000000E-03 0.  1.
    9900012    2    1    2    0    0 -0.33041617244E+01 -0.19567476414E+01  0.18328460855E+02  0.72461579537E+02  0.70000012041E+02 0.  0.
        -12    1    1    2    0    0  0.33041617244E+01  0.19567476414E+01 -0.18328460855E+02  0.18726420463E+02  0.00000000000E+00 0.  1.
         11    1    3    3    0    0 -0.32856021678E+01 -0.84784894204E+00  0.88696379771E+01  0.94965524028E+01  0.51100000000E-03 0. -1.
        -11    1    3    3    0    0 -0.19358487767E+02  0.20710476955E+02 -0.73814440818E+01  0.29294378664E+02  0.51100000000E-03 0.  1.
         12    1    3    3    0    0  0.19339928210E+02 -0.21819375655E+02  0.16840266960E+02  0.33670648470E+02  0.00000000000E+00 0. -1.
</event>
<event>
 7    1  0.3758561E-013  0.7246157E+02  0.7816164E-02  0.1226708E+00
        -11   -1    0    0    0    0  0.00000000000E+00  0.00000000000E+00  0.45593999997E+02  0.45594000000E+02  0.51100000000E-03 0. -1.
         11   -1    0    0    0    0 -0.00000000000E+00 -0.00000000000E+00 -0.45593999997E+02  0.45594000000E+02  0.51100000000E-03 0.  1.
    9900012    2    1    2    0    0 -0.49430416355E+01  0.16500827318E+01  0.17986738230E+02  0.72461569860E+02  0.69999999434E+02 0.  0.
        -12    1    1    2    0    0  0.49430416355E+01 -0.16500827318E+01 -0.17986738230E+02  0.18726430140E+02  0.00000000000E+00 0.  1.
         11    1    3    3    0    0 -0.36851736693E+01 -0.12489649727E+02  0.16232283814E+02  0.20810067116E+02  0.51100000000E-03 0. -1.
        -11    1    3    3    0    0 -0.13995573043E+02 -0.14374308418E+02  0.35333499321E+01  0.20371091509E+02  0.51100000000E-03 0.  1.
         12    1    3    3    0    0  0.12737705076E+02  0.28514040877E+02 -0.17788955155E+01  0.31280411235E+02  0.00000000000E+00 0. -1.
</event>
<event>
 7    1  0.3758561E-013  0.7246161E+02  0.7816164E-02  0.1226708E+00
        -11   -1    0    0    0    0  0.00000000000E+00  0.00000000000E+00  0.45593999997E+02  0.45594000000E+02  0.51100000000E-03 0. -1.
         11   -1    0    0    0    0 -0.00000000000E+00 -0.00000000000E+00 -0.45593999997E+02  0.45594000000E+02  0.51100000000E-03 0.  1.
    9900012    2    1    2    0    0 -0.14944725577E+02  0.17395768037E+01  0.11149291885E+02  0.72461610610E+02  0.70000052519E+02 0.  0.
        -12    1    1    2    0    0  0.14944725577E+02 -0.17395768037E+01 -0.11149291885E+02  0.18726389390E+02  0.00000000000E+00 0.  1.
         11    1    3    3    0    0  0.70114311268E+01 -0.14897657468E+02 -0.14033380961E+02  0.21634143060E+02  0.51100000000E-03 0. -1.
        -11    1    3    3    0    0 -0.57770548826E+01  0.86938374949E+01 -0.79423670919E+01  0.13116339763E+02  0.51100000000E-03 0.  1.
         12    1    3    3    0    0 -0.16179101821E+02  0.79433967767E+01  0.33125039938E+02  0.37711127787E+02  0.00000000000E+00 0. -1.
</event>
<event>
 7    1  0.3758561E-013  0.7246121E+02  0.7816164E-02  0.1226709E+00
        -11   -1    0    0    0    0  0.00000000000E+00  0.00000000000E+00  0.45593999997E+02  0.45594000000E+02  0.51100000000E-03 0.  1.
         11   -1    0    0    0    0 -0.00000000000E+00 -0.00000000000E+00 -0.45593999997E+02  0.45594000000E+02  0.51100000000E-03 0. -1.
    9900012    2    1    2    0    0 -0.15900023793E+02 -0.88683308266E+01 -0.43857374018E+01  0.72461207941E+02  0.69999527965E+02 0.  0.
        -12    1    1    2    0    0  0.15900023793E+02  0.88683308266E+01  0.43857374018E+01  0.18726792059E+02  0.00000000000E+00 0.  1.
         11    1    3    3    0    0 -0.37350555663E+01 -0.16231557797E+02 -0.15275459906E+02  0.22599862482E+02  0.51100000000E-03 0. -1.
        -11    1    3    3    0    0 -0.22770417538E+02 -0.11438192770E+02 -0.43333871751E+00  0.25485524350E+02  0.51100000000E-03 0.  1.
        -12    1    3    3    0    0  0.10605449311E+02  0.18801419740E+02  0.11323061222E+02  0.24375821109E+02  0.00000000000E+00 0.  1.
</event>
<event>
 7    1  0.3758561E-013  0.7246157E+02  0.7816164E-02  0.1226708E+00
        -11   -1    0    0    0    0  0.00000000000E+00  0.00000000000E+00  0.45593999997E+02  0.45594000000E+02  0.51100000000E-03 0. -1.
         11   -1    0    0    0    0 -0.00000000000E+00 -0.00000000000E+00 -0.45593999997E+02  0.45594000000E+02  0.51100000000E-03 0.  1.
    9900012    2    1    2    0    0 -0.16953919772E+02 -0.29480224560E+01  0.73859944212E+01  0.72461570932E+02  0.70000000831E+02 0.  0.
        -12    1    1    2    0    0  0.16953919772E+02  0.29480224560E+01 -0.73859944212E+01  0.18726429068E+02  0.00000000000E+00 0.  1.
         11    1    3    3    0    0 -0.22440925745E+02 -0.21077493213E+02  0.98466457934E+01  0.32323556457E+02  0.51100000000E-03 0. -1.
        -11    1    3    3    0    0 -0.48683090702E+01  0.67866059199E+01  0.14824301551E+02  0.17015239341E+02  0.51100000000E-03 0.  1.
        -12    1    3    3    0    0  0.10355315043E+02  0.11342864837E+02 -0.17284952923E+02  0.23122775134E+02  0.00000000000E+00 0.  1.
</event>
<event>
 7    1  0.3758561E-013  0.7246158E+02  0.7816164E-02  0.1226708E+00
        -11   -1    0    0    0    0  0.00000000000E+00  0.00000000000E+00  0.45593999997E+02  0.45594000000E+02  0.51100000000E-03 0.  1.
         11   -1    0    0    0    0 -0.00000000000E+00 -0.00000000000E+00 -0.45593999997E+02  0.45594000000E+02  0.51100000000E-03 0. -1.
    9900012    2    1    2    0    0  0.34540840509E+01  0.59129464369E+01 -0.17429437652E+02  0.72461576715E+02  0.70000008363E+02 0.  0.
        -12    1    1    2    0    0 -0.34540840509E+01 -0.59129464369E+01  0.17429437652E+02  0.18726423285E+02  0.00000000000E+00 0.  1.
         11    1    3    3    0    0 -0.17447680222E+02  0.49167032350E+01 -0.18080575055E+02  0.25602787161E+02  0.51100000000E-03 0. -1.
        -11    1    3    3    0    0  0.97582633890E+01 -0.71205933416E+01  0.19841634864E+02  0.23229658376E+02  0.51100000000E-03 0.  1.
         12    1    3    3    0    0  0.11143500884E+02  0.81168365435E+01 -0.19190497461E+02  0.23629131178E+02  0.00000000000E+00 0. -1.
</event>
<event>
 7    1  0.3758561E-013  0.7246157E+02  0.7816164E-02  0.1226708E+00
        -11   -1    0    0    0    0  0.00000000000E+00  0.00000000000E+00  0.45593999997E+02  0.45594000000E+02  0.51100000000E-03 0. -1.
         11   -1    0    0    0    0 -0.00000000000E+00 -0.00000000000E+00 -0.45593999997E+02  0.45594000000E+02  0.51100000000E-03 0.  1.
    9900012    2    1    2    0    0  0.74664170156E+01 -0.17104694743E+02 -0.15366185984E+01  0.72461570495E+02  0.70000000261E+02 0.  0.
        -12    1    1    2    0    0 -0.74664170156E+01  0.17104694743E+02  0.15366185984E+01  0.18726429505E+02  0.00000000000E+00 0.  1.
         11    1    3    3    0    0 -0.12351480123E+02 -0.29546733431E+01 -0.69953664747E+01  0.14499114048E+02  0.51100000000E-03 0. -1.
        -11    1    3    3    0    0  0.84779432853E+01  0.19313728828E+02  0.79517952769E+01  0.22541665687E+02  0.51100000000E-03 0.  1.
        -12    1    3    3    0    0  0.11339953853E+02 -0.33463750227E+02 -0.24930474006E+01  0.35420790759E+02  0.00000000000E+00 0.  1.
</event>
<event>
 7    1  0.3758561E-013  0.7246157E+02  0.7816164E-02  0.1226708E+00
        -11   -1    0    0    0    0  0.00000000000E+00  0.00000000000E+00  0.45593999997E+02  0.45594000000E+02  0.51100000000E-03 0. -1.
         11   -1    0    0    0    0 -0.00000000000E+00 -0.00000000000E+00 -0.45593999997E+02  0.45594000000E+02  0.51100000000E-03 0.  1.
    9900012    2    1    2    0    0  0.24630389467E+01 -0.53274592955E+01  0.17782883724E+02  0.72461565825E+02  0.69999994177E+02 0.  0.
        -12    1    1    2    0    0 -0.24630389467E+01  0.53274592955E+01 -0.17782883724E+02  0.18726434175E+02  0.00000000000E+00 0.  1.
         11    1    3    3    0    0 -0.81775485046E+01 -0.16150613584E+02 -0.40225849578E+01  0.18544427969E+02  0.51100000000E-03 0. -1.
        -11    1    3    3    0    0 -0.52043427044E+01 -0.11909050573E+02 -0.63052291342E+01  0.14445296232E+02  0.51100000000E-03 0.  1.
        -12    1    3    3    0    0  0.15844930156E+02  0.22732204861E+02  0.28110697816E+02  0.39471841624E+02  0.00000000000E+00 0.  1.
</event>
<event>
 7    1  0.3758561E-013  0.7246172E+02  0.7816164E-02  0.1226708E+00
        -11   -1    0    0    0    0  0.00000000000E+00  0.00000000000E+00  0.45593999997E+02  0.45594000000E+02  0.51100000000E-03 0. -1.
         11   -1    0    0    0    0 -0.00000000000E+00 -0.00000000000E+00 -0.45593999997E+02  0.45594000000E+02  0.51100000000E-03 0.  1.
    9900012    2    1    2    0    0  0.12647793152E+02  0.13422018959E+02  0.32490720392E+01  0.72461715433E+02  0.70000189070E+02 0.  0.
        -12    1    1    2    0    0 -0.12647793152E+02 -0.13422018959E+02 -0.32490720392E+01  0.18726284567E+02  0.00000000000E+00 0.  1.
         11    1    3    3    0    0 -0.17611907609E+00  0.16190434069E+01  0.13120591943E+02  0.13221280297E+02  0.51100000000E-03 0. -1.
        -11    1    3    3    0    0  0.23673548104E+01  0.33378401135E+02 -0.40855082788E+00  0.33464741822E+02  0.51100000000E-03 0.  1.
         12    1    3    3    0    0  0.10456557418E+02 -0.21575425584E+02 -0.94629690760E+01  0.25775693315E+02  0.00000000000E+00 0. -1.
</event>
<event>
 7    1  0.3758561E-013  0.7246156E+02  0.7816164E-02  0.1226708E+00
        -11   -1    0    0    0    0  0.00000000000E+00  0.00000000000E+00  0.45593999997E+02  0.45594000000E+02  0.51100000000E-03 0. -1.
         11   -1    0    0    0    0 -0.00000000000E+00 -0.00000000000E+00 -0.45593999997E+02  0.45594000000E+02  0.51100000000E-03 0.  1.
    9900012    2    1    2    0    0  0.90786322308E+01  0.12455534635E+02  0.10635678101E+02  0.72461560005E+02  0.69999986596E+02 0.  0.
        -12    1    1    2    0    0 -0.90786322308E+01 -0.12455534635E+02 -0.10635678101E+02  0.18726439995E+02  0.00000000000E+00 0.  1.
         11    1    3    3    0    0 -0.18794011213E+02 -0.69687970489E+01  0.23527769669E+02  0.30908492938E+02  0.51100000000E-03 0. -1.
        -11    1    3    3    0    0  0.67404157149E+01  0.90413551355E+01  0.46429011577E+01  0.12195730323E+02  0.51100000000E-03 0.  1.
        -12    1    3    3    0    0  0.21132227729E+02  0.10382976548E+02 -0.17534992726E+02  0.29357336744E+02  0.00000000000E+00 0.  1.
</event>
<event>
 7    1  0.3758561E-013  0.7246158E+02  0.7816164E-02  0.1226708E+00
        -11   -1    0    0    0    0  0.00000000000E+00  0.00000000000E+00  0.45593999997E+02  0.45594000000E+02  0.51100000000E-03 0.  1.
         11   -1    0    0    0    0 -0.00000000000E+00 -0.00000000000E+00 -0.45593999997E+02  0.45594000000E+02  0.51100000000E-03 0. -1.
    9900012    2    1    2    0    0  0.12757967512E+02  0.34323310926E+01 -0.13271485940E+02  0.72461575600E+02  0.70000006911E+02 0.  0.
        -12    1    1    2    0    0 -0.12757967512E+02 -0.34323310926E+01  0.13271485940E+02  0.18726424400E+02  0.00000000000E+00 0.  1.
         11    1    3    3    0    0  0.20618409110E+01 -0.91850210143E+01 -0.22868962349E+01  0.96873987027E+01  0.51100000000E-03 0. -1.
        -11    1    3    3    0    0 -0.88256301610E+01 -0.18169978852E+02 -0.16270846487E+02  0.25938009270E+02  0.51100000000E-03 0.  1.
        -12    1    3    3    0    0  0.19521756762E+02  0.30787330959E+02  0.52862567823E+01  0.36836167627E+02  0.00000000000E+00 0.  1.
</event>
<event>
 7    1  0.3758561E-013  0.7246155E+02  0.7816164E-02  0.1226708E+00
        -11   -1    0    0    0    0  0.00000000000E+00  0.00000000000E+00  0.45593999997E+02  0.45594000000E+02  0.51100000000E-03 0.  1.
         11   -1    0    0    0    0 -0.00000000000E+00 -0.00000000000E+00 -0.45593999997E+02  0.45594000000E+02  0.51100000000E-03 0. -1.
    9900012    2    1    2    0    0 -0.98528365115E+01 -0.91258212418E+01 -0.13050699878E+02  0.72461554316E+02  0.69999979185E+02 0.  0.
        -12    1    1    2    0    0  0.98528365115E+01  0.91258212418E+01  0.13050699878E+02  0.18726445684E+02  0.00000000000E+00 0.  1.
         11    1    3    3    0    0  0.14174830271E+02 -0.71693658871E+01  0.10770459087E+02  0.19191883952E+02  0.51100000000E-03 0. -1.
        -11    1    3    3    0    0 -0.15207120947E+02  0.23931101669E+01  0.97937913344E+01  0.18245598174E+02  0.51100000000E-03 0.  1.
         12    1    3    3    0    0 -0.88205458355E+01 -0.43495655216E+01 -0.33614950299E+02  0.35024072189E+02  0.00000000000E+00 0. -1.
</event>
<event>
 7    1  0.3758561E-013  0.7246123E+02  0.7816164E-02  0.1226709E+00
        -11   -1    0    0    0    0  0.00000000000E+00  0.00000000000E+00  0.45593999997E+02  0.45594000000E+02  0.51100000000E-03 0. -1.
         11   -1    0    0    0    0 -0.00000000000E+00 -0.00000000000E+00 -0.45593999997E+02  0.45594000000E+02  0.51100000000E-03 0.  1.
    9900012    2    1    2    0    0 -0.14600233836E+01  0.32623969154E+01  0.18382521582E+02  0.72461227677E+02  0.69999553676E+02 0.  0.
        -12    1    1    2    0    0  0.14600233836E+01 -0.32623969154E+01 -0.18382521582E+02  0.18726772323E+02  0.00000000000E+00 0.  1.
         11    1    3    3    0    0 -0.22178242376E+02  0.22141175487E+02 -0.31209554347E+01  0.31493593792E+02  0.51100000000E-03 0. -1.
        -11    1    3    3    0    0  0.49112420290E+01 -0.13169301053E+02  0.49521695188E+00  0.14063997603E+02  0.51100000000E-03 0.  1.
        -12    1    3    3    0    0  0.15806976963E+02 -0.57094775191E+01  0.21008260065E+02  0.26903636282E+02  0.00000000000E+00 0.  1.
</event>
<event>
 7    1  0.3758561E-013  0.7246162E+02  0.7816164E-02  0.1226708E+00
        -11   -1    0    0    0    0  0.00000000000E+00  0.00000000000E+00  0.45593999997E+02  0.45594000000E+02  0.51100000000E-03 0.  1.
         11   -1    0    0    0    0 -0.00000000000E+00 -0.00000000000E+00 -0.45593999997E+02  0.45594000000E+02  0.51100000000E-03 0. -1.
    9900012    2    1    2    0    0  0.15560110638E+02  0.94239590782E+01 -0.44440036081E+01  0.72461622458E+02  0.70000067953E+02 0.  0.
        -12    1    1    2    0    0 -0.15560110638E+02 -0.94239590782E+01  0.44440036081E+01  0.18726377542E+02  0.00000000000E+00 0.  1.
         11    1    3    3    0    0  0.16609659049E+02 -0.51101479951E+01 -0.24516929753E+02  0.30051193504E+02  0.51100000000E-03 0. -1.
        -11    1    3    3    0    0 -0.27349430552E+01  0.55630633281E+01 -0.95653354993E+01  0.11398387192E+02  0.51100000000E-03 0.  1.
         12    1    3    3    0    0  0.16853946439E+01  0.89710437452E+01  0.29638261644E+02  0.31012041762E+02  0.00000000000E+00 0. -1.
</event>
<event>
 7    1  0.3758561E-013  0.7246155E+02  0.7816164E-02  0.1226708E+00
        -11   -1    0    0    0    0  0.00000000000E+00  0.00000000000E+00  0.45593999997E+02  0.45594000000E+02  0.51100000000E-03 0. -1.
         11   -1    0    0    0    0 -0.00000000000E+00 -0.00000000000E+00 -0.45593999997E+02  0.45594000000E+02  0.51100000000E-03 0.  1.
    9900012    2    1    2    0    0  0.57468458107E+01  0.96391299208E+01  0.14991354195E+02  0.72461554449E+02  0.69999979358E+02 0.  0.
        -12    1    1    2    0    0 -0.57468458107E+01 -0.96391299208E+01 -0.14991354195E+02  0.18726445551E+02  0.00000000000E+00 0.  1.
         11    1    3    3    0    0  0.37374813183E+01  0.17344174885E+00  0.50832107189E+01  0.63117256055E+01  0.51100000000E-03 0. -1.
        -11    1    3    3    0    0 -0.13771234889E+02 -0.22695313181E+02 -0.55706568258E+01  0.27124829373E+02  0.51100000000E-03 0.  1.
         12    1    3    3    0    0  0.15780599382E+02  0.32161001353E+02  0.15478800301E+02  0.39024999470E+02  0.00000000000E+00 0. -1.
</event>
<event>
 7    1  0.3758561E-013  0.7246153E+02  0.7816164E-02  0.1226708E+00
        -11   -1    0    0    0    0  0.00000000000E+00  0.00000000000E+00  0.45593999997E+02  0.45594000000E+02  0.51100000000E-03 0. -1.
         11   -1    0    0    0    0 -0.00000000000E+00 -0.00000000000E+00 -0.45593999997E+02  0.45594000000E+02  0.51100000000E-03 0.  1.
    9900012    2    1    2    0    0 -0.37088674726E+01 -0.48477784978E+01  0.17703781468E+02  0.72461533901E+02  0.69999952591E+02 0.  0.
        -12    1    1    2    0    0  0.37088674726E+01  0.48477784978E+01 -0.17703781468E+02  0.18726466099E+02  0.00000000000E+00 0.  1.
         11    1    3    3    0    0  0.10989066175E+01 -0.76638245621E+01 -0.48976962064E+01  0.91612898144E+01  0.51100000000E-03 0. -1.
        -11    1    3    3    0    0 -0.16361618978E+02 -0.23918093812E+02  0.17140841520E+02  0.33668772408E+02  0.51100000000E-03 0.  1.
         12    1    3    3    0    0  0.11553844888E+02  0.26734139876E+02  0.54606361540E+01  0.29631471678E+02  0.00000000000E+00 0. -1.
</event>
<event>
 7    1  0.3758561E-013  0.7246156E+02  0.7816164E-02  0.1226708E+00
        -11   -1    0    0    0    0  0.00000000000E+00  0.00000000000E+00  0.45593999997E+02  0.45594000000E+02  0.51100000000E-03 0.  1.
         11   -1    0    0    0    0 -0.00000000000E+00 -0.00000000000E+00 -0.45593999997E+02  0.45594000000E+02  0.51100000000E-03 0. -1.
    9900012    2    1    2    0    0 -0.86598190447E+01  0.42232444601E+01 -0.16057749755E+02  0.72461559151E+02  0.69999985484E+02 0.  0.
        -12    1    1    2    0    0  0.86598190447E+01 -0.42232444601E+01  0.16057749755E+02  0.18726440849E+02  0.00000000000E+00 0.  1.
         11    1    3    3    0    0 -0.48824962178E+01 -0.72645291870E+01 -0.13809147185E+02  0.16349455644E+02  0.51100000000E-03 0. -1.
        -11    1    3    3    0    0 -0.26730125269E+02  0.26905869421E+01  0.99779713555E+01  0.28658310621E+02  0.51100000000E-03 0.  1.
         12    1    3    3    0    0  0.22952802442E+02  0.87971867050E+01 -0.12226573926E+02  0.27453792886E+02  0.00000000000E+00 0. -1.
</event>
<event>
 7    1  0.3758561E-013  0.7246150E+02  0.7816164E-02  0.1226708E+00
        -11   -1    0    0    0    0  0.00000000000E+00  0.00000000000E+00  0.45593999997E+02  0.45594000000E+02  0.51100000000E-03 0. -1.
         11   -1    0    0    0    0 -0.00000000000E+00 -0.00000000000E+00 -0.45593999997E+02  0.45594000000E+02  0.51100000000E-03 0.  1.
    9900012    2    1    2    0    0  0.15560101140E+02 -0.97421002034E+01  0.36954968261E+01  0.72461495770E+02  0.69999902919E+02 0.  0.
        -12    1    1    2    0    0 -0.15560101140E+02  0.97421002034E+01 -0.36954968261E+01  0.18726504230E+02  0.00000000000E+00 0.  1.
         11    1    3    3    0    0 -0.15195259193E+01 -0.34408669018E+01  0.26544890418E+01  0.46037850068E+01  0.51100000000E-03 0. -1.
        -11    1    3    3    0    0  0.27612654670E+02 -0.17798656685E+02  0.23588757947E+02  0.40443545584E+02  0.51100000000E-03 0.  1.
        -12    1    3    3    0    0 -0.10533027610E+02  0.11497423383E+02 -0.22547750162E+02  0.27414165179E+02  0.00000000000E+00 0.  1.
</event>
<event>
 7    1  0.3758561E-013  0.7246156E+02  0.7816164E-02  0.1226708E+00
        -11   -1    0    0    0    0  0.00000000000E+00  0.00000000000E+00  0.45593999997E+02  0.45594000000E+02  0.51100000000E-03 0.  1.
         11   -1    0    0    0    0 -0.00000000000E+00 -0.00000000000E+00 -0.45593999997E+02  0.45594000000E+02  0.51100000000E-03 0. -1.
    9900012    2    1    2    0    0 -0.90850173610E+01  0.13473043795E+02 -0.93069315888E+01  0.72461563469E+02  0.69999991109E+02 0.  0.
        -12    1    1    2    0    0  0.90850173610E+01 -0.13473043795E+02  0.93069315888E+01  0.18726436531E+02  0.00000000000E+00 0.  1.
         11    1    3    3    0    0  0.11723131930E+02  0.16218613196E+02  0.44102037032E+01  0.20492074888E+02  0.51100000000E-03 0. -1.
        -11    1    3    3    0    0 -0.23665377500E+02 -0.44309343918E+01  0.11396556028E+02  0.26637656829E+02  0.51100000000E-03 0.  1.
         12    1    3    3    0    0  0.28572282091E+01  0.16853649905E+01 -0.25113691320E+02  0.25331831752E+02  0.00000000000E+00 0. -1.
</event>
<event>
 7    1  0.3758561E-013  0.7246156E+02  0.7816164E-02  0.1226708E+00
        -11   -1    0    0    0    0  0.00000000000E+00  0.00000000000E+00  0.45593999997E+02  0.45594000000E+02  0.51100000000E-03 0.  1.
         11   -1    0    0    0    0 -0.00000000000E+00 -0.00000000000E+00 -0.45593999997E+02  0.45594000000E+02  0.51100000000E-03 0. -1.
    9900012    2    1    2    0    0 -0.79987998777E+01  0.89519845143E+01  0.14372219615E+02  0.72461560859E+02  0.69999987709E+02 0.  0.
        -12    1    1    2    0    0  0.79987998777E+01 -0.89519845143E+01 -0.14372219615E+02  0.18726439141E+02  0.00000000000E+00 0.  1.
         11    1    3    3    0    0 -0.84011509965E+01 -0.15821435551E+02  0.97477986563E+01  0.20394036870E+02  0.51100000000E-03 0. -1.
        -11    1    3    3    0    0 -0.17684720802E+02  0.38072926712E+01  0.13956044954E+02  0.22847669867E+02  0.51100000000E-03 0.  1.
         12    1    3    3    0    0  0.18087071920E+02  0.20966127394E+02 -0.93316239956E+01  0.29219854123E+02  0.00000000000E+00 0. -1.
</event>
<event>
 7    1  0.3758561E-013  0.7246158E+02  0.7816164E-02  0.1226708E+00
        -11   -1    0    0    0    0  0.00000000000E+00  0.00000000000E+00  0.45593999997E+02  0.45594000000E+02  0.51100000000E-03 0.  1.
         11   -1    0    0    0    0 -0.00000000000E+00 -0.00000000000E+00 -0.45593999997E+02  0.45594000000E+02  0.51100000000E-03 0. -1.
    9900012    2    1    2    0    0  0.14282192148E+02  0.89650897502E+01 -0.81440198359E+01  0.72461577334E+02  0.70000009170E+02 0.  0.
        -12    1    1    2    0    0 -0.14282192148E+02 -0.89650897502E+01  0.81440198359E+01  0.18726422666E+02  0.00000000000E+00 0.  1.
         11    1    3    3    0    0  0.27458466525E+02 -0.70354717882E+01 -0.52473245440E+01  0.28827064753E+02  0.51100000000E-03 0. -1.
        -11    1    3    3    0    0  0.36957504705E+00  0.11997870040E+02 -0.18837023395E+02  0.22336493051E+02  0.51100000000E-03 0.  1.
        -12    1    3    3    0    0 -0.13545849423E+02  0.40026914988E+01  0.15940328103E+02  0.21298019529E+02  0.00000000000E+00 0.  1.
</event>
<event>
 7    1  0.3758561E-013  0.7246143E+02  0.7816164E-02  0.1226708E+00
        -11   -1    0    0    0    0  0.00000000000E+00  0.00000000000E+00  0.45593999997E+02  0.45594000000E+02  0.51100000000E-03 0. -1.
         11   -1    0    0    0    0 -0.00000000000E+00 -0.00000000000E+00 -0.45593999997E+02  0.45594000000E+02  0.51100000000E-03 0.  1.
    9900012    2    1    2    0    0 -0.10938045042E+02  0.52344579536E+01  0.14270396263E+02  0.72461425596E+02  0.69999811503E+02 0.  0.
        -12    1    1    2    0    0  0.10938045042E+02 -0.52344579536E+01 -0.14270396263E+02  0.18726574404E+02  0.00000000000E+00 0.  1.
         11    1    3    3    0    0 -0.81626745239E+01  0.72383333022E+01  0.11691512788E+02  0.15991066128E+02  0.51100000000E-03 0. -1.
        -11    1    3    3    0    0  0.57518575556E+01  0.20118759093E+02 -0.16006489981E+02  0.26344943624E+02  0.51100000000E-03 0.  1.
        -12    1    3    3    0    0 -0.85272280739E+01 -0.22122634441E+02  0.18585373456E+02  0.30125415844E+02  0.00000000000E+00 0.  1.
</event>
<event>
 7    1  0.3758561E-013  0.7246162E+02  0.7816164E-02  0.1226708E+00
        -11   -1    0    0    0    0  0.00000000000E+00  0.00000000000E+00  0.45593999997E+02  0.45594000000E+02  0.51100000000E-03 0. -1.
         11   -1    0    0    0    0 -0.00000000000E+00 -0.00000000000E+00 -0.45593999997E+02  0.45594000000E+02  0.51100000000E-03 0.  1.
    9900012    2    1    2    0    0  0.10403254666E+01 -0.16876433630E+02  0.80486547996E+01  0.72461624664E+02  0.70000070827E+02 0.  0.
        -12    1    1    2    0    0 -0.10403254666E+01  0.16876433630E+02 -0.80486547996E+01  0.18726375336E+02  0.00000000000E+00 0.  1.
         11    1    3    3    0    0 -0.12157914123E+02  0.41637177718E+01 -0.19137635538E+01  0.12992840825E+02  0.51100000000E-03 0. -1.
        -11    1    3    3    0    0  0.95574918032E+01  0.39552991462E+01 -0.18635058646E+02  0.21313269386E+02  0.51100000000E-03 0.  1.
         12    1    3    3    0    0  0.36407477859E+01 -0.24995450548E+02  0.28597476999E+02  0.38155514454E+02  0.00000000000E+00 0. -1.
</event>
<event>
 7    1  0.3758561E-013  0.7246156E+02  0.7816164E-02  0.1226708E+00
        -11   -1    0    0    0    0  0.00000000000E+00  0.00000000000E+00  0.45593999997E+02  0.45594000000E+02  0.51100000000E-03 0. -1.
         11   -1    0    0    0    0 -0.00000000000E+00 -0.00000000000E+00 -0.45593999997E+02  0.45594000000E+02  0.51100000000E-03 0.  1.
    9900012    2    1    2    0    0 -0.90471007873E+00  0.17207881989E+02  0.73314336865E+01  0.72461558192E+02  0.69999984235E+02 0.  0.
        -12    1    1    2    0    0  0.90471007873E+00 -0.17207881989E+02 -0.73314336865E+01  0.18726441808E+02  0.00000000000E+00 0.  1.
         11    1    3    3    0    0 -0.60743683154E+01  0.18259326623E+02  0.27201450645E+02  0.33319962134E+02  0.51100000000E-03 0. -1.
        -11    1    3    3    0    0  0.77153023016E+01  0.13723976540E+02 -0.20872436160E+01  0.15881750781E+02  0.51100000000E-03 0.  1.
        -12    1    3    3    0    0 -0.25456440649E+01 -0.14775421174E+02 -0.17782773343E+02  0.23259845277E+02  0.00000000000E+00 0.  1.
</event>
<event>
 7    1  0.3758561E-013  0.7246156E+02  0.7816164E-02  0.1226708E+00
        -11   -1    0    0    0    0  0.00000000000E+00  0.00000000000E+00  0.45593999997E+02  0.45594000000E+02  0.51100000000E-03 0. -1.
         11   -1    0    0    0    0 -0.00000000000E+00 -0.00000000000E+00 -0.45593999997E+02  0.45594000000E+02  0.51100000000E-03 0.  1.
    9900012    2    1    2    0    0  0.10798657386E+01 -0.16010996394E+02 -0.96520227263E+01  0.72461557245E+02  0.69999983001E+02 0.  0.
        -12    1    1    2    0    0 -0.10798657386E+01  0.16010996394E+02  0.96520227263E+01  0.18726442755E+02  0.00000000000E+00 0.  1.
         11    1    3    3    0    0  0.45190458161E+01  0.10913581530E+02 -0.61353651257E+01  0.13310550041E+02  0.51100000000E-03 0. -1.
        -11    1    3    3    0    0 -0.25346772800E+02 -0.27488702609E+01 -0.67277094248E+01  0.26368110540E+02  0.51100000000E-03 0.  1.
         12    1    3    3    0    0  0.21907592722E+02 -0.24175707663E+02  0.32110518242E+01  0.32782896665E+02  0.00000000000E+00 0. -1.
</event>
<event>
 7    1  0.3758561E-013  0.7246172E+02  0.7816164E-02  0.1226708E+00
        -11   -1    0    0    0    0  0.00000000000E+00  0.00000000000E+00  0.45593999997E+02  0.45594000000E+02  0.51100000000E-03 0. -1.
         11   -1    0    0    0    0 -0.00000000000E+00 -0.00000000000E+00 -0.45593999997E+02  0.45594000000E+02  0.51100000000E-03 0.  1.
    9900012    2    1    2    0    0  0.96966919478E+01 -0.95380118653E+01 -0.12871437748E+02  0.72461723948E+02  0.70000200162E+02 0.  0.
        -12    1    1    2    0    0 -0.96966919478E+01  0.95380118653E+01  0.12871437748E+02  0.18726276052E+02  0.00000000000E+00 0.  1.
         11    1    3    3    0    0 -0.15462635376E+02 -0.18110662746E+01 -0.11324893557E+02  0.19251656245E+02  0.51100000000E-03 0. -1.
        -11    1    3    3    0    0  0.14351652637E+01 -0.11988783205E+01 -0.21468861978E+02  0.21550151820E+02  0.51100000000E-03 0.  1.
         12    1    3    3    0    0  0.23724162060E+02 -0.65280672701E+01  0.19922317787E+02  0.31659915883E+02  0.00000000000E+00 0. -1.
</event>
<event>
 7    1  0.3758561E-013  0.7246155E+02  0.7816164E-02  0.1226708E+00
        -11   -1    0    0    0    0  0.00000000000E+00  0.00000000000E+00  0.45593999997E+02  0.45594000000E+02  0.51100000000E-03 0.  1.
         11   -1    0    0    0    0 -0.00000000000E+00 -0.00000000000E+00 -0.45593999997E+02  0.45594000000E+02  0.51100000000E-03 0. -1.
    9900012    2    1    2    0    0 -0.96114779469E+01  0.12035854146E+02  0.10650718831E+02  0.72461545317E+02  0.69999967463E+02 0.  0.
        -12    1    1    2    0    0  0.96114779469E+01 -0.12035854146E+02 -0.10650718831E+02  0.18726454683E+02  0.00000000000E+00 0.  1.
         11    1    3    3    0    0 -0.10799700323E+02 -0.74094282369E+01  0.90704318473E+01  0.15931286452E+02  0.51100000000E-03 0. -1.
        -11    1    3    3    0    0 -0.75659142617E+00 -0.13777400926E+02  0.15238259619E+02  0.20557085478E+02  0.51100000000E-03 0.  1.
         12    1    3    3    0    0  0.19448138026E+01  0.33222683309E+02 -0.13657972635E+02  0.35973173387E+02  0.00000000000E+00 0. -1.
</event>
<event>
 7    1  0.3758561E-013  0.7246174E+02  0.7816164E-02  0.1226708E+00
        -11   -1    0    0    0    0  0.00000000000E+00  0.00000000000E+00  0.45593999997E+02  0.45594000000E+02  0.51100000000E-03 0.  1.
         11   -1    0    0    0    0 -0.00000000000E+00 -0.00000000000E+00 -0.45593999997E+02  0.45594000000E+02  0.51100000000E-03 0. -1.
    9900012    2    1    2    0    0 -0.53166083600E+01  0.59534245295E+00 -0.17945806305E+02  0.72461742472E+02  0.70000224293E+02 0.  0.
        -12    1    1    2    0    0  0.53166083600E+01 -0.59534245295E+00  0.17945806305E+02  0.18726257528E+02  0.00000000000E+00 0.  1.
         11    1    3    3    0    0 -0.61911776487E+01 -0.10628482595E+02 -0.57942039895E+01  0.13596621753E+02  0.51100000000E-03 0. -1.
        -11    1    3    3    0    0 -0.11643454206E+02  0.88430982566E+01 -0.32055128513E+02  0.35232111445E+02  0.51100000000E-03 0.  1.
        -12    1    3    3    0    0  0.12518023494E+02  0.23807267913E+01  0.19903526198E+02  0.23633009275E+02  0.00000000000E+00 0.  1.
</event>
<event>
 7    1  0.3758561E-013  0.7246159E+02  0.7816164E-02  0.1226708E+00
        -11   -1    0    0    0    0  0.00000000000E+00  0.00000000000E+00  0.45593999997E+02  0.45594000000E+02  0.51100000000E-03 0.  1.
         11   -1    0    0    0    0 -0.00000000000E+00 -0.00000000000E+00 -0.45593999997E+02  0.45594000000E+02  0.51100000000E-03 0. -1.
    9900012    2    1    2    0    0  0.57440821621E+01  0.31478613154E+01 -0.17543517923E+02  0.72461587320E+02  0.70000022179E+02 0.  0.
        -12    1    1    2    0    0 -0.57440821621E+01 -0.31478613154E+01  0.17543517923E+02  0.18726412680E+02  0.00000000000E+00 0.  1.
         11    1    3    3    0    0 -0.11738237019E+02  0.23143486940E+01  0.62097753361E+01  0.13479752527E+02  0.51100000000E-03 0. -1.
        -11    1    3    3    0    0 -0.80401026145E+01  0.19187736095E+02 -0.23185980556E+01  0.20932949236E+02  0.51100000000E-03 0.  1.
         12    1    3    3    0    0  0.25522421796E+02 -0.18354223474E+02 -0.21434695204E+02  0.38048885557E+02  0.00000000000E+00 0. -1.
</event>
<event>
 7    1  0.3758561E-013  0.7246160E+02  0.7816164E-02  0.1226708E+00
        -11   -1    0    0    0    0  0.00000000000E+00  0.00000000000E+00  0.45593999997E+02  0.45594000000E+02  0.51100000000E-03 0.  1.
         11   -1    0    0    0    0 -0.00000000000E+00 -0.00000000000E+00 -0.45593999997E+02  0.45594000000E+02  0.51100000000E-03 0. -1.
    9900012    2    1    2    0    0  0.18145747427E+02 -0.32756851695E+00 -0.46154914531E+01  0.72461595856E+02  0.70000033299E+02 0.  0.
        -12    1    1    2    0    0 -0.18145747427E+02  0.32756851695E+00  0.46154914531E+01  0.18726404144E+02  0.00000000000E+00 0.  1.
         11    1    3    3    0    0  0.20817471844E+02  0.38893283166E+01 -0.15244631385E+02  0.26093922570E+02  0.51100000000E-03 0. -1.
        -11    1    3    3    0    0  0.14769926876E+02 -0.15432371597E+02  0.13740701346E+02  0.25399128071E+02  0.51100000000E-03 0.  1.
         12    1    3    3    0    0 -0.17441651293E+02  0.11215474764E+02 -0.31115614141E+01  0.20968545215E+02  0.00000000000E+00 0. -1.
</event>
<event>
 7    1  0.3758561E-013  0.7246164E+02  0.7816164E-02  0.1226708E+00
        -11   -1    0    0    0    0  0.00000000000E+00  0.00000000000E+00  0.45593999997E+02  0.45594000000E+02  0.51100000000E-03 0. -1.
         11   -1    0    0    0    0 -0.00000000000E+00 -0.00000000000E+00 -0.45593999997E+02  0.45594000000E+02  0.51100000000E-03 0.  1.
    9900012    2    1    2    0    0 -0.15772630934E+02  0.23458900716E+01 -0.98182126579E+01  0.72461644599E+02  0.70000096796E+02 0.  0.
        -12    1    1    2    0    0  0.15772630934E+02 -0.23458900716E+01  0.98182126579E+01  0.18726355401E+02  0.00000000000E+00 0.  1.
         11    1    3    3    0    0 -0.82346885621E-01 -0.10570091095E+02  0.11048017318E+02  0.15290267940E+02  0.51100000000E-03 0. -1.
        -11    1    3    3    0    0 -0.71812291562E+01 -0.16235084619E+02  0.36728678192E+01  0.18128375081E+02  0.51100000000E-03 0.  1.
        -12    1    3    3    0    0 -0.85090548921E+01  0.29151065786E+02 -0.24539097795E+02  0.39043001578E+02  0.00000000000E+00 0.  1.
</event>
<event>
 7    1  0.3758561E-013  0.7246156E+02  0.7816164E-02  0.1226708E+00
        -11   -1    0    0    0    0  0.00000000000E+00  0.00000000000E+00  0.45593999997E+02  0.45594000000E+02  0.51100000000E-03 0. -1.
         11   -1    0    0    0    0 -0.00000000000E+00 -0.00000000000E+00 -0.45593999997E+02  0.45594000000E+02  0.51100000000E-03 0.  1.
    9900012    2    1    2    0    0  0.17435404709E+02 -0.66089117243E+01  0.17345052021E+01  0.72461559873E+02  0.69999986424E+02 0.  0.
        -12    1    1    2    0    0 -0.17435404709E+02  0.66089117243E+01 -0.17345052021E+01  0.18726440127E+02  0.00000000000E+00 0.  1.
         11    1    3    3    0    0  0.10580708843E+02 -0.11838856148E+02  0.27988320865E+02  0.32178502445E+02  0.51100000000E-03 0. -1.
        -11    1    3    3    0    0 -0.33404879998E+01 -0.19105775189E+01  0.51924336277E+01  0.64630127473E+01  0.51100000000E-03 0.  1.
        -12    1    3    3    0    0  0.10195183866E+02  0.71405219430E+01 -0.31446249291E+02  0.33820044680E+02  0.00000000000E+00 0.  1.
</event>
<event>
 7    1  0.3758561E-013  0.7246152E+02  0.7816164E-02  0.1226708E+00
        -11   -1    0    0    0    0  0.00000000000E+00  0.00000000000E+00  0.45593999997E+02  0.45594000000E+02  0.51100000000E-03 0.  1.
         11   -1    0    0    0    0 -0.00000000000E+00 -0.00000000000E+00 -0.45593999997E+02  0.45594000000E+02  0.51100000000E-03 0. -1.
    9900012    2    1    2    0    0 -0.13553188455E+02 -0.10999298174E+02 -0.67828750981E+01  0.72461524832E+02  0.69999940777E+02 0.  0.
        -12    1    1    2    0    0  0.13553188455E+02  0.10999298174E+02  0.67828750981E+01  0.18726475168E+02  0.00000000000E+00 0.  1.
         11    1    3    3    0    0 -0.12282643939E+02  0.49535261057E+01 -0.77708667732E+01  0.15355361724E+02  0.51100000000E-03 0. -1.
        -11    1    3    3    0    0 -0.20462923689E+02  0.11577966182E+02  0.12561809189E+01  0.23544819761E+02  0.51100000000E-03 0.  1.
        -12    1    3    3    0    0  0.19192379173E+02 -0.27530790462E+02 -0.26818924383E+00  0.33561343347E+02  0.00000000000E+00 0.  1.
</event>
<event>
 7    1  0.3758561E-013  0.7246160E+02  0.7816164E-02  0.1226708E+00
        -11   -1    0    0    0    0  0.00000000000E+00  0.00000000000E+00  0.45593999997E+02  0.45594000000E+02  0.51100000000E-03 0. -1.
         11   -1    0    0    0    0 -0.00000000000E+00 -0.00000000000E+00 -0.45593999997E+02  0.45594000000E+02  0.51100000000E-03 0.  1.
    9900012    2    1    2    0    0 -0.58727655199E+01 -0.53011805147E+01  0.16973097052E+02  0.72461603838E+02  0.70000043697E+02 0.  0.
        -12    1    1    2    0    0  0.58727655199E+01  0.53011805147E+01 -0.16973097052E+02  0.18726396162E+02  0.00000000000E+00 0.  1.
         11    1    3    3    0    0 -0.13314258422E+02  0.18329758064E+02  0.19133050214E+02  0.29653382923E+02  0.51100000000E-03 0. -1.
        -11    1    3    3    0    0  0.51419796760E+01  0.81112397053E+01 -0.50524213090E+01  0.10851687698E+02  0.51100000000E-03 0.  1.
         12    1    3    3    0    0  0.22995132261E+01 -0.31742178284E+02  0.28924681467E+01  0.31956533217E+02  0.00000000000E+00 0. -1.
</event>
<event>
 7    1  0.3758561E-013  0.7246136E+02  0.7816164E-02  0.1226709E+00
        -11   -1    0    0    0    0  0.00000000000E+00  0.00000000000E+00  0.45593999997E+02  0.45594000000E+02  0.51100000000E-03 0.  1.
         11   -1    0    0    0    0 -0.00000000000E+00 -0.00000000000E+00 -0.45593999997E+02  0.45594000000E+02  0.51100000000E-03 0. -1.
    9900012    2    1    2    0    0 -0.98795536804E+01  0.11488523476E+02 -0.11004330870E+02  0.72461359872E+02  0.69999725885E+02 0.  0.
        -12    1    1    2    0    0  0.98795536804E+01 -0.11488523476E+02  0.11004330870E+02  0.18726640128E+02  0.00000000000E+00 0.  1.
         11    1    3    3    0    0 -0.12178283341E+02 -0.12988861598E+02 -0.26256600174E+02  0.31724283502E+02  0.51100000000E-03 0. -1.
        -11    1    3    3    0    0  0.16979534769E+01  0.15708429114E+02 -0.66459102227E+01  0.17140767608E+02  0.51100000000E-03 0.  1.
        -12    1    3    3    0    0  0.60077618393E+00  0.87689559607E+01  0.21898179527E+02  0.23596308763E+02  0.00000000000E+00 0.  1.
</event>
<event>
 7    1  0.3758561E-013  0.7246157E+02  0.7816164E-02  0.1226708E+00
        -11   -1    0    0    0    0  0.00000000000E+00  0.00000000000E+00  0.45593999997E+02  0.45594000000E+02  0.51100000000E-03 0. -1.
         11   -1    0    0    0    0 -0.00000000000E+00 -0.00000000000E+00 -0.45593999997E+02  0.45594000000E+02  0.51100000000E-03 0.  1.
    9900012    2    1    2    0    0 -0.47382811705E+01  0.84236101136E+01  0.16039654074E+02  0.72461574324E+02  0.70000005250E+02 0.  0.
        -12    1    1    2    0    0  0.47382811705E+01 -0.84236101136E+01 -0.16039654074E+02  0.18726425676E+02  0.00000000000E+00 0.  1.
         11    1    3    3    0    0 -0.93169157656E+01  0.35583405754E+01  0.18058373348E+01  0.10135470180E+02  0.51100000000E-03 0. -1.
        -11    1    3    3    0    0  0.16885542527E+02 -0.23798905092E+02  0.37686079974E+01  0.29422981434E+02  0.51100000000E-03 0.  1.
         12    1    3    3    0    0 -0.12306907931E+02  0.28664174630E+02  0.10465208741E+02  0.32903122710E+02  0.00000000000E+00 0. -1.
</event>
<event>
 7    1  0.3758561E-013  0.7246159E+02  0.7816164E-02  0.1226708E+00
        -11   -1    0    0    0    0  0.00000000000E+00  0.00000000000E+00  0.45593999997E+02  0.45594000000E+02  0.51100000000E-03 0.  1.
         11   -1    0    0    0    0 -0.00000000000E+00 -0.00000000000E+00 -0.45593999997E+02  0.45594000000E+02  0.51100000000E-03 0. -1.
    9900012    2    1    2    0    0 -0.40713227247E+01  0.12453572263E+02 -0.13379517247E+02  0.72461585165E+02  0.70000019371E+02 0.  0.
        -12    1    1    2    0    0  0.40713227247E+01 -0.12453572263E+02  0.13379517247E+02  0.18726414835E+02  0.00000000000E+00 0.  1.
         11    1    3    3    0    0  0.14186428126E+02  0.18058147934E+02 -0.80756816705E+01  0.24342721387E+02  0.51100000000E-03 0. -1.
        -11    1    3    3    0    0  0.12595570396E+02  0.39436613372E+01  0.51566532691E+01  0.14170106970E+02  0.51100000000E-03 0.  1.
        -12    1    3    3    0    0 -0.30853321247E+02 -0.95482370088E+01 -0.10460488845E+02  0.33948756808E+02  0.00000000000E+00 0.  1.
</event>
<event>
 7    1  0.3758561E-013  0.7246159E+02  0.7816164E-02  0.1226708E+00
        -11   -1    0    0    0    0  0.00000000000E+00  0.00000000000E+00  0.45593999997E+02  0.45594000000E+02  0.51100000000E-03 0.  1.
         11   -1    0    0    0    0 -0.00000000000E+00 -0.00000000000E+00 -0.45593999997E+02  0.45594000000E+02  0.51100000000E-03 0. -1.
    9900012    2    1    2    0    0 -0.55026005286E+01 -0.10633986719E+02 -0.14398548567E+02  0.72461588519E+02  0.70000023741E+02 0.  0.
        -12    1    1    2    0    0  0.55026005286E+01  0.10633986719E+02  0.14398548567E+02  0.18726411481E+02  0.00000000000E+00 0.  1.
         11    1    3    3    0    0  0.82374670761E+00  0.46861521638E+01 -0.44310469575E+01  0.65017503905E+01  0.51100000000E-03 0. -1.
        -11    1    3    3    0    0  0.65179473848E+00  0.32139785863E+01  0.25300337924E+02  0.25511989222E+02  0.51100000000E-03 0.  1.
         12    1    3    3    0    0 -0.69781419747E+01 -0.18534117469E+02 -0.35267839534E+02  0.40447848906E+02  0.00000000000E+00 0. -1.
</event>
<event>
 7    1  0.3758561E-013  0.7246131E+02  0.7816164E-02  0.1226709E+00
        -11   -1    0    0    0    0  0.00000000000E+00  0.00000000000E+00  0.45593999997E+02  0.45594000000E+02  0.51100000000E-03 0.  1.
         11   -1    0    0    0    0 -0.00000000000E+00 -0.00000000000E+00 -0.45593999997E+02  0.45594000000E+02  0.51100000000E-03 0. -1.
    9900012    2    1    2    0    0 -0.17882193709E+02  0.61741086663E+00 -0.55258422620E+01  0.72461308335E+02  0.69999658749E+02 0.  0.
        -12    1    1    2    0    0  0.17882193709E+02 -0.61741086663E+00  0.55258422620E+01  0.18726691665E+02  0.00000000000E+00 0.  1.
         11    1    3    3    0    0  0.87523807091E+00 -0.26240240301E+02 -0.24068231456E-01  0.26254843977E+02  0.51100000000E-03 0. -1.
        -11    1    3    3    0    0  0.74976408424E+01  0.10858557737E+02  0.43932548379E+01  0.13907680707E+02  0.51100000000E-03 0.  1.
        -12    1    3    3    0    0 -0.26255072622E+02  0.15999093431E+02 -0.98950288684E+01  0.32298783651E+02  0.00000000000E+00 0.  1.
</event>
<event>
 7    1  0.3758561E-013  0.7246156E+02  0.7816164E-02  0.1226708E+00
        -11   -1    0    0    0    0  0.00000000000E+00  0.00000000000E+00  0.45593999997E+02  0.45594000000E+02  0.51100000000E-03 0.  1.
         11   -1    0    0    0    0 -0.00000000000E+00 -0.00000000000E+00 -0.45593999997E+02  0.45594000000E+02  0.51100000000E-03 0. -1.
    9900012    2    1    2    0    0  0.59950626660E+01 -0.80042478619E+01 -0.15832582394E+02  0.72461563461E+02  0.69999991098E+02 0.  0.
        -12    1    1    2    0    0 -0.59950626660E+01  0.80042478619E+01  0.15832582394E+02  0.18726436539E+02  0.00000000000E+00 0.  1.
         11    1    3    3    0    0 -0.53186523753E+01  0.33585290699E+01 -0.15355818488E+02  0.16594244252E+02  0.51100000000E-03 0. -1.
        -11    1    3    3    0    0  0.43676990871E+01  0.81809073226E+00 -0.26198017808E+02  0.26572207381E+02  0.51100000000E-03 0.  1.
        -12    1    3    3    0    0  0.69460159542E+01 -0.12180867664E+02  0.25721253902E+02  0.29295111828E+02  0.00000000000E+00 0.  1.
</event>
<event>
 7    1  0.3758561E-013  0.7246158E+02  0.7816164E-02  0.1226708E+00
        -11   -1    0    0    0    0  0.00000000000E+00  0.00000000000E+00  0.45593999997E+02  0.45594000000E+02  0.51100000000E-03 0.  1.
         11   -1    0    0    0    0 -0.00000000000E+00 -0.00000000000E+00 -0.45593999997E+02  0.45594000000E+02  0.51100000000E-03 0. -1.
    9900012    2    1    2    0    0 -0.10206743537E+02 -0.53042506267E+01 -0.14777211187E+02  0.72461583930E+02  0.70000017763E+02 0.  0.
        -12    1    1    2    0    0  0.10206743537E+02  0.53042506267E+01  0.14777211187E+02  0.18726416070E+02  0.00000000000E+00 0.  1.
         11    1    3    3    0    0  0.18715487093E+02 -0.14622750096E+02 -0.36452038415E+01  0.24028770023E+02  0.51100000000E-03 0. -1.
        -11    1    3    3    0    0  0.75420150356E+01  0.74282045629E+01 -0.33088745925E+01  0.11090936171E+02  0.51100000000E-03 0.  1.
         12    1    3    3    0    0 -0.36464245666E+02  0.18902949067E+01 -0.78231327533E+01  0.37341877736E+02  0.00000000000E+00 0. -1.
</event>
<event>
 7    1  0.3758561E-013  0.7246161E+02  0.7816164E-02  0.1226708E+00
        -11   -1    0    0    0    0  0.00000000000E+00  0.00000000000E+00  0.45593999997E+02  0.45594000000E+02  0.51100000000E-03 0.  1.
         11   -1    0    0    0    0 -0.00000000000E+00 -0.00000000000E+00 -0.45593999997E+02  0.45594000000E+02  0.51100000000E-03 0. -1.
    9900012    2    1    2    0    0 -0.26816550501E+01  0.15668301403E+02 -0.98990194464E+01  0.72461614106E+02  0.70000057073E+02 0.  0.
        -12    1    1    2    0    0  0.26816550501E+01 -0.15668301403E+02  0.98990194464E+01  0.18726385894E+02  0.00000000000E+00 0.  1.
         11    1    3    3    0    0  0.53742826910E+01  0.24664056832E+02  0.73314854849E+01  0.26285914356E+02  0.51100000000E-03 0. -1.
        -11    1    3    3    0    0  0.14070457037E+02  0.16956764137E+01  0.28315514367E+01  0.14452361867E+02  0.51100000000E-03 0.  1.
        -12    1    3    3    0    0 -0.22126394778E+02 -0.10691431843E+02 -0.20062056368E+02  0.31723337883E+02  0.00000000000E+00 0.  1.
</event>
<event>
 7    1  0.3758561E-013  0.7246157E+02  0.7816164E-02  0.1226708E+00
        -11   -1    0    0    0    0  0.00000000000E+00  0.00000000000E+00  0.45593999997E+02  0.45594000000E+02  0.51100000000E-03 0. -1.
         11   -1    0    0    0    0 -0.00000000000E+00 -0.00000000000E+00 -0.45593999997E+02  0.45594000000E+02  0.51100000000E-03 0.  1.
    9900012    2    1    2    0    0 -0.12394604717E+02 -0.13961348715E+02 -0.14607042849E+01  0.72461571055E+02  0.70000000990E+02 0.  0.
        -12    1    1    2    0    0  0.12394604717E+02  0.13961348715E+02  0.14607042849E+01  0.18726428945E+02  0.00000000000E+00 0.  1.
         11    1    3    3    0    0  0.10204839970E+01 -0.10763147869E+02  0.25247764637E+02  0.27465184490E+02  0.51100000000E-03 0. -1.
        -11    1    3    3    0    0 -0.78962744457E+01 -0.35445307840E+01  0.68172495773E+01  0.11017701242E+02  0.51100000000E-03 0.  1.
        -12    1    3    3    0    0 -0.55188142684E+01  0.34632993804E+00 -0.33525718499E+02  0.33978685322E+02  0.00000000000E+00 0.  1.
</event>
<event>
 7    1  0.3758561E-013  0.7246160E+02  0.7816164E-02  0.1226708E+00
        -11   -1    0    0    0    0  0.00000000000E+00  0.00000000000E+00  0.45593999997E+02  0.45594000000E+02  0.51100000000E-03 0.  1.
         11   -1    0    0    0    0 -0.00000000000E+00 -0.00000000000E+00 -0.45593999997E+02  0.45594000000E+02  0.51100000000E-03 0. -1.
    9900012    2    1    2    0    0 -0.18454159224E+02 -0.27405116602E+01 -0.16160691084E+01  0.72461599486E+02  0.70000038028E+02 0.  0.
        -12    1    1    2    0    0  0.18454159224E+02  0.27405116602E+01  0.16160691084E+01  0.18726400514E+02  0.00000000000E+00 0.  1.
         11    1    3    3    0    0  0.16006720033E+00  0.56086892493E+01 -0.83498730036E+01  0.10059989863E+02  0.51100000000E-03 0. -1.
        -11    1    3    3    0    0  0.71900800865E+00 -0.31695184809E+02  0.42734343207E+01  0.31990060233E+02  0.51100000000E-03 0.  1.
         12    1    3    3    0    0 -0.19333234433E+02  0.23345983899E+02  0.24603695745E+01  0.30411549390E+02  0.00000000000E+00 0. -1.
</event>
<event>
 7    1  0.3758561E-013  0.7246160E+02  0.7816164E-02  0.1226708E+00
        -11   -1    0    0    0    0  0.00000000000E+00  0.00000000000E+00  0.45593999997E+02  0.45594000000E+02  0.51100000000E-03 0.  1.
         11   -1    0    0    0    0 -0.00000000000E+00 -0.00000000000E+00 -0.45593999997E+02  0.45594000000E+02  0.51100000000E-03 0. -1.
    9900012    2    1    2    0    0  0.14693928771E+01 -0.18451474475E+02 -0.28394019262E+01  0.72461595405E+02  0.70000032712E+02 0.  0.
        -12    1    1    2    0    0 -0.14693928771E+01  0.18451474475E+02  0.28394019262E+01  0.18726404595E+02  0.00000000000E+00 0.  1.
         11    1    3    3    0    0 -0.14963484466E+02 -0.18275136299E+02 -0.11010553368E+02  0.26059907134E+02  0.51100000000E-03 0. -1.
        -11    1    3    3    0    0 -0.10378674974E+01 -0.13744452159E+02 -0.10601504124E+02  0.17389048969E+02  0.51100000000E-03 0.  1.
        -12    1    3    3    0    0  0.17470744841E+02  0.13568113983E+02  0.18772655565E+02  0.29012639303E+02  0.00000000000E+00 0.  1.
</event>
<event>
 7    1  0.3758561E-013  0.7246156E+02  0.7816164E-02  0.1226708E+00
        -11   -1    0    0    0    0  0.00000000000E+00  0.00000000000E+00  0.45593999997E+02  0.45594000000E+02  0.51100000000E-03 0.  1.
         11   -1    0    0    0    0 -0.00000000000E+00 -0.00000000000E+00 -0.45593999997E+02  0.45594000000E+02  0.51100000000E-03 0. -1.
    9900012    2    1    2    0    0 -0.12127196107E+02  0.11906386673E+02 -0.78644000033E+01  0.72461555692E+02  0.69999980978E+02 0.  0.
        -12    1    1    2    0    0  0.12127196107E+02 -0.11906386673E+02  0.78644000033E+01  0.18726444308E+02  0.00000000000E+00 0.  1.
         11    1    3    3    0    0 -0.12151115561E+02  0.25297717080E+02  0.79155916666E+01  0.29159572880E+02  0.51100000000E-03 0. -1.
        -11    1    3    3    0    0  0.16988355306E+02 -0.10137703651E+02  0.17976658551E+00  0.19784073585E+02  0.51100000000E-03 0.  1.
        -12    1    3    3    0    0 -0.16964435852E+02 -0.32536267571E+01 -0.15959758255E+02  0.23517909227E+02  0.00000000000E+00 0.  1.
</event>
<event>
 7    1  0.3758561E-013  0.7246163E+02  0.7816164E-02  0.1226708E+00
        -11   -1    0    0    0    0  0.00000000000E+00  0.00000000000E+00  0.45593999997E+02  0.45594000000E+02  0.51100000000E-03 0.  1.
         11   -1    0    0    0    0 -0.00000000000E+00 -0.00000000000E+00 -0.45593999997E+02  0.45594000000E+02  0.51100000000E-03 0. -1.
    9900012    2    1    2    0    0  0.45114318896E+01 -0.71678494651E+01 -0.16701671864E+02  0.72461630178E+02  0.70000078010E+02 0.  0.
        -12    1    1    2    0    0 -0.45114318896E+01  0.71678494651E+01  0.16701671864E+02  0.18726369822E+02  0.00000000000E+00 0.  1.
         11    1    3    3    0    0 -0.92162642827E+01 -0.15115962698E+02 -0.18306007285E+02  0.25466483043E+02  0.51100000000E-03 0. -1.
        -11    1    3    3    0    0  0.87929102853E+01 -0.76822937961E+01 -0.17991329170E+02  0.21448096299E+02  0.51100000000E-03 0.  1.
        -12    1    3    3    0    0  0.49347858870E+01  0.15630407029E+02  0.19595664592E+02  0.25547050836E+02  0.00000000000E+00 0.  1.
</event>
<event>
 7    1  0.3758561E-013  0.7246153E+02  0.7816164E-02  0.1226708E+00
        -11   -1    0    0    0    0  0.00000000000E+00  0.00000000000E+00  0.45593999997E+02  0.45594000000E+02  0.51100000000E-03 0.  1.
         11   -1    0    0    0    0 -0.00000000000E+00 -0.00000000000E+00 -0.45593999997E+02  0.45594000000E+02  0.51100000000E-03 0. -1.
    9900012    2    1    2    0    0  0.45581780872E+01  0.11449589209E+02 -0.14100015124E+02  0.72461534583E+02  0.69999953479E+02 0.  0.
        -12    1    1    2    0    0 -0.45581780872E+01 -0.11449589209E+02  0.14100015124E+02  0.18726465417E+02  0.00000000000E+00 0.  1.
         11    1    3    3    0    0  0.53427409922E+01  0.29699278861E+02 -0.25299638422E+02  0.39378468110E+02  0.51100000000E-03 0. -1.
        -11    1    3    3    0    0  0.87799848452E+01 -0.35331563935E+01 -0.35989424471E+01  0.10125399497E+02  0.51100000000E-03 0.  1.
        -12    1    3    3    0    0 -0.95645477502E+01 -0.14716533259E+02  0.14798565745E+02  0.22957666975E+02  0.00000000000E+00 0.  1.
</event>
<event>
 7    1  0.3758561E-013  0.7246159E+02  0.7816164E-02  0.1226708E+00
        -11   -1    0    0    0    0  0.00000000000E+00  0.00000000000E+00  0.45593999997E+02  0.45594000000E+02  0.51100000000E-03 0.  1.
         11   -1    0    0    0    0 -0.00000000000E+00 -0.00000000000E+00 -0.45593999997E+02  0.45594000000E+02  0.51100000000E-03 0. -1.
    9900012    2    1    2    0    0  0.14115453995E+02 -0.39727257669E+01 -0.11646876300E+02  0.72461593002E+02  0.70000029581E+02 0.  0.
        -12    1    1    2    0    0 -0.14115453995E+02  0.39727257669E+01  0.11646876300E+02  0.18726406998E+02  0.00000000000E+00 0.  1.
         11    1    3    3    0    0  0.11710239493E+01 -0.12475192602E+01 -0.22452213462E+02  0.22517315359E+02  0.51100000000E-03 0. -1.
        -11    1    3    3    0    0 -0.16247232958E+01 -0.11239420252E+02 -0.15181716757E+02  0.18959135459E+02  0.51100000000E-03 0.  1.
        -12    1    3    3    0    0  0.14569153341E+02  0.85142137450E+01  0.25987053919E+02  0.30985142184E+02  0.00000000000E+00 0.  1.
</event>
<event>
 7    1  0.3758561E-013  0.7246165E+02  0.7816164E-02  0.1226708E+00
        -11   -1    0    0    0    0  0.00000000000E+00  0.00000000000E+00  0.45593999997E+02  0.45594000000E+02  0.51100000000E-03 0. -1.
         11   -1    0    0    0    0 -0.00000000000E+00 -0.00000000000E+00 -0.45593999997E+02  0.45594000000E+02  0.51100000000E-03 0.  1.
    9900012    2    1    2    0    0  0.12251757401E+02  0.11683407147E+02  0.80042899104E+01  0.72461649075E+02  0.70000102627E+02 0.  0.
        -12    1    1    2    0    0 -0.12251757401E+02 -0.11683407147E+02 -0.80042899104E+01  0.18726350925E+02  0.00000000000E+00 0.  1.
         11    1    3    3    0    0  0.35302218134E+02  0.63904480776E+01  0.97994070995E+00  0.35889339864E+02  0.51100000000E-03 0. -1.
        -11    1    3    3    0    0  0.55547798764E+01  0.23966023583E+01  0.48224460119E+01  0.77366186501E+01  0.51100000000E-03 0.  1.
        -12    1    3    3    0    0 -0.28605240609E+02  0.28963567112E+01  0.22019031885E+01  0.28835690561E+02  0.00000000000E+00 0.  1.
</event>
<event>
 7    1  0.3758561E-013  0.7246208E+02  0.7816164E-02  0.1226707E+00
        -11   -1    0    0    0    0  0.00000000000E+00  0.00000000000E+00  0.45593999997E+02  0.45594000000E+02  0.51100000000E-03 0. -1.
         11   -1    0    0    0    0 -0.00000000000E+00 -0.00000000000E+00 -0.45593999997E+02  0.45594000000E+02  0.51100000000E-03 0.  1.
    9900012    2    1    2    0    0  0.66444456037E+01 -0.14427581024E+02  0.99174756556E+01  0.72462080130E+02  0.70000664153E+02 0.  0.
        -12    1    1    2    0    0 -0.66444456037E+01  0.14427581024E+02 -0.99174756556E+01  0.18725919870E+02  0.00000000000E+00 0.  1.
         11    1    3    3    0    0  0.78803087072E+01 -0.17714828838E+02  0.11815240774E+02  0.22704940891E+02  0.51100000000E-03 0. -1.
        -11    1    3    3    0    0  0.22344922910E+02  0.76370275122E+01 -0.81430424969E+01  0.24978569023E+02  0.51100000000E-03 0.  1.
         12    1    3    3    0    0 -0.23580786013E+02 -0.43497796989E+01  0.62452773786E+01  0.24778570216E+02  0.00000000000E+00 0. -1.
</event>
<event>
 7    1  0.3758561E-013  0.7246153E+02  0.7816164E-02  0.1226708E+00
        -11   -1    0    0    0    0  0.00000000000E+00  0.00000000000E+00  0.45593999997E+02  0.45594000000E+02  0.51100000000E-03 0.  1.
         11   -1    0    0    0    0 -0.00000000000E+00 -0.00000000000E+00 -0.45593999997E+02  0.45594000000E+02  0.51100000000E-03 0. -1.
    9900012    2    1    2    0    0  0.86754179655E+01  0.16586523764E+02  0.55216627480E+00  0.72461533835E+02  0.69999952505E+02 0.  0.
        -12    1    1    2    0    0 -0.86754179655E+01 -0.16586523764E+02 -0.55216627480E+00  0.18726466165E+02  0.00000000000E+00 0.  1.
         11    1    3    3    0    0  0.44851211348E+01 -0.59510107924E+01 -0.25167317332E+02  0.26247375164E+02  0.51100000000E-03 0. -1.
        -11    1    3    3    0    0  0.99803962412E+01 -0.29023776925E+01  0.12931520079E+01  0.10473984332E+02  0.51100000000E-03 0.  1.
        -12    1    3    3    0    0 -0.57900994105E+01  0.25439912249E+02  0.24426331599E+02  0.35740174339E+02  0.00000000000E+00 0.  1.
</event>
<event>
 7    1  0.3758561E-013  0.7246161E+02  0.7816164E-02  0.1226708E+00
        -11   -1    0    0    0    0  0.00000000000E+00  0.00000000000E+00  0.45593999997E+02  0.45594000000E+02  0.51100000000E-03 0.  1.
         11   -1    0    0    0    0 -0.00000000000E+00 -0.00000000000E+00 -0.45593999997E+02  0.45594000000E+02  0.51100000000E-03 0. -1.
    9900012    2    1    2    0    0  0.81423069163E+01  0.16233332290E+02 -0.45672085678E+01  0.72461611313E+02  0.70000053435E+02 0.  0.
        -12    1    1    2    0    0 -0.81423069163E+01 -0.16233332290E+02  0.45672085678E+01  0.18726388687E+02  0.00000000000E+00 0.  1.
         11    1    3    3    0    0 -0.41145341156E+00  0.28181313135E+02  0.11197838731E+02  0.30327335795E+02  0.51100000000E-03 0. -1.
        -11    1    3    3    0    0 -0.90707451898E+01  0.71845413826E+01  0.27300810469E+00  0.11574566379E+02  0.51100000000E-03 0.  1.
        -12    1    3    3    0    0  0.17624505518E+02 -0.19132522228E+02 -0.16038055404E+02  0.30559709139E+02  0.00000000000E+00 0.  1.
</event>
<event>
 7    1  0.3758561E-013  0.7246150E+02  0.7816164E-02  0.1226708E+00
        -11   -1    0    0    0    0  0.00000000000E+00  0.00000000000E+00  0.45593999997E+02  0.45594000000E+02  0.51100000000E-03 0.  1.
         11   -1    0    0    0    0 -0.00000000000E+00 -0.00000000000E+00 -0.45593999997E+02  0.45594000000E+02  0.51100000000E-03 0. -1.
    9900012    2    1    2    0    0 -0.44492302668E+01  0.53576740056E+01 -0.17383363703E+02  0.72461503949E+02  0.69999913572E+02 0.  0.
        -12    1    1    2    0    0  0.44492302668E+01 -0.53576740056E+01  0.17383363703E+02  0.18726496051E+02  0.00000000000E+00 0.  1.
         11    1    3    3    0    0  0.72936262347E+01  0.72460158079E+01 -0.54065606263E+01  0.11616050396E+02  0.51100000000E-03 0. -1.
        -11    1    3    3    0    0 -0.19397332724E+02  0.19779125654E+02  0.96040767672E+01  0.29320788176E+02  0.51100000000E-03 0.  1.
         12    1    3    3    0    0  0.76544762229E+01 -0.21667467457E+02 -0.21580879844E+02  0.31524665376E+02  0.00000000000E+00 0. -1.
</event>
<event>
 7    1  0.3758561E-013  0.7246151E+02  0.7816164E-02  0.1226708E+00
        -11   -1    0    0    0    0  0.00000000000E+00  0.00000000000E+00  0.45593999997E+02  0.45594000000E+02  0.51100000000E-03 0.  1.
         11   -1    0    0    0    0 -0.00000000000E+00 -0.00000000000E+00 -0.45593999997E+02  0.45594000000E+02  0.51100000000E-03 0. -1.
    9900012    2    1    2    0    0  0.13598832006E+02 -0.55124767475E+01  0.11634677761E+02  0.72461511851E+02  0.69999923866E+02 0.  0.
        -12    1    1    2    0    0 -0.13598832006E+02  0.55124767475E+01 -0.11634677761E+02  0.18726488149E+02  0.00000000000E+00 0.  1.
         11    1    3    3    0    0  0.18638302934E+02  0.34565898652E+01  0.14301851416E+01  0.19009991572E+02  0.51100000000E-03 0. -1.
        -11    1    3    3    0    0  0.54705506806E+01 -0.11933631713E+02  0.28932966990E+02  0.31771922664E+02  0.51100000000E-03 0.  1.
        -12    1    3    3    0    0 -0.10510021610E+02  0.29645651004E+01 -0.18728474371E+02  0.21679597615E+02  0.00000000000E+00 0.  1.
</event>
<event>
 7    1  0.3758561E-013  0.7246158E+02  0.7816164E-02  0.1226708E+00
        -11   -1    0    0    0    0  0.00000000000E+00  0.00000000000E+00  0.45593999997E+02  0.45594000000E+02  0.51100000000E-03 0.  1.
         11   -1    0    0    0    0 -0.00000000000E+00 -0.00000000000E+00 -0.45593999997E+02  0.45594000000E+02  0.51100000000E-03 0. -1.
    9900012    2    1    2    0    0  0.80208336719E+01 -0.10287632834E+02 -0.13435387847E+02  0.72461579928E+02  0.70000012549E+02 0.  0.
        -12    1    1    2    0    0 -0.80208336719E+01  0.10287632834E+02  0.13435387847E+02  0.18726420072E+02  0.00000000000E+00 0.  1.
         11    1    3    3    0    0 -0.14200462228E+01  0.21516623115E+02 -0.10186695364E+01  0.21587479923E+02  0.51100000000E-03 0. -1.
        -11    1    3    3    0    0 -0.30534790109E+01 -0.11520867969E+02  0.11893109962E+02  0.16837464110E+02  0.51100000000E-03 0.  1.
        -12    1    3    3    0    0  0.12494358906E+02 -0.20283387979E+02 -0.24309828273E+02  0.34036635895E+02  0.00000000000E+00 0.  1.
</event>
<event>
 7    1  0.3758561E-013  0.7246155E+02  0.7816164E-02  0.1226708E+00
        -11   -1    0    0    0    0  0.00000000000E+00  0.00000000000E+00  0.45593999997E+02  0.45594000000E+02  0.51100000000E-03 0.  1.
         11   -1    0    0    0    0 -0.00000000000E+00 -0.00000000000E+00 -0.45593999997E+02  0.45594000000E+02  0.51100000000E-03 0. -1.
    9900012    2    1    2    0    0  0.61125585886E+01  0.55143463477E+01 -0.16819883151E+02  0.72461551929E+02  0.69999976076E+02 0.  0.
        -12    1    1    2    0    0 -0.61125585886E+01 -0.55143463477E+01  0.16819883151E+02  0.18726448071E+02  0.00000000000E+00 0.  1.
         11    1    3    3    0    0  0.78137010253E+01  0.13514760199E+02 -0.33357939465E+02  0.36830079997E+02  0.51100000000E-03 0. -1.
        -11    1    3    3    0    0 -0.50736981588E+01  0.38864656615E+01 -0.67331202896E+01  0.92834227223E+01  0.51100000000E-03 0.  1.
        -12    1    3    3    0    0  0.33725557222E+01 -0.11886879512E+02  0.23271176604E+02  0.26348049210E+02  0.00000000000E+00 0.  1.
</event>
<event>
 7    1  0.3758561E-013  0.7246155E+02  0.7816164E-02  0.1226708E+00
        -11   -1    0    0    0    0  0.00000000000E+00  0.00000000000E+00  0.45593999997E+02  0.45594000000E+02  0.51100000000E-03 0. -1.
         11   -1    0    0    0    0 -0.00000000000E+00 -0.00000000000E+00 -0.45593999997E+02  0.45594000000E+02  0.51100000000E-03 0.  1.
    9900012    2    1    2    0    0  0.10539594090E+02 -0.14318663619E+02 -0.58798565927E+01  0.72461551192E+02  0.69999975116E+02 0.  0.
        -12    1    1    2    0    0 -0.10539594090E+02  0.14318663619E+02  0.58798565927E+01  0.18726448808E+02  0.00000000000E+00 0.  1.
         11    1    3    3    0    0 -0.36080173921E+01 -0.86396522015E+01  0.15474992976E+02  0.18086923108E+02  0.51100000000E-03 0. -1.
        -11    1    3    3    0    0  0.53643483973E+01 -0.22017613704E+02  0.39455376174E+01  0.23002582775E+02  0.51100000000E-03 0.  1.
         12    1    3    3    0    0  0.87832630849E+01  0.16338602287E+02 -0.25300387186E+02  0.31372045309E+02  0.00000000000E+00 0. -1.
</event>
<event>
 7    1  0.3758561E-013  0.7246155E+02  0.7816164E-02  0.1226708E+00
        -11   -1    0    0    0    0  0.00000000000E+00  0.00000000000E+00  0.45593999997E+02  0.45594000000E+02  0.51100000000E-03 0. -1.
         11   -1    0    0    0    0 -0.00000000000E+00 -0.00000000000E+00 -0.45593999997E+02  0.45594000000E+02  0.51100000000E-03 0.  1.
    9900012    2    1    2    0    0 -0.17208989780E+02  0.72029003297E+01  0.16275548679E+01  0.72461547126E+02  0.69999969819E+02 0.  0.
        -12    1    1    2    0    0  0.17208989780E+02 -0.72029003297E+01 -0.16275548679E+01  0.18726452874E+02  0.00000000000E+00 0.  1.
         11    1    3    3    0    0  0.85788230462E+01 -0.97649020176E+01  0.25823551876E+02  0.28910298304E+02  0.51100000000E-03 0. -1.
        -11    1    3    3    0    0 -0.12093551000E+02 -0.77582240724E+00 -0.25338754642E+01  0.12380484696E+02  0.51100000000E-03 0.  1.
        -12    1    3    3    0    0 -0.13694261826E+02  0.17743624755E+02 -0.21662121544E+02  0.31170764126E+02  0.00000000000E+00 0.  1.
</event>
<event>
 7    1  0.3758561E-013  0.7246161E+02  0.7816164E-02  0.1226708E+00
        -11   -1    0    0    0    0  0.00000000000E+00  0.00000000000E+00  0.45593999997E+02  0.45594000000E+02  0.51100000000E-03 0.  1.
         11   -1    0    0    0    0 -0.00000000000E+00 -0.00000000000E+00 -0.45593999997E+02  0.45594000000E+02  0.51100000000E-03 0. -1.
    9900012    2    1    2    0    0 -0.16753672369E+02 -0.79524510629E+01 -0.25981759256E+01  0.72461613966E+02  0.70000056890E+02 0.  0.
        -12    1    1    2    0    0  0.16753672369E+02  0.79524510629E+01  0.25981759256E+01  0.18726386034E+02  0.00000000000E+00 0.  1.
         11    1    3    3    0    0 -0.19888943931E+02  0.13352310502E+02 -0.25209851721E+02  0.34776298113E+02  0.51100000000E-03 0. -1.
        -11    1    3    3    0    0  0.37848637274E+00  0.43385381248E+01  0.34128653130E+01  0.55329752304E+01  0.51100000000E-03 0.  1.
        -12    1    3    3    0    0  0.27567851891E+01 -0.25643299690E+02  0.19198810482E+02  0.32152340622E+02  0.00000000000E+00 0.  1.
</event>
<event>
 7    1  0.3758561E-013  0.7246157E+02  0.7816164E-02  0.1226708E+00
        -11   -1    0    0    0    0  0.00000000000E+00  0.00000000000E+00  0.45593999997E+02  0.45594000000E+02  0.51100000000E-03 0.  1.
         11   -1    0    0    0    0 -0.00000000000E+00 -0.00000000000E+00 -0.45593999997E+02  0.45594000000E+02  0.51100000000E-03 0. -1.
    9900012    2    1    2    0    0  0.47810798901E+01  0.74324503581E+01 -0.16509970721E+02  0.72461570110E+02  0.69999999759E+02 0.  0.
        -12    1    1    2    0    0 -0.47810798901E+01 -0.74324503581E+01  0.16509970721E+02  0.18726429890E+02  0.00000000000E+00 0.  1.
         11    1    3    3    0    0  0.23861454441E+02 -0.27487288557E+01 -0.45553274663E+01  0.24447403276E+02  0.51100000000E-03 0. -1.
        -11    1    3    3    0    0 -0.68744826468E+01 -0.14822956875E+02  0.27088158441E+01  0.16562495154E+02  0.51100000000E-03 0.  1.
         12    1    3    3    0    0 -0.12205891904E+02  0.25004136089E+02 -0.14663459098E+02  0.31451671680E+02  0.00000000000E+00 0. -1.
</event>
<event>
 7    1  0.3758561E-013  0.7246159E+02  0.7816164E-02  0.1226708E+00
        -11   -1    0    0    0    0  0.00000000000E+00  0.00000000000E+00  0.45593999997E+02  0.45594000000E+02  0.51100000000E-03 0. -1.
         11   -1    0    0    0    0 -0.00000000000E+00 -0.00000000000E+00 -0.45593999997E+02  0.45594000000E+02  0.51100000000E-03 0.  1.
    9900012    2    1    2    0    0 -0.49183529496E+01  0.18068701859E+02  0.10165172329E+00  0.72461587752E+02  0.70000022742E+02 0.  0.
        -12    1    1    2    0    0  0.49183529496E+01 -0.18068701859E+02 -0.10165172329E+00  0.18726412248E+02  0.00000000000E+00 0.  1.
         11    1    3    3    0    0  0.16806579827E+02 -0.10990717998E+02 -0.35504545915E+01  0.20392712808E+02  0.51100000000E-03 0. -1.
        -11    1    3    3    0    0  0.10485016800E+02  0.51099930710E+01  0.24180329678E+01  0.11911947371E+02  0.51100000000E-03 0.  1.
        -12    1    3    3    0    0 -0.32209949577E+02  0.23949426785E+02  0.12340733470E+01  0.40156927573E+02  0.00000000000E+00 0.  1.
</event>
<event>
 7    1  0.3758561E-013  0.7246157E+02  0.7816164E-02  0.1226708E+00
        -11   -1    0    0    0    0  0.00000000000E+00  0.00000000000E+00  0.45593999997E+02  0.45594000000E+02  0.51100000000E-03 0.  1.
         11   -1    0    0    0    0 -0.00000000000E+00 -0.00000000000E+00 -0.45593999997E+02  0.45594000000E+02  0.51100000000E-03 0. -1.
    9900012    2    1    2    0    0 -0.74950633751E+01 -0.92732919877E+01 -0.14439852079E+02  0.72461568216E+02  0.69999997293E+02 0.  0.
        -12    1    1    2    0    0  0.74950633751E+01  0.92732919877E+01  0.14439852079E+02  0.18726431784E+02  0.00000000000E+00 0.  1.
         11    1    3    3    0    0 -0.17751021129E+02 -0.20159265602E+02 -0.72090826337E+01  0.27811249763E+02  0.51100000000E-03 0. -1.
        -11    1    3    3    0    0 -0.38306670239E+01 -0.10430423004E+02  0.90696262975E+01  0.14343146633E+02  0.51100000000E-03 0.  1.
         12    1    3    3    0    0  0.14086624778E+02  0.21316396618E+02 -0.16300395743E+02  0.30307171821E+02  0.00000000000E+00 0. -1.
</event>
<event>
 7    1  0.3758561E-013  0.7246141E+02  0.7816164E-02  0.1226708E+00
        -11   -1    0    0    0    0  0.00000000000E+00  0.00000000000E+00  0.45593999997E+02  0.45594000000E+02  0.51100000000E-03 0.  1.
         11   -1    0    0    0    0 -0.00000000000E+00 -0.00000000000E+00 -0.45593999997E+02  0.45594000000E+02  0.51100000000E-03 0. -1.
    9900012    2    1    2    0    0 -0.29930826987E+01  0.15582260056E+02 -0.99458510855E+01  0.72461405907E+02  0.69999785855E+02 0.  0.
        -12    1    1    2    0    0  0.29930826987E+01 -0.15582260056E+02  0.99458510855E+01  0.18726594093E+02  0.00000000000E+00 0.  1.
         11    1    3    3    0    0 -0.10847338960E+01  0.33500903167E+01 -0.54532623946E+00  0.35633037653E+01  0.51100000000E-03 0.  1.
        -11    1    3    3    0    0  0.23630389508E+02  0.24037868091E+02 -0.19575119879E+02  0.38979478308E+02  0.51100000000E-03 0. -1.
         12    1    3    3    0    0 -0.25538738310E+02 -0.11805698351E+02  0.10174595032E+02  0.29918623834E+02  0.00000000000E+00 0. -1.
</event>
<event>
 7    1  0.4092791E-013  0.7246143E+02  0.7816164E-02  0.1226708E+00
        -11   -1    0    0    0    0  0.00000000000E+00  0.00000000000E+00  0.45593999997E+02  0.45594000000E+02  0.51100000000E-03 0. -1.
         11   -1    0    0    0    0 -0.00000000000E+00 -0.00000000000E+00 -0.45593999997E+02  0.45594000000E+02  0.51100000000E-03 0.  1.
    9900012    2    1    2    0    0 -0.14329506128E+01  0.67061114361E+01  0.17425820963E+02  0.72461427589E+02  0.69999814099E+02 0.  0.
        -12    1    1    2    0    0  0.14329506128E+01 -0.67061114361E+01 -0.17425820963E+02  0.18726572411E+02  0.00000000000E+00 0.  1.
         11    1    3    3    0    0 -0.11106018810E+02 -0.11351052429E+01  0.28054756455E+02  0.30194394806E+02  0.51100000000E-03 0. -1.
        -11    1    3    3    0    0  0.20149024983E+00  0.97565129031E+01  0.13279525845E+02  0.16479561562E+02  0.51100000000E-03 0.  1.
        -12    1    3    3    0    0  0.94715779475E+01 -0.19152962241E+01 -0.23908461337E+02  0.25787471220E+02  0.00000000000E+00 0.  1.
</event>
<event>
 7    1  0.3758561E-013  0.7246156E+02  0.7816164E-02  0.1226708E+00
        -11   -1    0    0    0    0  0.00000000000E+00  0.00000000000E+00  0.45593999997E+02  0.45594000000E+02  0.51100000000E-03 0.  1.
         11   -1    0    0    0    0 -0.00000000000E+00 -0.00000000000E+00 -0.45593999997E+02  0.45594000000E+02  0.51100000000E-03 0. -1.
    9900012    2    1    2    0    0 -0.89822448168E+01  0.15554087482E+02  0.52980222379E+01  0.72461564168E+02  0.69999992019E+02 0.  0.
        -12    1    1    2    0    0  0.89822448168E+01 -0.15554087482E+02 -0.52980222379E+01  0.18726435832E+02  0.00000000000E+00 0.  1.
         11    1    3    3    0    0 -0.33268995576E+01  0.36617869430E+01 -0.99490470172E+01  0.11111277204E+02  0.51100000000E-03 0. -1.
        -11    1    3    3    0    0  0.18780864838E+02  0.25325704322E+02  0.86720635788E+01  0.32700410861E+02  0.51100000000E-03 0.  1.
         12    1    3    3    0    0 -0.24436210097E+02 -0.13433403783E+02  0.65750056763E+01  0.28649876104E+02  0.00000000000E+00 0. -1.
</event>
<event>
 7    1  0.3758561E-013  0.7246153E+02  0.7816164E-02  0.1226708E+00
        -11   -1    0    0    0    0  0.00000000000E+00  0.00000000000E+00  0.45593999997E+02  0.45594000000E+02  0.51100000000E-03 0.  1.
         11   -1    0    0    0    0 -0.00000000000E+00 -0.00000000000E+00 -0.45593999997E+02  0.45594000000E+02  0.51100000000E-03 0. -1.
    9900012    2    1    2    0    0  0.17828640835E+02 -0.57283480759E+01  0.78128492840E-01  0.72461534509E+02  0.69999953384E+02 0.  0.
        -12    1    1    2    0    0 -0.17828640835E+02  0.57283480759E+01 -0.78128492840E-01  0.18726465491E+02  0.00000000000E+00 0.  1.
         11    1    3    3    0    0  0.26316708747E+02  0.18985340733E+02 -0.73185449610E+01  0.33265198370E+02  0.51100000000E-03 0. -1.
        -11    1    3    3    0    0  0.52279621848E-01  0.32167027013E+01 -0.61959440627E+01  0.69813775515E+01  0.51100000000E-03 0.  1.
        -12    1    3    3    0    0 -0.85403475332E+01 -0.27930391510E+02  0.13592617517E+02  0.32214958588E+02  0.00000000000E+00 0.  1.
</event>
<event>
 7    1  0.3758561E-013  0.7246209E+02  0.7816164E-02  0.1226707E+00
        -11   -1    0    0    0    0  0.00000000000E+00  0.00000000000E+00  0.45593999997E+02  0.45594000000E+02  0.51100000000E-03 0.  1.
         11   -1    0    0    0    0 -0.00000000000E+00 -0.00000000000E+00 -0.45593999997E+02  0.45594000000E+02  0.51100000000E-03 0. -1.
    9900012    2    1    2    0    0 -0.14756700920E+02  0.11339789713E+02 -0.20757656088E+01  0.72462085986E+02  0.70000671781E+02 0.  0.
        -12    1    1    2    0    0  0.14756700920E+02 -0.11339789713E+02  0.20757656088E+01  0.18725914014E+02  0.00000000000E+00 0.  1.
         11    1    3    3    0    0 -0.14602844026E+02  0.13701960090E+02 -0.12300417449E+02  0.23500787937E+02  0.51100000000E-03 0. -1.
        -11    1    3    3    0    0 -0.18350443658E+02  0.13349505338E+02  0.10298763973E+02  0.24920124696E+02  0.51100000000E-03 0.  1.
         12    1    3    3    0    0  0.18196586763E+02 -0.15711675715E+02 -0.74112132740E-01  0.24041173354E+02  0.00000000000E+00 0. -1.
</event>
<event>
 7    1  0.3758561E-013  0.7246158E+02  0.7816164E-02  0.1226708E+00
        -11   -1    0    0    0    0  0.00000000000E+00  0.00000000000E+00  0.45593999997E+02  0.45594000000E+02  0.51100000000E-03 0. -1.
         11   -1    0    0    0    0 -0.00000000000E+00 -0.00000000000E+00 -0.45593999997E+02  0.45594000000E+02  0.51100000000E-03 0.  1.
    9900012    2    1    2    0    0  0.43367334735E+01 -0.16916582481E+02  0.67602312325E+01  0.72461581592E+02  0.70000014717E+02 0.  0.
        -12    1    1    2    0    0 -0.43367334735E+01  0.16916582481E+02 -0.67602312325E+01  0.18726418408E+02  0.00000000000E+00 0.  1.
         11    1    3    3    0    0  0.46834608451E+01  0.32429982827E-01 -0.16957918655E+01  0.49811211091E+01  0.51100000000E-03 0. -1.
        -11    1    3    3    0    0 -0.32095351377E+01  0.35875876392E+01 -0.26447707790E+02  0.26882208772E+02  0.51100000000E-03 0.  1.
         12    1    3    3    0    0  0.28628077661E+01 -0.20536600103E+02  0.34903730888E+02  0.40598251711E+02  0.00000000000E+00 0. -1.
</event>
<event>
 7    1  0.3758561E-013  0.7246162E+02  0.7816164E-02  0.1226708E+00
        -11   -1    0    0    0    0  0.00000000000E+00  0.00000000000E+00  0.45593999997E+02  0.45594000000E+02  0.51100000000E-03 0.  1.
         11   -1    0    0    0    0 -0.00000000000E+00 -0.00000000000E+00 -0.45593999997E+02  0.45594000000E+02  0.51100000000E-03 0. -1.
    9900012    2    1    2    0    0 -0.38096598892E+01  0.17839391652E+02 -0.42332061198E+01  0.72461616552E+02  0.70000060259E+02 0.  0.
        -12    1    1    2    0    0  0.38096598892E+01 -0.17839391652E+02  0.42332061198E+01  0.18726383448E+02  0.00000000000E+00 0.  1.
         11    1    3    3    0    0 -0.22462254239E-01  0.17258803378E+02 -0.22424686955E+02  0.28297232795E+02  0.51100000000E-03 0. -1.
        -11    1    3    3    0    0  0.90882499925E+01  0.16883977097E+02  0.11402409907E+02  0.22308740944E+02  0.51100000000E-03 0.  1.
        -12    1    3    3    0    0 -0.12875447628E+02 -0.16303388822E+02  0.67890709277E+01  0.21855642813E+02  0.00000000000E+00 0.  1.
</event>
<event>
 7    1  0.3758561E-013  0.7246159E+02  0.7816164E-02  0.1226708E+00
        -11   -1    0    0    0    0  0.00000000000E+00  0.00000000000E+00  0.45593999997E+02  0.45594000000E+02  0.51100000000E-03 0. -1.
         11   -1    0    0    0    0 -0.00000000000E+00 -0.00000000000E+00 -0.45593999997E+02  0.45594000000E+02  0.51100000000E-03 0.  1.
    9900012    2    1    2    0    0  0.21830927043E+00 -0.18516877562E+02  0.27849920590E+01  0.72461585651E+02  0.70000020005E+02 0.  0.
        -12    1    1    2    0    0 -0.21830927043E+00  0.18516877562E+02 -0.27849920590E+01  0.18726414349E+02  0.00000000000E+00 0.  1.
         11    1    3    3    0    0 -0.16106891728E+02 -0.12781503678E+02  0.12872024538E+02  0.24258767763E+02  0.51100000000E-03 0. -1.
        -11    1    3    3    0    0  0.43303405504E+01  0.12512025402E+02  0.11470450912E+02  0.17517815883E+02  0.51100000000E-03 0.  1.
         12    1    3    3    0    0  0.11994860448E+02 -0.18247399287E+02 -0.21557483391E+02  0.30685002005E+02  0.00000000000E+00 0. -1.
</event>
<event>
 7    1  0.3758561E-013  0.7246179E+02  0.7816164E-02  0.1226707E+00
        -11   -1    0    0    0    0  0.00000000000E+00  0.00000000000E+00  0.45593999997E+02  0.45594000000E+02  0.51100000000E-03 0.  1.
         11   -1    0    0    0    0 -0.00000000000E+00 -0.00000000000E+00 -0.45593999997E+02  0.45594000000E+02  0.51100000000E-03 0. -1.
    9900012    2    1    2    0    0 -0.54466398295E+01  0.13635962920E+02 -0.11621768623E+02  0.72461791732E+02  0.70000288462E+02 0.  0.
        -12    1    1    2    0    0  0.54466398295E+01 -0.13635962920E+02  0.11621768623E+02  0.18726208268E+02  0.00000000000E+00 0.  1.
         11    1    3    3    0    0  0.14599081241E+02  0.54850255889E+01 -0.15989372012E+02  0.22335592591E+02  0.51100000000E-03 0. -1.
        -11    1    3    3    0    0  0.13219978567E+01  0.23274757471E+01 -0.18265142706E+02  0.18460234561E+02  0.51100000000E-03 0.  1.
        -12    1    3    3    0    0 -0.21367718927E+02  0.58234615836E+01  0.22632746095E+02  0.31665964580E+02  0.00000000000E+00 0.  1.
</event>
<event>
 7    1  0.3758561E-013  0.7246160E+02  0.7816164E-02  0.1226708E+00
        -11   -1    0    0    0    0  0.00000000000E+00  0.00000000000E+00  0.45593999997E+02  0.45594000000E+02  0.51100000000E-03 0. -1.
         11   -1    0    0    0    0 -0.00000000000E+00 -0.00000000000E+00 -0.45593999997E+02  0.45594000000E+02  0.51100000000E-03 0.  1.
    9900012    2    1    2    0    0  0.58686789810E+01 -0.40490980791E+01  0.17315932781E+02  0.72461598415E+02  0.70000036632E+02 0.  0.
        -12    1    1    2    0    0 -0.58686789810E+01  0.40490980791E+01 -0.17315932781E+02  0.18726401585E+02  0.00000000000E+00 0.  1.
         11    1    3    3    0    0  0.27797987484E+00  0.26279600506E+02  0.89117268351E+01  0.27750919823E+02  0.51100000000E-03 0. -1.
        -11    1    3    3    0    0 -0.11487477731E+02 -0.54337942476E+01  0.69541207643E+01  0.14486133384E+02  0.51100000000E-03 0.  1.
        -12    1    3    3    0    0  0.17078176837E+02 -0.24894904337E+02  0.14500851820E+01  0.30224545209E+02  0.00000000000E+00 0.  1.
</event>
<event>
 7    1  0.3758561E-013  0.7246157E+02  0.7816164E-02  0.1226708E+00
        -11   -1    0    0    0    0  0.00000000000E+00  0.00000000000E+00  0.45593999997E+02  0.45594000000E+02  0.51100000000E-03 0.  1.
         11   -1    0    0    0    0 -0.00000000000E+00 -0.00000000000E+00 -0.45593999997E+02  0.45594000000E+02  0.51100000000E-03 0. -1.
    9900012    2    1    2    0    0 -0.10697319384E+02  0.13467776027E+02 -0.74071165968E+01  0.72461574570E+02  0.70000005569E+02 0.  0.
        -12    1    1    2    0    0  0.10697319384E+02 -0.13467776027E+02  0.74071165968E+01  0.18726425430E+02  0.00000000000E+00 0.  1.
         11    1    3    3    0    0 -0.15609397529E+02  0.23001931669E+02 -0.35273297482E+01  0.28021138577E+02  0.51100000000E-03 0. -1.
        -11    1    3    3    0    0  0.72451321107E+01  0.15871952839E+02 -0.68732918401E+01  0.18752412303E+02  0.51100000000E-03 0.  1.
         12    1    3    3    0    0 -0.23330539656E+01 -0.25406108481E+02  0.29935049914E+01  0.25688023690E+02  0.00000000000E+00 0. -1.
</event>
<event>
 7    1  0.3758561E-013  0.7246155E+02  0.7816164E-02  0.1226708E+00
        -11   -1    0    0    0    0  0.00000000000E+00  0.00000000000E+00  0.45593999997E+02  0.45594000000E+02  0.51100000000E-03 0.  1.
         11   -1    0    0    0    0 -0.00000000000E+00 -0.00000000000E+00 -0.45593999997E+02  0.45594000000E+02  0.51100000000E-03 0. -1.
    9900012    2    1    2    0    0  0.70875968087E+01  0.15999508805E+02  0.66679440988E+01  0.72461553753E+02  0.69999978452E+02 0.  0.
        -12    1    1    2    0    0 -0.70875968087E+01 -0.15999508805E+02 -0.66679440988E+01  0.18726446247E+02  0.00000000000E+00 0.  1.
         11    1    3    3    0    0 -0.26912819149E+00  0.16464203819E+02 -0.82191535127E+01  0.18403720333E+02  0.51100000000E-03 0. -1.
        -11    1    3    3    0    0 -0.12182058705E+02  0.19967724510E+02  0.38321432436E+01  0.23702276230E+02  0.51100000000E-03 0.  1.
        -12    1    3    3    0    0  0.19538783705E+02 -0.20432419523E+02  0.11054954368E+02  0.30355557190E+02  0.00000000000E+00 0.  1.
</event>
<event>
 7    1  0.3758561E-013  0.7246155E+02  0.7816164E-02  0.1226708E+00
        -11   -1    0    0    0    0  0.00000000000E+00  0.00000000000E+00  0.45593999997E+02  0.45594000000E+02  0.51100000000E-03 0.  1.
         11   -1    0    0    0    0 -0.00000000000E+00 -0.00000000000E+00 -0.45593999997E+02  0.45594000000E+02  0.51100000000E-03 0. -1.
    9900012    2    1    2    0    0 -0.72621274353E+01  0.17179356280E+02 -0.16766897832E+01  0.72461546365E+02  0.69999968828E+02 0.  0.
        -12    1    1    2    0    0  0.72621274353E+01 -0.17179356280E+02  0.16766897832E+01  0.18726453635E+02  0.00000000000E+00 0.  1.
         11    1    3    3    0    0 -0.25066831582E+02  0.10341526692E+02 -0.11067032682E+02  0.29287752261E+02  0.51100000000E-03 0. -1.
        -11    1    3    3    0    0  0.68246172057E+01  0.72265086858E+01  0.23368471138E+02  0.25394552002E+02  0.51100000000E-03 0.  1.
         12    1    3    3    0    0  0.10980086941E+02 -0.38867909780E+00 -0.13978128239E+02  0.17779242103E+02  0.00000000000E+00 0. -1.
</event>
<event>
 7    1  0.3758561E-013  0.7246157E+02  0.7816164E-02  0.1226708E+00
        -11   -1    0    0    0    0  0.00000000000E+00  0.00000000000E+00  0.45593999997E+02  0.45594000000E+02  0.51100000000E-03 0.  1.
         11   -1    0    0    0    0 -0.00000000000E+00 -0.00000000000E+00 -0.45593999997E+02  0.45594000000E+02  0.51100000000E-03 0. -1.
    9900012    2    1    2    0    0 -0.16146506008E+02  0.73769509375E+01 -0.59623899942E+01  0.72461570660E+02  0.70000000476E+02 0.  0.
        -12    1    1    2    0    0  0.16146506008E+02 -0.73769509375E+01  0.59623899942E+01  0.18726429340E+02  0.00000000000E+00 0.  1.
         11    1    3    3    0    0  0.11672017287E+02  0.16009796990E+02  0.10864018475E+02  0.22595939567E+02  0.51100000000E-03 0. -1.
        -11    1    3    3    0    0 -0.45972280420E+01  0.55500763648E+01  0.95537538904E+01  0.11967124424E+02  0.51100000000E-03 0.  1.
         12    1    3    3    0    0 -0.23221295253E+02 -0.14182922418E+02 -0.26380162360E+02  0.37898506668E+02  0.00000000000E+00 0. -1.
</event>
<event>
 7    1  0.3758561E-013  0.7246168E+02  0.7816164E-02  0.1226708E+00
        -11   -1    0    0    0    0  0.00000000000E+00  0.00000000000E+00  0.45593999997E+02  0.45594000000E+02  0.51100000000E-03 0.  1.
         11   -1    0    0    0    0 -0.00000000000E+00 -0.00000000000E+00 -0.45593999997E+02  0.45594000000E+02  0.51100000000E-03 0. -1.
    9900012    2    1    2    0    0  0.99238916552E+01  0.80174041054E+01 -0.13708126738E+02  0.72461678075E+02  0.70000140404E+02 0.  0.
        -12    1    1    2    0    0 -0.99238916552E+01 -0.80174041054E+01  0.13708126738E+02  0.18726321925E+02  0.00000000000E+00 0.  1.
         11    1    3    3    0    0 -0.11143654856E+02  0.45809873401E+01 -0.16338866394E+02  0.20300863130E+02  0.51100000000E-03 0. -1.
        -11    1    3    3    0    0  0.61293976938E+01 -0.17880273723E+02  0.14234156577E+02  0.23661887461E+02  0.51100000000E-03 0.  1.
         12    1    3    3    0    0  0.14938148817E+02  0.21316690488E+02 -0.11603416922E+02  0.28498927483E+02  0.00000000000E+00 0. -1.
</event>
<event>
 7    1  0.3758561E-013  0.7246157E+02  0.7816164E-02  0.1226708E+00
        -11   -1    0    0    0    0  0.00000000000E+00  0.00000000000E+00  0.45593999997E+02  0.45594000000E+02  0.51100000000E-03 0. -1.
         11   -1    0    0    0    0 -0.00000000000E+00 -0.00000000000E+00 -0.45593999997E+02  0.45594000000E+02  0.51100000000E-03 0.  1.
    9900012    2    1    2    0    0 -0.17808603225E+02 -0.14587071556E+01 -0.56040231443E+01  0.72461568125E+02  0.69999997174E+02 0.  0.
        -12    1    1    2    0    0  0.17808603225E+02  0.14587071556E+01  0.56040231443E+01  0.18726431875E+02  0.00000000000E+00 0.  1.
         11    1    3    3    0    0  0.13470635654E+02 -0.60858156866E+01 -0.92538214359E+01  0.17439277190E+02  0.51100000000E-03 0. -1.
        -11    1    3    3    0    0  0.10405354131E+02 -0.20392508571E+01  0.69518758640E+01  0.12679058204E+02  0.51100000000E-03 0.  1.
        -12    1    3    3    0    0 -0.41684593009E+02  0.66663593881E+01 -0.33020775725E+01  0.42343232731E+02  0.00000000000E+00 0.  1.
</event>
<event>
 7    1  0.3758561E-013  0.7246150E+02  0.7816164E-02  0.1226708E+00
        -11   -1    0    0    0    0  0.00000000000E+00  0.00000000000E+00  0.45593999997E+02  0.45594000000E+02  0.51100000000E-03 0.  1.
         11   -1    0    0    0    0 -0.00000000000E+00 -0.00000000000E+00 -0.45593999997E+02  0.45594000000E+02  0.51100000000E-03 0. -1.
    9900012    2    1    2    0    0 -0.56946523761E+01  0.72622406305E+01  0.16294554768E+02  0.72461502202E+02  0.69999911298E+02 0.  0.
        -12    1    1    2    0    0  0.56946523761E+01 -0.72622406305E+01 -0.16294554768E+02  0.18726497798E+02  0.00000000000E+00 0.  1.
         11    1    3    3    0    0 -0.23609262625E+02 -0.77858440356E+01 -0.67231037724E+01  0.25752995430E+02  0.51100000000E-03 0. -1.
        -11    1    3    3    0    0  0.79907107949E+01 -0.88423086628E+01 -0.24125924431E+00  0.11920406360E+02  0.51100000000E-03 0.  1.
         12    1    3    3    0    0  0.99238994537E+01  0.23890393329E+02  0.23258917785E+02  0.34788100413E+02  0.00000000000E+00 0. -1.
</event>
<event>
 7    1  0.3758561E-013  0.7246154E+02  0.7816164E-02  0.1226708E+00
        -11   -1    0    0    0    0  0.00000000000E+00  0.00000000000E+00  0.45593999997E+02  0.45594000000E+02  0.51100000000E-03 0.  1.
         11   -1    0    0    0    0 -0.00000000000E+00 -0.00000000000E+00 -0.45593999997E+02  0.45594000000E+02  0.51100000000E-03 0. -1.
    9900012    2    1    2    0    0  0.15759432936E+02 -0.80935144572E+01 -0.60675772048E+01  0.72461542891E+02  0.69999964302E+02 0.  0.
        -12    1    1    2    0    0 -0.15759432936E+02  0.80935144572E+01  0.60675772048E+01  0.18726457109E+02  0.00000000000E+00 0.  1.
         11    1    3    3    0    0  0.54818740829E+01  0.63027212416E+01 -0.28569304633E+02  0.29765422994E+02  0.51100000000E-03 0. -1.
        -11    1    3    3    0    0 -0.86770010701E+01 -0.99497145378E+01  0.35242972983E+00  0.13206489841E+02  0.51100000000E-03 0.  1.
        -12    1    3    3    0    0  0.18954559923E+02 -0.44465211610E+01  0.22149297698E+02  0.29489630056E+02  0.00000000000E+00 0.  1.
</event>
<event>
 7    1  0.3758561E-013  0.7246159E+02  0.7816164E-02  0.1226708E+00
        -11   -1    0    0    0    0  0.00000000000E+00  0.00000000000E+00  0.45593999997E+02  0.45594000000E+02  0.51100000000E-03 0.  1.
         11   -1    0    0    0    0 -0.00000000000E+00 -0.00000000000E+00 -0.45593999997E+02  0.45594000000E+02  0.51100000000E-03 0. -1.
    9900012    2    1    2    0    0 -0.29652989955E+01 -0.13396937674E+02 -0.12743923107E+02  0.72461587815E+02  0.70000022824E+02 0.  0.
        -12    1    1    2    0    0  0.29652989955E+01  0.13396937674E+02  0.12743923107E+02  0.18726412185E+02  0.00000000000E+00 0.  1.
         11    1    3    3    0    0  0.93528384156E+00 -0.78037201154E+01  0.13493125192E+01  0.79745500211E+01  0.51100000000E-03 0. -1.
        -11    1    3    3    0    0  0.62640699489E+01  0.22981940939E+02  0.99190973421E+01  0.25803036139E+02  0.51100000000E-03 0.  1.
         12    1    3    3    0    0 -0.10164652786E+02 -0.28575158498E+02 -0.24012332968E+02  0.38684001655E+02  0.00000000000E+00 0. -1.
</event>
<event>
 7    1  0.3758561E-013  0.7246169E+02  0.7816164E-02  0.1226708E+00
        -11   -1    0    0    0    0  0.00000000000E+00  0.00000000000E+00  0.45593999997E+02  0.45594000000E+02  0.51100000000E-03 0.  1.
         11   -1    0    0    0    0 -0.00000000000E+00 -0.00000000000E+00 -0.45593999997E+02  0.45594000000E+02  0.51100000000E-03 0. -1.
    9900012    2    1    2    0    0  0.10497234901E+02  0.15492870343E+02  0.67358932446E+00  0.72461689776E+02  0.70000155647E+02 0.  0.
        -12    1    1    2    0    0 -0.10497234901E+02 -0.15492870343E+02 -0.67358932446E+00  0.18726310224E+02  0.00000000000E+00 0.  1.
         11    1    3    3    0    0  0.70290083110E+01 -0.48176131549E+01 -0.61232974684E+01  0.10493384892E+02  0.51100000000E-03 0. -1.
        -11    1    3    3    0    0  0.28883546550E+02  0.18881677906E+02  0.10891461405E+02  0.36185645685E+02  0.51100000000E-03 0.  1.
         12    1    3    3    0    0 -0.25415319960E+02  0.14288055917E+01 -0.40945746121E+01  0.25782659198E+02  0.00000000000E+00 0. -1.
</event>
<event>
 7    1  0.3758561E-013  0.7246155E+02  0.7816164E-02  0.1226708E+00
        -11   -1    0    0    0    0  0.00000000000E+00  0.00000000000E+00  0.45593999997E+02  0.45594000000E+02  0.51100000000E-03 0. -1.
         11   -1    0    0    0    0 -0.00000000000E+00 -0.00000000000E+00 -0.45593999997E+02  0.45594000000E+02  0.51100000000E-03 0.  1.
    9900012    2    1    2    0    0 -0.14130878168E+02  0.11656924291E+02  0.38876928243E+01  0.72461554603E+02  0.69999979559E+02 0.  0.
        -12    1    1    2    0    0  0.14130878168E+02 -0.11656924291E+02 -0.38876928243E+01  0.18726445397E+02  0.00000000000E+00 0.  1.
         11    1    3    3    0    0 -0.94731522813E+00  0.39750169126E+01  0.47116654588E+01  0.62368226890E+01  0.51100000000E-03 0. -1.
        -11    1    3    3    0    0 -0.27444683710E+02  0.27427585722E+02 -0.10210459572E+02  0.40121522994E+02  0.51100000000E-03 0.  1.
         12    1    3    3    0    0  0.14261120770E+02 -0.19745678344E+02  0.93864869378E+01  0.26103208920E+02  0.00000000000E+00 0. -1.
</event>
<event>
 7    1  0.3758561E-013  0.7246152E+02  0.7816164E-02  0.1226708E+00
        -11   -1    0    0    0    0  0.00000000000E+00  0.00000000000E+00  0.45593999997E+02  0.45594000000E+02  0.51100000000E-03 0.  1.
         11   -1    0    0    0    0 -0.00000000000E+00 -0.00000000000E+00 -0.45593999997E+02  0.45594000000E+02  0.51100000000E-03 0. -1.
    9900012    2    1    2    0    0  0.15678660332E+02  0.99032925717E+01 -0.26048816041E+01  0.72461521374E+02  0.69999936272E+02 0.  0.
        -12    1    1    2    0    0 -0.15678660332E+02 -0.99032925717E+01  0.26048816041E+01  0.18726478626E+02  0.00000000000E+00 0.  1.
         11    1    3    3    0    0  0.83001113344E+01  0.88348282095E+01 -0.10638370176E+01  0.12168721671E+02  0.51100000000E-03 0. -1.
        -11    1    3    3    0    0  0.26818644699E+02  0.13743256645E+02  0.13093639950E+02  0.32856661640E+02  0.51100000000E-03 0.  1.
         12    1    3    3    0    0 -0.19440095702E+02 -0.12674792283E+02 -0.14634684537E+02  0.27436138063E+02  0.00000000000E+00 0. -1.
</event>
<event>
 7    1  0.3758561E-013  0.7246159E+02  0.7816164E-02  0.1226708E+00
        -11   -1    0    0    0    0  0.00000000000E+00  0.00000000000E+00  0.45593999997E+02  0.45594000000E+02  0.51100000000E-03 0. -1.
         11   -1    0    0    0    0 -0.00000000000E+00 -0.00000000000E+00 -0.45593999997E+02  0.45594000000E+02  0.51100000000E-03 0.  1.
    9900012    2    1    2    0    0 -0.29247092465E+01  0.51777586475E+01  0.17757120363E+02  0.72461589977E+02  0.70000025640E+02 0.  0.
        -12    1    1    2    0    0  0.29247092465E+01 -0.51777586475E+01 -0.17757120363E+02  0.18726410023E+02  0.00000000000E+00 0.  1.
         11    1    3    3    0    0 -0.64466871969E+01  0.99261733887E+01  0.90524248963E+01  0.14900841947E+02  0.51100000000E-03 0. -1.
        -11    1    3    3    0    0  0.80094519075E+01  0.23842947243E+02 -0.48285002120E+01  0.25611557306E+02  0.51100000000E-03 0.  1.
         12    1    3    3    0    0 -0.44874739571E+01 -0.28591361984E+02  0.13533195678E+02  0.31949190724E+02  0.00000000000E+00 0. -1.
</event>
<event>
 7    1  0.3758561E-013  0.7246171E+02  0.7816164E-02  0.1226708E+00
        -11   -1    0    0    0    0  0.00000000000E+00  0.00000000000E+00  0.45593999997E+02  0.45594000000E+02  0.51100000000E-03 0.  1.
         11   -1    0    0    0    0 -0.00000000000E+00 -0.00000000000E+00 -0.45593999997E+02  0.45594000000E+02  0.51100000000E-03 0. -1.
    9900012    2    1    2    0    0  0.36635188177E+01  0.14457147701E+02 -0.11324467486E+02  0.72461706891E+02  0.70000177942E+02 0.  0.
        -12    1    1    2    0    0 -0.36635188177E+01 -0.14457147701E+02  0.11324467486E+02  0.18726293109E+02  0.00000000000E+00 0.  1.
         11    1    3    3    0    0 -0.56378975435E+01  0.95525387188E+01 -0.72378164952E+01  0.13244729992E+02  0.51100000000E-03 0. -1.
        -11    1    3    3    0    0  0.50882113196E+01  0.26474216530E+02  0.14341462136E+02  0.30536070012E+02  0.51100000000E-03 0.  1.
         12    1    3    3    0    0  0.42132050415E+01 -0.21569607548E+02 -0.18428113126E+02  0.28680906887E+02  0.00000000000E+00 0. -1.
</event>
<event>
 7    1  0.3758561E-013  0.7246152E+02  0.7816164E-02  0.1226708E+00
        -11   -1    0    0    0    0  0.00000000000E+00  0.00000000000E+00  0.45593999997E+02  0.45594000000E+02  0.51100000000E-03 0. -1.
         11   -1    0    0    0    0 -0.00000000000E+00 -0.00000000000E+00 -0.45593999997E+02  0.45594000000E+02  0.51100000000E-03 0.  1.
    9900012    2    1    2    0    0 -0.33262190556E+01 -0.13009391698E+01  0.18382732290E+02  0.72461520823E+02  0.69999935554E+02 0.  0.
        -12    1    1    2    0    0  0.33262190556E+01  0.13009391698E+01 -0.18382732290E+02  0.18726479177E+02  0.00000000000E+00 0.  1.
         11    1    3    3    0    0 -0.21495607617E+01  0.12087740482E+02  0.27981197333E+02  0.30556202086E+02  0.51100000000E-03 0. -1.
        -11    1    3    3    0    0 -0.14377119703E+02 -0.15285629493E+02  0.55667762342E+01  0.21710390089E+02  0.51100000000E-03 0.  1.
        -12    1    3    3    0    0  0.13200461409E+02  0.18969498404E+01 -0.15165241278E+02  0.20194928648E+02  0.00000000000E+00 0.  1.
</event>
<event>
 7    1  0.3758561E-013  0.7246158E+02  0.7816164E-02  0.1226708E+00
        -11   -1    0    0    0    0  0.00000000000E+00  0.00000000000E+00  0.45593999997E+02  0.45594000000E+02  0.51100000000E-03 0.  1.
         11   -1    0    0    0    0 -0.00000000000E+00 -0.00000000000E+00 -0.45593999997E+02  0.45594000000E+02  0.51100000000E-03 0. -1.
    9900012    2    1    2    0    0 -0.48009705156E+01 -0.11722311741E+02 -0.13791915499E+02  0.72461578997E+02  0.70000011336E+02 0.  0.
        -12    1    1    2    0    0  0.48009705156E+01  0.11722311741E+02  0.13791915499E+02  0.18726421003E+02  0.00000000000E+00 0.  1.
         11    1    3    3    0    0  0.80326582696E+01 -0.15157126838E+02 -0.67824971339E+01  0.18446256002E+02  0.51100000000E-03 0. -1.
        -11    1    3    3    0    0  0.17501234202E+02  0.11796814284E+02  0.22228672863E+01  0.21222609761E+02  0.51100000000E-03 0.  1.
        -12    1    3    3    0    0 -0.30334862987E+02 -0.83619991870E+01 -0.92322856518E+01  0.32792713234E+02  0.00000000000E+00 0.  1.
</event>
<event>
 7    1  0.3758561E-013  0.7246152E+02  0.7816164E-02  0.1226708E+00
        -11   -1    0    0    0    0  0.00000000000E+00  0.00000000000E+00  0.45593999997E+02  0.45594000000E+02  0.51100000000E-03 0.  1.
         11   -1    0    0    0    0 -0.00000000000E+00 -0.00000000000E+00 -0.45593999997E+02  0.45594000000E+02  0.51100000000E-03 0. -1.
    9900012    2    1    2    0    0  0.17586795491E+02 -0.63456612464E+01 -0.10574997067E+01  0.72461518806E+02  0.69999932927E+02 0.  0.
        -12    1    1    2    0    0 -0.17586795491E+02  0.63456612464E+01  0.10574997067E+01  0.18726481194E+02  0.00000000000E+00 0.  1.
         11    1    3    3    0    0  0.16619988308E+01 -0.14703810315E+02 -0.44253607186E+01  0.15445002287E+02  0.51100000000E-03 0. -1.
        -11    1    3    3    0    0 -0.15769086407E+02 -0.14342483754E+01  0.15051925814E+02  0.21846776089E+02  0.51100000000E-03 0.  1.
         12    1    3    3    0    0  0.31693883067E+02  0.97923974440E+01 -0.11684064802E+02  0.35169740430E+02  0.00000000000E+00 0. -1.
</event>
<event>
 7    1  0.3758561E-013  0.7246156E+02  0.7816164E-02  0.1226708E+00
        -11   -1    0    0    0    0  0.00000000000E+00  0.00000000000E+00  0.45593999997E+02  0.45594000000E+02  0.51100000000E-03 0. -1.
         11   -1    0    0    0    0 -0.00000000000E+00 -0.00000000000E+00 -0.45593999997E+02  0.45594000000E+02  0.51100000000E-03 0.  1.
    9900012    2    1    2    0    0  0.16947218633E+02 -0.70529337068E+01 -0.37050400521E+01  0.72461563739E+02  0.69999991460E+02 0.  0.
        -12    1    1    2    0    0 -0.16947218633E+02  0.70529337068E+01  0.37050400521E+01  0.18726436261E+02  0.00000000000E+00 0.  1.
         11    1    3    3    0    0  0.26680388300E+02 -0.25718675007E+02  0.12036835940E+02  0.38963813772E+02  0.51100000000E-03 0. -1.
        -11    1    3    3    0    0 -0.51604690052E+00  0.59779667509E+01  0.47788609395E+01  0.76707172428E+01  0.51100000000E-03 0.  1.
        -12    1    3    3    0    0 -0.92171227662E+01  0.12687774549E+02 -0.20520736932E+02  0.25827032724E+02  0.00000000000E+00 0.  1.
</event>
<event>
 7    1  0.3758561E-013  0.7246155E+02  0.7816164E-02  0.1226708E+00
        -11   -1    0    0    0    0  0.00000000000E+00  0.00000000000E+00  0.45593999997E+02  0.45594000000E+02  0.51100000000E-03 0. -1.
         11   -1    0    0    0    0 -0.00000000000E+00 -0.00000000000E+00 -0.45593999997E+02  0.45594000000E+02  0.51100000000E-03 0.  1.
    9900012    2    1    2    0    0  0.15344724289E+02 -0.14402811069E+01 -0.10636954888E+02  0.72461553929E+02  0.69999978681E+02 0.  0.
        -12    1    1    2    0    0 -0.15344724289E+02  0.14402811069E+01  0.10636954888E+02  0.18726446071E+02  0.00000000000E+00 0.  1.
         11    1    3    3    0    0  0.16014805039E+01 -0.77664910095E+01  0.18213816333E+02  0.19865201435E+02  0.51100000000E-03 0. -1.
        -11    1    3    3    0    0  0.58178394857E+01  0.17046216536E+02  0.28227301194E+01  0.18231526542E+02  0.51100000000E-03 0.  1.
        -12    1    3    3    0    0  0.79254042990E+01 -0.10720006634E+02 -0.31673501340E+02  0.34364825951E+02  0.00000000000E+00 0.  1.
</event>
<event>
 7    1  0.3758561E-013  0.7246150E+02  0.7816164E-02  0.1226708E+00
        -11   -1    0    0    0    0  0.00000000000E+00  0.00000000000E+00  0.45593999997E+02  0.45594000000E+02  0.51100000000E-03 0.  1.
         11   -1    0    0    0    0 -0.00000000000E+00 -0.00000000000E+00 -0.45593999997E+02  0.45594000000E+02  0.51100000000E-03 0. -1.
    9900012    2    1    2    0    0 -0.97911164174E+01  0.15127273305E+02  0.50971861783E+01  0.72461503657E+02  0.69999913193E+02 0.  0.
        -12    1    1    2    0    0  0.97911164174E+01 -0.15127273305E+02 -0.50971861783E+01  0.18726496343E+02  0.00000000000E+00 0.  1.
         11    1    3    3    0    0 -0.74698367278E+01 -0.18262123122E+02 -0.99255746459E+01  0.22086661902E+02  0.51100000000E-03 0. -1.
        -11    1    3    3    0    0 -0.65664257589E+01  0.27574343286E+02 -0.52802801914E+01  0.28833031649E+02  0.51100000000E-03 0.  1.
        -12    1    3    3    0    0  0.42451460693E+01  0.58150531403E+01  0.20303041016E+02  0.21541810106E+02  0.00000000000E+00 0.  1.
</event>
<event>
 7    1  0.3758561E-013  0.7246154E+02  0.7816164E-02  0.1226708E+00
        -11   -1    0    0    0    0  0.00000000000E+00  0.00000000000E+00  0.45593999997E+02  0.45594000000E+02  0.51100000000E-03 0. -1.
         11   -1    0    0    0    0 -0.00000000000E+00 -0.00000000000E+00 -0.45593999997E+02  0.45594000000E+02  0.51100000000E-03 0.  1.
    9900012    2    1    2    0    0 -0.15267236362E+00  0.18319348733E+02  0.38805269770E+01  0.72461539136E+02  0.69999959411E+02 0.  0.
        -12    1    1    2    0    0  0.15267236362E+00 -0.18319348733E+02 -0.38805269770E+01  0.18726460864E+02  0.00000000000E+00 0.  1.
         11    1    3    3    0    0 -0.27782266934E+01  0.62006838400E+01  0.13096678060E+02  0.14754321405E+02  0.51100000000E-03 0. -1.
        -11    1    3    3    0    0 -0.24279424949E+02 -0.44997469956E+01  0.26047439680E+00  0.24694251276E+02  0.51100000000E-03 0.  1.
         12    1    3    3    0    0  0.26904979279E+02  0.16618411889E+02 -0.94766254802E+01  0.33012966456E+02  0.00000000000E+00 0. -1.
</event>
<event>
 7    1  0.3758561E-013  0.7246163E+02  0.7816164E-02  0.1226708E+00
        -11   -1    0    0    0    0  0.00000000000E+00  0.00000000000E+00  0.45593999997E+02  0.45594000000E+02  0.51100000000E-03 0. -1.
         11   -1    0    0    0    0 -0.00000000000E+00 -0.00000000000E+00 -0.45593999997E+02  0.45594000000E+02  0.51100000000E-03 0.  1.
    9900012    2    1    2    0    0  0.92846073641E+01 -0.69458892505E+01  0.14704685999E+02  0.72461625505E+02  0.70000071922E+02 0.  0.
        -12    1    1    2    0    0 -0.92846073641E+01  0.69458892505E+01 -0.14704685999E+02  0.18726374495E+02  0.00000000000E+00 0.  1.
         11    1    3    3    0    0 -0.87427555828E+01  0.14094952459E+02  0.10289407145E+02  0.19518590104E+02  0.51100000000E-03 0. -1.
        -11    1    3    3    0    0  0.19292915819E+02  0.99098471368E+01  0.27444038831E+00  0.21690942554E+02  0.51100000000E-03 0.  1.
        -12    1    3    3    0    0 -0.12655528724E+01 -0.30950688846E+02  0.41408384666E+01  0.31252092847E+02  0.00000000000E+00 0.  1.
</event>
<event>
 7    1  0.3758561E-013  0.7246155E+02  0.7816164E-02  0.1226708E+00
        -11   -1    0    0    0    0  0.00000000000E+00  0.00000000000E+00  0.45593999997E+02  0.45594000000E+02  0.51100000000E-03 0.  1.
         11   -1    0    0    0    0 -0.00000000000E+00 -0.00000000000E+00 -0.45593999997E+02  0.45594000000E+02  0.51100000000E-03 0. -1.
    9900012    2    1    2    0    0  0.17189123252E+02  0.52596132714E+01 -0.52488637146E+01  0.72461546512E+02  0.69999969020E+02 0.  0.
        -12    1    1    2    0    0 -0.17189123252E+02 -0.52596132714E+01  0.52488637146E+01  0.18726453488E+02  0.00000000000E+00 0.  1.
         11    1    3    3    0    0  0.31786405673E+02 -0.69644621932E+01 -0.15585156456E+01  0.32577726908E+02  0.51100000000E-03 0. -1.
        -11    1    3    3    0    0 -0.50602430737E+01  0.23091478382E+02  0.32215081671E+01  0.23857924238E+02  0.51100000000E-03 0.  1.
        -12    1    3    3    0    0 -0.95370393472E+01 -0.10867402917E+02 -0.69118562362E+01  0.16025895367E+02  0.00000000000E+00 0.  1.
</event>
<event>
 7    1  0.3758561E-013  0.7246163E+02  0.7816164E-02  0.1226708E+00
        -11   -1    0    0    0    0  0.00000000000E+00  0.00000000000E+00  0.45593999997E+02  0.45594000000E+02  0.51100000000E-03 0.  1.
         11   -1    0    0    0    0 -0.00000000000E+00 -0.00000000000E+00 -0.45593999997E+02  0.45594000000E+02  0.51100000000E-03 0. -1.
    9900012    2    1    2    0    0 -0.92711271811E+01  0.13330294115E+02  0.93287925095E+01  0.72461630622E+02  0.70000078588E+02 0.  0.
        -12    1    1    2    0    0  0.92711271811E+01 -0.13330294115E+02 -0.93287925095E+01  0.18726369378E+02  0.00000000000E+00 0.  1.
         11    1    3    3    0    0  0.91088092328E+00 -0.72385166847E+01 -0.40928313962E+01  0.83652314344E+01  0.51100000000E-03 0. -1.
        -11    1    3    3    0    0  0.22371074533E+02  0.13348677506E+02  0.16133458475E+02  0.30642138462E+02  0.51100000000E-03 0.  1.
         12    1    3    3    0    0 -0.32553082637E+02  0.72201332930E+01 -0.27118345695E+01  0.33454260725E+02  0.00000000000E+00 0. -1.
</event>
<event>
 7    1  0.3758561E-013  0.7246159E+02  0.7816164E-02  0.1226708E+00
        -11   -1    0    0    0    0  0.00000000000E+00  0.00000000000E+00  0.45593999997E+02  0.45594000000E+02  0.51100000000E-03 0.  1.
         11   -1    0    0    0    0 -0.00000000000E+00 -0.00000000000E+00 -0.45593999997E+02  0.45594000000E+02  0.51100000000E-03 0. -1.
    9900012    2    1    2    0    0  0.58980315696E+01  0.25866266825E+01 -0.17584107709E+02  0.72461594634E+02  0.70000031707E+02 0.  0.
        -12    1    1    2    0    0 -0.58980315696E+01 -0.25866266825E+01  0.17584107709E+02  0.18726405366E+02  0.00000000000E+00 0.  1.
         11    1    3    3    0    0  0.87290016881E+01 -0.47001217691E+01 -0.34173734645E+02  0.35582731134E+02  0.51100000000E-03 0. -1.
        -11    1    3    3    0    0 -0.36729365754E+01  0.12578309550E+02 -0.54540435720E+01  0.14193340896E+02  0.51100000000E-03 0.  1.
        -12    1    3    3    0    0  0.84196645690E+00 -0.52915610988E+01  0.22043670508E+02  0.22685522604E+02  0.00000000000E+00 0.  1.
</event>
<event>
 7    1  0.3758561E-013  0.7246149E+02  0.7816164E-02  0.1226708E+00
        -11   -1    0    0    0    0  0.00000000000E+00  0.00000000000E+00  0.45593999997E+02  0.45594000000E+02  0.51100000000E-03 0.  1.
         11   -1    0    0    0    0 -0.00000000000E+00 -0.00000000000E+00 -0.45593999997E+02  0.45594000000E+02  0.51100000000E-03 0. -1.
    9900012    2    1    2    0    0  0.16318093131E+02  0.50518648263E+01 -0.76733626788E+01  0.72461494815E+02  0.69999901674E+02 0.  0.
        -12    1    1    2    0    0 -0.16318093131E+02 -0.50518648263E+01  0.76733626788E+01  0.18726505185E+02  0.00000000000E+00 0.  1.
         11    1    3    3    0    0  0.30735996777E+02  0.13962993414E+02  0.19431258616E+01  0.33814825467E+02  0.51100000000E-03 0. -1.
        -11    1    3    3    0    0  0.58700903925E+01  0.87474010259E+01 -0.27374392947E+01  0.10884326349E+02  0.51100000000E-03 0.  1.
        -12    1    3    3    0    0 -0.20287994039E+02 -0.17658529614E+02 -0.68790492456E+01  0.27762342998E+02  0.00000000000E+00 0.  1.
</event>
<event>
 7    1  0.3758561E-013  0.7246158E+02  0.7816164E-02  0.1226708E+00
        -11   -1    0    0    0    0  0.00000000000E+00  0.00000000000E+00  0.45593999997E+02  0.45594000000E+02  0.51100000000E-03 0.  1.
         11   -1    0    0    0    0 -0.00000000000E+00 -0.00000000000E+00 -0.45593999997E+02  0.45594000000E+02  0.51100000000E-03 0. -1.
    9900012    2    1    2    0    0  0.13503298712E+02 -0.94740609811E+00  0.12939949561E+02  0.72461576181E+02  0.70000007668E+02 0.  0.
        -12    1    1    2    0    0 -0.13503298712E+02  0.94740609811E+00 -0.12939949561E+02  0.18726423819E+02  0.00000000000E+00 0.  1.
         11    1    3    3    0    0 -0.61800734358E+01  0.10065880795E+02  0.20466827125E+02  0.23630621589E+02  0.51100000000E-03 0. -1.
        -11    1    3    3    0    0  0.10267841663E+02 -0.11427165404E+02  0.16786334279E+02  0.22754992867E+02  0.51100000000E-03 0.  1.
         12    1    3    3    0    0  0.94155304854E+01  0.41387851083E+00 -0.24313211843E+02  0.26075961725E+02  0.00000000000E+00 0. -1.
</event>
<event>
 7    1  0.3758561E-013  0.7246165E+02  0.7816164E-02  0.1226708E+00
        -11   -1    0    0    0    0  0.00000000000E+00  0.00000000000E+00  0.45593999997E+02  0.45594000000E+02  0.51100000000E-03 0. -1.
         11   -1    0    0    0    0 -0.00000000000E+00 -0.00000000000E+00 -0.45593999997E+02  0.45594000000E+02  0.51100000000E-03 0.  1.
    9900012    2    1    2    0    0 -0.45752654191E+01  0.54950183053E+01  0.17307447009E+02  0.72461654873E+02  0.70000110179E+02 0.  0.
        -12    1    1    2    0    0  0.45752654191E+01 -0.54950183053E+01 -0.17307447009E+02  0.18726345127E+02  0.00000000000E+00 0.  1.
         11    1    3    3    0    0  0.10450165187E+02 -0.10206973587E+02 -0.16385472284E+02  0.21951582277E+02  0.51100000000E-03 0. -1.
        -11    1    3    3    0    0  0.12919426307E+01  0.65489770135E+01 -0.44522366586E+01  0.80237539350E+01  0.51100000000E-03 0.  1.
         12    1    3    3    0    0 -0.16317373237E+02  0.91530148793E+01  0.38145155952E+02  0.42486318661E+02  0.00000000000E+00 0. -1.
</event>
<event>
 7    1  0.3758561E-013  0.7246151E+02  0.7816164E-02  0.1226708E+00
        -11   -1    0    0    0    0  0.00000000000E+00  0.00000000000E+00  0.45593999997E+02  0.45594000000E+02  0.51100000000E-03 0.  1.
         11   -1    0    0    0    0 -0.00000000000E+00 -0.00000000000E+00 -0.45593999997E+02  0.45594000000E+02  0.51100000000E-03 0. -1.
    9900012    2    1    2    0    0 -0.11395436428E+02  0.10300479789E+02  0.10711004759E+02  0.72461508652E+02  0.69999919700E+02 0.  0.
        -12    1    1    2    0    0  0.11395436428E+02 -0.10300479789E+02 -0.10711004759E+02  0.18726491348E+02  0.00000000000E+00 0.  1.
         11    1    3    3    0    0 -0.58031258500E+01  0.20427652420E+02  0.84573668781E+01  0.22858090642E+02  0.51100000000E-03 0. -1.
        -11    1    3    3    0    0 -0.19934860300E+02 -0.16337875413E+01  0.17825942839E+02  0.26792389876E+02  0.51100000000E-03 0.  1.
         12    1    3    3    0    0  0.14342549723E+02 -0.84933850898E+01 -0.15572304958E+02  0.22811028134E+02  0.00000000000E+00 0. -1.
</event>
<event>
 7    1  0.4168496E-013  0.7246157E+02  0.7816164E-02  0.1226708E+00
        -11   -1    0    0    0    0  0.00000000000E+00  0.00000000000E+00  0.45593999997E+02  0.45594000000E+02  0.51100000000E-03 0. -1.
         11   -1    0    0    0    0 -0.00000000000E+00 -0.00000000000E+00 -0.45593999997E+02  0.45594000000E+02  0.51100000000E-03 0.  1.
    9900012    2    1    2    0    0 -0.49181597368E+01 -0.13516090773E+02  0.11991913590E+02  0.72461574913E+02  0.70000006017E+02 0.  0.
        -12    1    1    2    0    0  0.49181597368E+01  0.13516090773E+02 -0.11991913590E+02  0.18726425087E+02  0.00000000000E+00 0.  1.
         11    1    3    3    0    0 -0.11681321057E+02 -0.23145599382E+02 -0.23294480716E+01  0.26030719564E+02  0.51100000000E-03 0. -1.
        -11    1    3    3    0    0  0.18834782317E+02 -0.28211557569E+01 -0.57608657008E+01  0.19897123375E+02  0.51100000000E-03 0.  1.
         12    1    3    3    0    0 -0.12071620996E+02  0.12450664366E+02  0.20082227363E+02  0.26533731974E+02  0.00000000000E+00 0. -1.
</event>
<event>
 7    1  0.3758561E-013  0.7246148E+02  0.7816164E-02  0.1226708E+00
        -11   -1    0    0    0    0  0.00000000000E+00  0.00000000000E+00  0.45593999997E+02  0.45594000000E+02  0.51100000000E-03 0.  1.
         11   -1    0    0    0    0 -0.00000000000E+00 -0.00000000000E+00 -0.45593999997E+02  0.45594000000E+02  0.51100000000E-03 0. -1.
    9900012    2    1    2    0    0  0.54183292189E+01  0.14978126408E+02  0.98478330633E+01  0.72461484620E+02  0.69999888394E+02 0.  0.
        -12    1    1    2    0    0 -0.54183292189E+01 -0.14978126408E+02 -0.98478330633E+01  0.18726515380E+02  0.00000000000E+00 0.  1.
         11    1    3    3    0    0  0.12493529490E+02 -0.17096149533E+02 -0.63792117882E+01  0.22114722500E+02  0.51100000000E-03 0. -1.
        -11    1    3    3    0    0 -0.29389058414E+01 -0.71462762728E+01  0.69781761204E-01  0.77273088373E+01  0.51100000000E-03 0.  1.
         12    1    3    3    0    0 -0.41362944293E+01  0.39220552214E+02  0.16157263090E+02  0.42619453283E+02  0.00000000000E+00 0. -1.
</event>
<event>
 7    1  0.3758561E-013  0.7246155E+02  0.7816164E-02  0.1226708E+00
        -11   -1    0    0    0    0  0.00000000000E+00  0.00000000000E+00  0.45593999997E+02  0.45594000000E+02  0.51100000000E-03 0.  1.
         11   -1    0    0    0    0 -0.00000000000E+00 -0.00000000000E+00 -0.45593999997E+02  0.45594000000E+02  0.51100000000E-03 0. -1.
    9900012    2    1    2    0    0  0.16952379079E+02 -0.62289270135E+01 -0.49494527539E+01  0.72461554242E+02  0.69999979088E+02 0.  0.
        -12    1    1    2    0    0 -0.16952379079E+02  0.62289270135E+01  0.49494527539E+01  0.18726445758E+02  0.00000000000E+00 0.  1.
         11    1    3    3    0    0 -0.13393539382E+02 -0.17274808477E+02 -0.41899330407E+01  0.22256716834E+02  0.51100000000E-03 0. -1.
        -11    1    3    3    0    0 -0.45471078566E+01 -0.82572820992E+01 -0.39074707268E+01  0.10204274853E+02  0.51100000000E-03 0.  1.
         12    1    3    3    0    0  0.34893026318E+02  0.19303163563E+02  0.31479510136E+01  0.40000562555E+02  0.00000000000E+00 0. -1.
</event>
<event>
 7    1  0.3758561E-013  0.7246159E+02  0.7816164E-02  0.1226708E+00
        -11   -1    0    0    0    0  0.00000000000E+00  0.00000000000E+00  0.45593999997E+02  0.45594000000E+02  0.51100000000E-03 0. -1.
         11   -1    0    0    0    0 -0.00000000000E+00 -0.00000000000E+00 -0.45593999997E+02  0.45594000000E+02  0.51100000000E-03 0.  1.
    9900012    2    1    2    0    0  0.65730192069E+01 -0.13372358370E+02  0.11342577393E+02  0.72461585186E+02  0.70000019399E+02 0.  0.
        -12    1    1    2    0    0 -0.65730192069E+01  0.13372358370E+02 -0.11342577393E+02  0.18726414814E+02  0.00000000000E+00 0.  1.
         11    1    3    3    0    0 -0.18168319132E+02  0.60398648952E+01  0.14247006326E+02  0.23865141473E+02  0.51100000000E-03 0. -1.
        -11    1    3    3    0    0 -0.77068003107E-01  0.91155299058E+01 -0.55821975175E+01  0.10689235442E+02  0.51100000000E-03 0.  1.
         12    1    3    3    0    0  0.24818406342E+02 -0.28527753171E+02  0.26777685840E+01  0.37907208271E+02  0.00000000000E+00 0. -1.
</event>
<event>
 7    1  0.3758561E-013  0.7246157E+02  0.7816164E-02  0.1226708E+00
        -11   -1    0    0    0    0  0.00000000000E+00  0.00000000000E+00  0.45593999997E+02  0.45594000000E+02  0.51100000000E-03 0.  1.
         11   -1    0    0    0    0 -0.00000000000E+00 -0.00000000000E+00 -0.45593999997E+02  0.45594000000E+02  0.51100000000E-03 0. -1.
    9900012    2    1    2    0    0 -0.37313539577E+01 -0.42602133053E+01 -0.17849561795E+02  0.72461567450E+02  0.69999996295E+02 0.  0.
        -12    1    1    2    0    0  0.37313539577E+01  0.42602133053E+01  0.17849561795E+02  0.18726432550E+02  0.00000000000E+00 0.  1.
         11    1    3    3    0    0  0.18571778272E+02  0.23312395376E+01  0.66916550869E+01  0.19877723059E+02  0.51100000000E-03 0. -1.
        -11    1    3    3    0    0 -0.65319342032E+01 -0.13329335922E+01  0.11274390812E+02  0.13097891618E+02  0.51100000000E-03 0.  1.
         12    1    3    3    0    0 -0.15771198026E+02 -0.52585192507E+01 -0.35815607694E+02  0.39485952773E+02  0.00000000000E+00 0. -1.
</event>
<event>
 7    1  0.3758561E-013  0.7246155E+02  0.7816164E-02  0.1226708E+00
        -11   -1    0    0    0    0  0.00000000000E+00  0.00000000000E+00  0.45593999997E+02  0.45594000000E+02  0.51100000000E-03 0. -1.
         11   -1    0    0    0    0 -0.00000000000E+00 -0.00000000000E+00 -0.45593999997E+02  0.45594000000E+02  0.51100000000E-03 0.  1.
    9900012    2    1    2    0    0  0.12037317418E+02 -0.12416242718E+02  0.71846988768E+01  0.72461548339E+02  0.69999971399E+02 0.  0.
        -12    1    1    2    0    0 -0.12037317418E+02  0.12416242718E+02 -0.71846988768E+01  0.18726451661E+02  0.00000000000E+00 0.  1.
         11    1    3    3    0    0 -0.86302331663E+01  0.43861802513E+01 -0.28164273832E+01  0.10082250005E+02  0.51100000000E-03 0. -1.
        -11    1    3    3    0    0  0.77941773025E+01  0.15713330349E+02 -0.11826711522E+02  0.21154882562E+02  0.51100000000E-03 0.  1.
        -12    1    3    3    0    0  0.12873373282E+02 -0.32515753319E+02  0.21827837782E+02  0.41224415773E+02  0.00000000000E+00 0.  1.
</event>
<event>
 7    1  0.3758561E-013  0.7246157E+02  0.7816164E-02  0.1226708E+00
        -11   -1    0    0    0    0  0.00000000000E+00  0.00000000000E+00  0.45593999997E+02  0.45594000000E+02  0.51100000000E-03 0.  1.
         11   -1    0    0    0    0 -0.00000000000E+00 -0.00000000000E+00 -0.45593999997E+02  0.45594000000E+02  0.51100000000E-03 0. -1.
    9900012    2    1    2    0    0 -0.89506704121E+01  0.16406989363E+02  0.11727336948E+01  0.72461572015E+02  0.70000002241E+02 0.  0.
        -12    1    1    2    0    0  0.89506704121E+01 -0.16406989363E+02 -0.11727336948E+01  0.18726427985E+02  0.00000000000E+00 0.  1.
         11    1    3    3    0    0 -0.84058809785E+01 -0.75419009439E+01  0.55099006741E+00  0.11306754406E+02  0.51100000000E-03 0. -1.
        -11    1    3    3    0    0 -0.12186393064E+02  0.38965084110E+02 -0.54944047803E+01  0.41194349609E+02  0.51100000000E-03 0.  1.
         12    1    3    3    0    0  0.11641603630E+02 -0.15016193803E+02  0.61161484077E+01  0.19960468000E+02  0.00000000000E+00 0. -1.
</event>
<event>
 7    1  0.3758561E-013  0.7246166E+02  0.7816164E-02  0.1226708E+00
        -11   -1    0    0    0    0  0.00000000000E+00  0.00000000000E+00  0.45593999997E+02  0.45594000000E+02  0.51100000000E-03 0.  1.
         11   -1    0    0    0    0 -0.00000000000E+00 -0.00000000000E+00 -0.45593999997E+02  0.45594000000E+02  0.51100000000E-03 0. -1.
    9900012    2    1    2    0    0  0.11683952053E+02  0.13339693906E+02 -0.60177818098E+01  0.72461658473E+02  0.70000114869E+02 0.  0.
        -12    1    1    2    0    0 -0.11683952053E+02 -0.13339693906E+02  0.60177818098E+01  0.18726341527E+02  0.00000000000E+00 0.  1.
         11    1    3    3    0    0  0.50695790283E+01  0.66349220858E+01 -0.35200507346E+02  0.36177320800E+02  0.51100000000E-03 0. -1.
        -11    1    3    3    0    0 -0.40337255291E+01  0.60504107493E+01  0.27402620059E+01  0.77709361084E+01  0.51100000000E-03 0.  1.
        -12    1    3    3    0    0  0.10648098554E+02  0.65436107080E+00  0.26442463530E+02  0.28513401564E+02  0.00000000000E+00 0.  1.
</event>
<event>
 7    1  0.3758561E-013  0.7246171E+02  0.7816164E-02  0.1226708E+00
        -11   -1    0    0    0    0  0.00000000000E+00  0.00000000000E+00  0.45593999997E+02  0.45594000000E+02  0.51100000000E-03 0. -1.
         11   -1    0    0    0    0 -0.00000000000E+00 -0.00000000000E+00 -0.45593999997E+02  0.45594000000E+02  0.51100000000E-03 0.  1.
    9900012    2    1    2    0    0  0.39188293617E+01  0.13449848966E+02  0.12426518768E+02  0.72461707535E+02  0.70000178782E+02 0.  0.
        -12    1    1    2    0    0 -0.39188293617E+01 -0.13449848966E+02 -0.12426518768E+02  0.18726292465E+02  0.00000000000E+00 0.  1.
         11    1    3    3    0    0 -0.38333004502E+00 -0.13911594197E+02 -0.13821422837E+01  0.13985339202E+02  0.51100000000E-03 0. -1.
        -11    1    3    3    0    0  0.19503326363E+02  0.97153890197E+00  0.19384603615E+02  0.27515204609E+02  0.51100000000E-03 0.  1.
        -12    1    3    3    0    0 -0.15201166957E+02  0.26389904261E+02 -0.55759425635E+01  0.30961163725E+02  0.00000000000E+00 0.  1.
</event>
<event>
 7    1  0.3758561E-013  0.7246191E+02  0.7816164E-02  0.1226707E+00
        -11   -1    0    0    0    0  0.00000000000E+00  0.00000000000E+00  0.45593999997E+02  0.45594000000E+02  0.51100000000E-03 0.  1.
         11   -1    0    0    0    0 -0.00000000000E+00 -0.00000000000E+00 -0.45593999997E+02  0.45594000000E+02  0.51100000000E-03 0. -1.
    9900012    2    1    2    0    0 -0.34893122108E+00  0.24114172671E+01 -0.18566896879E+02  0.72461912690E+02  0.70000446033E+02 0.  0.
        -12    1    1    2    0    0  0.34893122108E+00 -0.24114172671E+01  0.18566896879E+02  0.18726087310E+02  0.00000000000E+00 0.  1.
         11    1    3    3    0    0 -0.15256204960E+02  0.19337222954E+02  0.75460578045E+01  0.25760880614E+02  0.51100000000E-03 0. -1.
        -11    1    3    3    0    0 -0.83270811912E+01 -0.10314017247E+02 -0.37352313690E+01  0.13772116271E+02  0.51100000000E-03 0.  1.
        -12    1    3    3    0    0  0.23234354930E+02 -0.66117884396E+01 -0.22377723314E+02  0.32928915805E+02  0.00000000000E+00 0.  1.
</event>
<event>
 7    1  0.3758561E-013  0.7246147E+02  0.7816164E-02  0.1226708E+00
        -11   -1    0    0    0    0  0.00000000000E+00  0.00000000000E+00  0.45593999997E+02  0.45594000000E+02  0.51100000000E-03 0. -1.
         11   -1    0    0    0    0 -0.00000000000E+00 -0.00000000000E+00 -0.45593999997E+02  0.45594000000E+02  0.51100000000E-03 0.  1.
    9900012    2    1    2    0    0  0.10698511121E+02 -0.11022509262E+02  0.10711160598E+02  0.72461473040E+02  0.69999873308E+02 0.  0.
        -12    1    1    2    0    0 -0.10698511121E+02  0.11022509262E+02 -0.10711160598E+02  0.18726526960E+02  0.00000000000E+00 0.  1.
         11    1    3    3    0    0  0.65124762008E+01 -0.37877673690E+02  0.25507422842E+01  0.38518006138E+02  0.51100000000E-03 0. -1.
        -11    1    3    3    0    0  0.38129835924E+01 -0.17505444272E+01  0.21353208908E+01  0.47077431149E+01  0.51100000000E-03 0.  1.
        -12    1    3    3    0    0  0.37305132802E+00  0.28605708855E+02  0.60250974227E+01  0.29235723787E+02  0.00000000000E+00 0.  1.
</event>
<event>
 7    1  0.3758561E-013  0.7246160E+02  0.7816164E-02  0.1226708E+00
        -11   -1    0    0    0    0  0.00000000000E+00  0.00000000000E+00  0.45593999997E+02  0.45594000000E+02  0.51100000000E-03 0. -1.
         11   -1    0    0    0    0 -0.00000000000E+00 -0.00000000000E+00 -0.45593999997E+02  0.45594000000E+02  0.51100000000E-03 0.  1.
    9900012    2    1    2    0    0  0.60824977053E+01 -0.13625284435E+02  0.11315166184E+02  0.72461597782E+02  0.70000035807E+02 0.  0.
        -12    1    1    2    0    0 -0.60824977053E+01  0.13625284435E+02 -0.11315166184E+02  0.18726402218E+02  0.00000000000E+00 0.  1.
         11    1    3    3    0    0 -0.93510586336E+01  0.21817029167E+02 -0.89114896344E+01  0.25354283800E+02  0.51100000000E-03 0. -1.
        -11    1    3    3    0    0  0.32910256186E+01  0.76658314141E+00 -0.85328452752E+00  0.34851964193E+01  0.51100000000E-03 0.  1.
         12    1    3    3    0    0  0.12142530720E+02 -0.36208896743E+02  0.21079940346E+02  0.43622117563E+02  0.00000000000E+00 0. -1.
</event>
<event>
 7    1  0.3758561E-013  0.7246157E+02  0.7816164E-02  0.1226708E+00
        -11   -1    0    0    0    0  0.00000000000E+00  0.00000000000E+00  0.45593999997E+02  0.45594000000E+02  0.51100000000E-03 0. -1.
         11   -1    0    0    0    0 -0.00000000000E+00 -0.00000000000E+00 -0.45593999997E+02  0.45594000000E+02  0.51100000000E-03 0.  1.
    9900012    2    1    2    0    0  0.15072438700E+02  0.42499800407E+01  0.10268324337E+02  0.72461568856E+02  0.69999998126E+02 0.  0.
        -12    1    1    2    0    0 -0.15072438700E+02 -0.42499800407E+01 -0.10268324337E+02  0.18726431144E+02  0.00000000000E+00 0.  1.
         11    1    3    3    0    0 -0.75294133517E+01 -0.71360153907E+01 -0.14011390273E+02  0.17433698366E+02  0.51100000000E-03 0. -1.
        -11    1    3    3    0    0  0.27110713603E+02  0.16065115176E+02  0.17300222701E+01  0.31560603527E+02  0.51100000000E-03 0.  1.
         12    1    3    3    0    0 -0.45088615512E+01 -0.46791197451E+01  0.22549692340E+02  0.23467266963E+02  0.00000000000E+00 0. -1.
</event>
<event>
 7    1  0.3758561E-013  0.7246149E+02  0.7816164E-02  0.1226708E+00
        -11   -1    0    0    0    0  0.00000000000E+00  0.00000000000E+00  0.45593999997E+02  0.45594000000E+02  0.51100000000E-03 0. -1.
         11   -1    0    0    0    0 -0.00000000000E+00 -0.00000000000E+00 -0.45593999997E+02  0.45594000000E+02  0.51100000000E-03 0.  1.
    9900012    2    1    2    0    0 -0.12139098496E+02 -0.13678764615E+02  0.40268796758E+01  0.72461492755E+02  0.69999898990E+02 0.  0.
        -12    1    1    2    0    0  0.12139098496E+02  0.13678764615E+02 -0.40268796758E+01  0.18726507245E+02  0.00000000000E+00 0.  1.
         11    1    3    3    0    0 -0.14864857183E+02 -0.13511098070E+02 -0.10645311091E+02  0.22734036127E+02  0.51100000000E-03 0. -1.
        -11    1    3    3    0    0 -0.16676700749E+02  0.15339810828E+02  0.63431129303E+01  0.23529921930E+02  0.51100000000E-03 0.  1.
        -12    1    3    3    0    0  0.19402459436E+02 -0.15507477373E+02  0.83290778369E+01  0.26197534698E+02  0.00000000000E+00 0.  1.
</event>
<event>
 7    1  0.3758561E-013  0.7246159E+02  0.7816164E-02  0.1226708E+00
        -11   -1    0    0    0    0  0.00000000000E+00  0.00000000000E+00  0.45593999997E+02  0.45594000000E+02  0.51100000000E-03 0.  1.
         11   -1    0    0    0    0 -0.00000000000E+00 -0.00000000000E+00 -0.45593999997E+02  0.45594000000E+02  0.51100000000E-03 0. -1.
    9900012    2    1    2    0    0 -0.75403472680E+01 -0.72960010024E+01 -0.15510961769E+02  0.72461590773E+02  0.70000026677E+02 0.  0.
        -12    1    1    2    0    0  0.75403472680E+01  0.72960010024E+01  0.15510961769E+02  0.18726409227E+02  0.00000000000E+00 0.  1.
         11    1    3    3    0    0  0.28488883464E+01  0.27889338071E+01  0.23479783645E+01  0.46268044319E+01  0.51100000000E-03 0. -1.
        -11    1    3    3    0    0  0.23989032229E+02  0.66264474618E+01 -0.15955053822E+02  0.29562598261E+02  0.51100000000E-03 0.  1.
         12    1    3    3    0    0 -0.34378267843E+02 -0.16711382271E+02 -0.19038863120E+01  0.38272188080E+02  0.00000000000E+00 0. -1.
</event>
<event>
 7    1  0.3758561E-013  0.7246158E+02  0.7816164E-02  0.1226708E+00
        -11   -1    0    0    0    0  0.00000000000E+00  0.00000000000E+00  0.45593999997E+02  0.45594000000E+02  0.51100000000E-03 0. -1.
         11   -1    0    0    0    0 -0.00000000000E+00 -0.00000000000E+00 -0.45593999997E+02  0.45594000000E+02  0.51100000000E-03 0.  1.
    9900012    2    1    2    0    0  0.26863063101E+01  0.18078602521E+02  0.40775877561E+01  0.72461579290E+02  0.70000011718E+02 0.  0.
        -12    1    1    2    0    0 -0.26863063101E+01 -0.18078602521E+02 -0.40775877561E+01  0.18726420710E+02  0.00000000000E+00 0.  1.
         11    1    3    3    0    0 -0.15320352121E+02 -0.60734436315E+01 -0.79948970199E+01  0.18317158221E+02  0.51100000000E-03 0. -1.
        -11    1    3    3    0    0  0.80910733562E+01 -0.18399517729E+01 -0.13833327275E+02  0.16131082863E+02  0.51100000000E-03 0.  1.
         12    1    3    3    0    0  0.99155850754E+01  0.25991997925E+02  0.25905812051E+02  0.38013338206E+02  0.00000000000E+00 0. -1.
</event>
<event>
 7    1  0.3758561E-013  0.7246161E+02  0.7816164E-02  0.1226708E+00
        -11   -1    0    0    0    0  0.00000000000E+00  0.00000000000E+00  0.45593999997E+02  0.45594000000E+02  0.51100000000E-03 0. -1.
         11   -1    0    0    0    0 -0.00000000000E+00 -0.00000000000E+00 -0.45593999997E+02  0.45594000000E+02  0.51100000000E-03 0.  1.
    9900012    2    1    2    0    0  0.12298596922E+02  0.11432840232E+02  0.82892957100E+01  0.72461608319E+02  0.70000049534E+02 0.  0.
        -12    1    1    2    0    0 -0.12298596922E+02 -0.11432840232E+02 -0.82892957100E+01  0.18726391681E+02  0.00000000000E+00 0.  1.
         11    1    3    3    0    0 -0.14392720587E+02  0.19552192086E+00  0.14564848126E+02  0.20477388406E+02  0.51100000000E-03 0. -1.
        -11    1    3    3    0    0  0.18288071978E+02 -0.18482856556E+01  0.16302158418E+02  0.24568884913E+02  0.51100000000E-03 0.  1.
        -12    1    3    3    0    0  0.84032455317E+01  0.13085603967E+02 -0.22577710834E+02  0.27415335000E+02  0.00000000000E+00 0.  1.
</event>
<event>
 7    1  0.3758561E-013  0.7246156E+02  0.7816164E-02  0.1226708E+00
        -11   -1    0    0    0    0  0.00000000000E+00  0.00000000000E+00  0.45593999997E+02  0.45594000000E+02  0.51100000000E-03 0. -1.
         11   -1    0    0    0    0 -0.00000000000E+00 -0.00000000000E+00 -0.45593999997E+02  0.45594000000E+02  0.51100000000E-03 0.  1.
    9900012    2    1    2    0    0  0.31467780559E+01 -0.10844359985E+02  0.14939116087E+02  0.72461560267E+02  0.69999986938E+02 0.  0.
        -12    1    1    2    0    0 -0.31467780559E+01  0.10844359985E+02 -0.14939116087E+02  0.18726439733E+02  0.00000000000E+00 0.  1.
         11    1    3    3    0    0 -0.47264304642E+01 -0.18267570294E+02  0.10892822950E+02  0.21787539133E+02  0.51100000000E-03 0. -1.
        -11    1    3    3    0    0 -0.44478236625E+01 -0.19696796572E+02 -0.19574103309E+01  0.20287394757E+02  0.51100000000E-03 0.  1.
        -12    1    3    3    0    0  0.12321032183E+02  0.27120006881E+02  0.60037034677E+01  0.30386626378E+02  0.00000000000E+00 0.  1.
</event>
<event>
 7    1  0.3758561E-013  0.7246156E+02  0.7816164E-02  0.1226708E+00
        -11   -1    0    0    0    0  0.00000000000E+00  0.00000000000E+00  0.45593999997E+02  0.45594000000E+02  0.51100000000E-03 0.  1.
         11   -1    0    0    0    0 -0.00000000000E+00 -0.00000000000E+00 -0.45593999997E+02  0.45594000000E+02  0.51100000000E-03 0. -1.
    9900012    2    1    2    0    0 -0.14941610675E+02 -0.61854765745E+01 -0.94428747791E+01  0.72461555220E+02  0.69999980362E+02 0.  0.
        -12    1    1    2    0    0  0.14941610675E+02  0.61854765745E+01  0.94428747791E+01  0.18726444780E+02  0.00000000000E+00 0.  1.
         11    1    3    3    0    0 -0.31235317611E+01 -0.35066323091E+01 -0.61327627838E+01  0.77242281451E+01  0.51100000000E-03 0. -1.
        -11    1    3    3    0    0 -0.97938682540E+01 -0.31720822866E+02 -0.10371536508E+02  0.34780730706E+02  0.51100000000E-03 0.  1.
        -12    1    3    3    0    0 -0.20242106599E+01  0.29041978600E+02  0.70614245131E+01  0.29956596368E+02  0.00000000000E+00 0.  1.
</event>
<event>
 7    1  0.3758561E-013  0.7246161E+02  0.7816164E-02  0.1226708E+00
        -11   -1    0    0    0    0  0.00000000000E+00  0.00000000000E+00  0.45593999997E+02  0.45594000000E+02  0.51100000000E-03 0. -1.
         11   -1    0    0    0    0 -0.00000000000E+00 -0.00000000000E+00 -0.45593999997E+02  0.45594000000E+02  0.51100000000E-03 0.  1.
    9900012    2    1    2    0    0 -0.13733888968E+02 -0.10045919674E+02 -0.78190545342E+01  0.72461606271E+02  0.70000046866E+02 0.  0.
        -12    1    1    2    0    0  0.13733888968E+02  0.10045919674E+02  0.78190545342E+01  0.18726393729E+02  0.00000000000E+00 0.  1.
         11    1    3    3    0    0  0.22754468451E+01  0.10653976725E+02  0.64501790905E+01  0.12660556424E+02  0.51100000000E-03 0. -1.
        -11    1    3    3    0    0 -0.35028606437E+02 -0.11538493979E+02 -0.75324156012E+01  0.37641431924E+02  0.51100000000E-03 0.  1.
         12    1    3    3    0    0  0.19019270625E+02 -0.91614024210E+01 -0.67368180235E+01  0.22159617923E+02  0.00000000000E+00 0. -1.
</event>
<event>
 7    1  0.3758561E-013  0.7246158E+02  0.7816164E-02  0.1226708E+00
        -11   -1    0    0    0    0  0.00000000000E+00  0.00000000000E+00  0.45593999997E+02  0.45594000000E+02  0.51100000000E-03 0. -1.
         11   -1    0    0    0    0 -0.00000000000E+00 -0.00000000000E+00 -0.45593999997E+02  0.45594000000E+02  0.51100000000E-03 0.  1.
    9900012    2    1    2    0    0 -0.89011923031E+01  0.16301704862E+02 -0.23879166473E+01  0.72461576109E+02  0.70000007575E+02 0.  0.
        -12    1    1    2    0    0  0.89011923031E+01 -0.16301704862E+02  0.23879166473E+01  0.18726423891E+02  0.00000000000E+00 0.  1.
         11    1    3    3    0    0 -0.20907312842E+02  0.15384941528E+02  0.13384534902E+02  0.29205443515E+02  0.51100000000E-03 0. -1.
        -11    1    3    3    0    0 -0.10576098406E+02  0.96555504504E+01 -0.12134138941E+02  0.18770211509E+02  0.51100000000E-03 0.  1.
        -12    1    3    3    0    0  0.22582218945E+02 -0.87387871168E+01 -0.36383126087E+01  0.24485921085E+02  0.00000000000E+00 0.  1.
</event>
<event>
 7    1  0.3758561E-013  0.7246171E+02  0.7816164E-02  0.1226708E+00
        -11   -1    0    0    0    0  0.00000000000E+00  0.00000000000E+00  0.45593999997E+02  0.45594000000E+02  0.51100000000E-03 0.  1.
         11   -1    0    0    0    0 -0.00000000000E+00 -0.00000000000E+00 -0.45593999997E+02  0.45594000000E+02  0.51100000000E-03 0. -1.
    9900012    2    1    2    0    0  0.21812618172E+01  0.11997740162E+02 -0.14211626840E+02  0.72461708067E+02  0.70000179474E+02 0.  0.
        -12    1    1    2    0    0 -0.21812618172E+01 -0.11997740162E+02  0.14211626840E+02  0.18726291933E+02  0.00000000000E+00 0.  1.
         11    1    3    3    0    0 -0.84519022443E+01  0.82905595138E+01 -0.33675952755E+02  0.35696467932E+02  0.51100000000E-03 0. -1.
        -11    1    3    3    0    0  0.50622827203E+01  0.11297627656E+02 -0.27114890866E+01  0.12673407999E+02  0.51100000000E-03 0.  1.
        -12    1    3    3    0    0  0.55708813413E+01 -0.75904470076E+01  0.22175815001E+02  0.24091832136E+02  0.00000000000E+00 0.  1.
</event>
<event>
 7    1  0.3758561E-013  0.7246158E+02  0.7816164E-02  0.1226708E+00
        -11   -1    0    0    0    0  0.00000000000E+00  0.00000000000E+00  0.45593999997E+02  0.45594000000E+02  0.51100000000E-03 0.  1.
         11   -1    0    0    0    0 -0.00000000000E+00 -0.00000000000E+00 -0.45593999997E+02  0.45594000000E+02  0.51100000000E-03 0. -1.
    9900012    2    1    2    0    0  0.25929814778E+01 -0.14307848599E+02 -0.11800030011E+02  0.72461580354E+02  0.70000013105E+02 0.  0.
        -12    1    1    2    0    0 -0.25929814778E+01  0.14307848599E+02  0.11800030011E+02  0.18726419646E+02  0.00000000000E+00 0.  1.
         11    1    3    3    0    0 -0.27473737919E+01  0.59794559129E+00 -0.23613053195E+02  0.23779862975E+02  0.51100000000E-03 0. -1.
        -11    1    3    3    0    0 -0.17233116741E+01 -0.27685786475E+02 -0.29760353211E+01  0.27898554844E+02  0.51100000000E-03 0.  1.
        -12    1    3    3    0    0  0.70636669438E+01  0.12779992285E+02  0.14789058505E+02  0.20783162535E+02  0.00000000000E+00 0.  1.
</event>
<event>
 7    1  0.3758561E-013  0.7246202E+02  0.7816164E-02  0.1226707E+00
        -11   -1    0    0    0    0  0.00000000000E+00  0.00000000000E+00  0.45593999997E+02  0.45594000000E+02  0.51100000000E-03 0. -1.
         11   -1    0    0    0    0 -0.00000000000E+00 -0.00000000000E+00 -0.45593999997E+02  0.45594000000E+02  0.51100000000E-03 0.  1.
    9900012    2    1    2    0    0  0.14229495742E+02 -0.94569968239E+01  0.76647804375E+01  0.72462023466E+02  0.70000590338E+02 0.  0.
        -12    1    1    2    0    0 -0.14229495742E+02  0.94569968239E+01 -0.76647804375E+01  0.18725976534E+02  0.00000000000E+00 0.  1.
         11    1    3    3    0    0  0.29365139136E+02  0.38046409066E+00  0.15618842646E+02  0.33262657670E+02  0.51100000000E-03 0.  1.
        -11    1    3    3    0    0  0.67056098122E+01 -0.13799067768E+02 -0.73045660231E+01  0.16992238207E+02  0.51100000000E-03 0. -1.
        -12    1    3    3    0    0 -0.21841253206E+02  0.39616068539E+01 -0.64949618545E+00  0.22207127589E+02  0.00000000000E+00 0.  1.
</event>
<event>
 7    1  0.3758561E-013  0.7246161E+02  0.7816164E-02  0.1226708E+00
        -11   -1    0    0    0    0  0.00000000000E+00  0.00000000000E+00  0.45593999997E+02  0.45594000000E+02  0.51100000000E-03 0.  1.
         11   -1    0    0    0    0 -0.00000000000E+00 -0.00000000000E+00 -0.45593999997E+02  0.45594000000E+02  0.51100000000E-03 0. -1.
    9900012    2    1    2    0    0 -0.66123884700E+01 -0.17457136063E+02 -0.14840416745E+01  0.72461610585E+02  0.70000052487E+02 0.  0.
        -12    1    1    2    0    0  0.66123884700E+01  0.17457136063E+02  0.14840416745E+01  0.18726389415E+02  0.00000000000E+00 0.  1.
         11    1    3    3    0    0  0.10715118147E+02 -0.36401831659E+01  0.62434910291E+00  0.11333777060E+02  0.51100000000E-03 0. -1.
        -11    1    3    3    0    0 -0.20874172078E+01  0.80889655319E+01  0.23010276454E+02  0.24479818151E+02  0.51100000000E-03 0.  1.
         12    1    3    3    0    0 -0.15240089409E+02 -0.21905918429E+02 -0.25118667231E+02  0.36648015375E+02  0.00000000000E+00 0. -1.
</event>
<event>
 7    1  0.3758561E-013  0.7246157E+02  0.7816164E-02  0.1226708E+00
        -11   -1    0    0    0    0  0.00000000000E+00  0.00000000000E+00  0.45593999997E+02  0.45594000000E+02  0.51100000000E-03 0.  1.
         11   -1    0    0    0    0 -0.00000000000E+00 -0.00000000000E+00 -0.45593999997E+02  0.45594000000E+02  0.51100000000E-03 0. -1.
    9900012    2    1    2    0    0  0.15956549729E+02 -0.17950979287E+00 -0.97997770247E+01  0.72461565936E+02  0.69999994323E+02 0.  0.
        -12    1    1    2    0    0 -0.15956549729E+02  0.17950979287E+00  0.97997770247E+01  0.18726434064E+02  0.00000000000E+00 0.  1.
         11    1    3    3    0    0  0.29860546245E+02  0.38489503397E+01  0.69002920250E+01  0.30888196306E+02  0.51100000000E-03 0. -1.
        -11    1    3    3    0    0  0.46876538901E+00  0.14262284731E+02 -0.97942530443E+01  0.17307798812E+02  0.51100000000E-03 0.  1.
        -12    1    3    3    0    0 -0.14372761905E+02 -0.18290744864E+02 -0.69058160054E+01  0.24265570818E+02  0.00000000000E+00 0.  1.
</event>
<event>
 7    1  0.3758561E-013  0.7246158E+02  0.7816164E-02  0.1226708E+00
        -11   -1    0    0    0    0  0.00000000000E+00  0.00000000000E+00  0.45593999997E+02  0.45594000000E+02  0.51100000000E-03 0.  1.
         11   -1    0    0    0    0 -0.00000000000E+00 -0.00000000000E+00 -0.45593999997E+02  0.45594000000E+02  0.51100000000E-03 0. -1.
    9900012    2    1    2    0    0  0.17024292951E+02  0.72712654957E+01 -0.28250652396E+01  0.72461578933E+02  0.70000011253E+02 0.  0.
        -12    1    1    2    0    0 -0.17024292951E+02 -0.72712654957E+01  0.28250652396E+01  0.18726421067E+02  0.00000000000E+00 0.  1.
         11    1    3    3    0    0  0.63595347259E+01  0.64936819160E+01 -0.94782293336E+01  0.13131961709E+02  0.51100000000E-03 0. -1.
        -11    1    3    3    0    0  0.21946116525E+00  0.26821067815E+02 -0.75712692101E+01  0.27870090772E+02  0.51100000000E-03 0.  1.
        -12    1    3    3    0    0  0.10445297060E+02 -0.26043484235E+02  0.14224433304E+02  0.31459526452E+02  0.00000000000E+00 0.  1.
</event>
<event>
 7    1  0.3758561E-013  0.7246158E+02  0.7816164E-02  0.1226708E+00
        -11   -1    0    0    0    0  0.00000000000E+00  0.00000000000E+00  0.45593999997E+02  0.45594000000E+02  0.51100000000E-03 0. -1.
         11   -1    0    0    0    0 -0.00000000000E+00 -0.00000000000E+00 -0.45593999997E+02  0.45594000000E+02  0.51100000000E-03 0.  1.
    9900012    2    1    2    0    0 -0.76458439970E+01  0.78072849586E+01  0.15207432123E+02  0.72461584950E+02  0.70000019092E+02 0.  0.
        -12    1    1    2    0    0  0.76458439970E+01 -0.78072849586E+01 -0.15207432123E+02  0.18726415050E+02  0.00000000000E+00 0.  1.
         11    1    3    3    0    0  0.75628334573E+01 -0.10302572633E+02  0.21837981865E+02  0.25302903093E+02  0.51100000000E-03 0. -1.
        -11    1    3    3    0    0 -0.21844734033E+02  0.17329050638E+02  0.96932395483E+01  0.29520286147E+02  0.51100000000E-03 0.  1.
        -12    1    3    3    0    0  0.66360565787E+01  0.78080695308E+00 -0.16323789291E+02  0.17638395710E+02  0.00000000000E+00 0.  1.
</event>
<event>
 7    1  0.3758561E-013  0.7246158E+02  0.7816164E-02  0.1226708E+00
        -11   -1    0    0    0    0  0.00000000000E+00  0.00000000000E+00  0.45593999997E+02  0.45594000000E+02  0.51100000000E-03 0.  1.
         11   -1    0    0    0    0 -0.00000000000E+00 -0.00000000000E+00 -0.45593999997E+02  0.45594000000E+02  0.51100000000E-03 0. -1.
    9900012    2    1    2    0    0  0.17618880238E+02  0.32828330337E+01 -0.54292732207E+01  0.72461576389E+02  0.70000007939E+02 0.  0.
        -12    1    1    2    0    0 -0.17618880238E+02 -0.32828330337E+01  0.54292732207E+01  0.18726423611E+02  0.00000000000E+00 0.  1.
         11    1    3    3    0    0 -0.11513205619E+02 -0.13850548646E+02  0.49625821097E+01  0.18682045468E+02  0.51100000000E-03 0. -1.
        -11    1    3    3    0    0  0.83178174241E+00  0.52936181013E+01  0.13740257186E+02  0.14748183660E+02  0.51100000000E-03 0.  1.
        -12    1    3    3    0    0  0.28300304114E+02  0.11839763578E+02 -0.24132112516E+02  0.39031347261E+02  0.00000000000E+00 0.  1.
</event>
<event>
 7    1  0.3758561E-013  0.7246153E+02  0.7816164E-02  0.1226708E+00
        -11   -1    0    0    0    0  0.00000000000E+00  0.00000000000E+00  0.45593999997E+02  0.45594000000E+02  0.51100000000E-03 0. -1.
         11   -1    0    0    0    0 -0.00000000000E+00 -0.00000000000E+00 -0.45593999997E+02  0.45594000000E+02  0.51100000000E-03 0.  1.
    9900012    2    1    2    0    0  0.39948723969E+01 -0.57841502719E+01  0.17356992474E+02  0.72461532432E+02  0.69999950677E+02 0.  0.
        -12    1    1    2    0    0 -0.39948723969E+01  0.57841502719E+01 -0.17356992474E+02  0.18726467568E+02  0.00000000000E+00 0.  1.
         11    1    3    3    0    0  0.10306670708E+02 -0.74514715768E+01  0.30804892420E+02  0.33327065383E+02  0.51100000000E-03 0. -1.
        -11    1    3    3    0    0  0.76573140091E+01 -0.11398005241E+02  0.28284090892E+01  0.14019589136E+02  0.51100000000E-03 0.  1.
        -12    1    3    3    0    0 -0.13969112320E+02  0.13065326546E+02 -0.16276309035E+02  0.25114877913E+02  0.00000000000E+00 0.  1.
</event>
<event>
 7    1  0.3758561E-013  0.7246121E+02  0.7816164E-02  0.1226709E+00
        -11   -1    0    0    0    0  0.00000000000E+00  0.00000000000E+00  0.45593999997E+02  0.45594000000E+02  0.51100000000E-03 0. -1.
         11   -1    0    0    0    0 -0.00000000000E+00 -0.00000000000E+00 -0.45593999997E+02  0.45594000000E+02  0.51100000000E-03 0.  1.
    9900012    2    1    2    0    0 -0.10946872252E+02 -0.87045578759E+01  0.12453483184E+02  0.72461212146E+02  0.69999533444E+02 0.  0.
        -12    1    1    2    0    0  0.10946872252E+02  0.87045578759E+01 -0.12453483184E+02  0.18726787854E+02  0.00000000000E+00 0.  1.
         11    1    3    3    0    0  0.37775715623E+01  0.48455208191E+01 -0.31155500351E+01  0.68888149343E+01  0.51100000000E-03 0. -1.
        -11    1    3    3    0    0 -0.21159012160E+02  0.16411975845E+02 -0.68045483388E+01  0.27628945421E+02  0.51100000000E-03 0.  1.
         12    1    3    3    0    0  0.64345683463E+01 -0.29962054540E+02  0.22373581557E+02  0.37943451791E+02  0.00000000000E+00 0. -1.
</event>
<event>
 7    1  0.3758561E-013  0.7246163E+02  0.7816164E-02  0.1226708E+00
        -11   -1    0    0    0    0  0.00000000000E+00  0.00000000000E+00  0.45593999997E+02  0.45594000000E+02  0.51100000000E-03 0. -1.
         11   -1    0    0    0    0 -0.00000000000E+00 -0.00000000000E+00 -0.45593999997E+02  0.45594000000E+02  0.51100000000E-03 0.  1.
    9900012    2    1    2    0    0 -0.26602329998E+01 -0.91968458070E+01  0.16094042104E+02  0.72461628123E+02  0.70000075333E+02 0.  0.
        -12    1    1    2    0    0  0.26602329998E+01  0.91968458070E+01 -0.16094042104E+02  0.18726371877E+02  0.00000000000E+00 0.  1.
         11    1    3    3    0    0 -0.14425531383E+02 -0.24276832749E+02  0.10414938683E+02  0.30098696185E+02  0.51100000000E-03 0. -1.
        -11    1    3    3    0    0  0.11133743983E+02 -0.26670628253E+01  0.17584575785E+02  0.20983107134E+02  0.51100000000E-03 0.  1.
        -12    1    3    3    0    0  0.63155440059E+00  0.17747049768E+02 -0.11905472364E+02  0.21379824804E+02  0.00000000000E+00 0.  1.
</event>
<event>
 7    1  0.3758561E-013  0.7246160E+02  0.7816164E-02  0.1226708E+00
        -11   -1    0    0    0    0  0.00000000000E+00  0.00000000000E+00  0.45593999997E+02  0.45594000000E+02  0.51100000000E-03 0.  1.
         11   -1    0    0    0    0 -0.00000000000E+00 -0.00000000000E+00 -0.45593999997E+02  0.45594000000E+02  0.51100000000E-03 0. -1.
    9900012    2    1    2    0    0 -0.30411398257E+01  0.73196841590E+01 -0.16966199077E+02  0.72461595680E+02  0.70000033070E+02 0.  0.
        -12    1    1    2    0    0  0.30411398257E+01 -0.73196841590E+01  0.16966199077E+02  0.18726404320E+02  0.00000000000E+00 0.  1.
         11    1    3    3    0    0  0.20841630417E+02  0.11092697977E+02 -0.27101217011E+02  0.35942975261E+02  0.51100000000E-03 0. -1.
        -11    1    3    3    0    0  0.10607149534E+01 -0.88707343136E+01 -0.45349777139E+00  0.89454292219E+01  0.51100000000E-03 0.  1.
        -12    1    3    3    0    0 -0.24943485196E+02  0.50977204959E+01  0.10588515706E+02  0.27573191198E+02  0.00000000000E+00 0.  1.
</event>
<event>
 7    1  0.3758561E-013  0.7246148E+02  0.7816164E-02  0.1226708E+00
        -11   -1    0    0    0    0  0.00000000000E+00  0.00000000000E+00  0.45593999997E+02  0.45594000000E+02  0.51100000000E-03 0. -1.
         11   -1    0    0    0    0 -0.00000000000E+00 -0.00000000000E+00 -0.45593999997E+02  0.45594000000E+02  0.51100000000E-03 0.  1.
    9900012    2    1    2    0    0 -0.17068265610E+02  0.46591721785E+00  0.76902338400E+01  0.72461482270E+02  0.69999885332E+02 0.  0.
        -12    1    1    2    0    0  0.17068265610E+02 -0.46591721785E+00 -0.76902338400E+01  0.18726517730E+02  0.00000000000E+00 0.  1.
         11    1    3    3    0    0  0.21583840082E+00  0.16543248836E+02  0.28089937267E+02  0.32600157119E+02  0.51100000000E-03 0. -1.
        -11    1    3    3    0    0  0.27771846903E+01  0.43542645882E+01 -0.96271288256E+00  0.52534932438E+01  0.51100000000E-03 0.  1.
        -12    1    3    3    0    0 -0.20061288701E+02 -0.20431596206E+02 -0.19436990545E+02  0.34607831907E+02  0.00000000000E+00 0.  1.
</event>
<event>
 7    1  0.3758561E-013  0.7246156E+02  0.7816164E-02  0.1226708E+00
        -11   -1    0    0    0    0  0.00000000000E+00  0.00000000000E+00  0.45593999997E+02  0.45594000000E+02  0.51100000000E-03 0. -1.
         11   -1    0    0    0    0 -0.00000000000E+00 -0.00000000000E+00 -0.45593999997E+02  0.45594000000E+02  0.51100000000E-03 0.  1.
    9900012    2    1    2    0    0 -0.16231224320E+02 -0.53136040027E+01  0.76806529316E+01  0.72461562542E+02  0.69999989901E+02 0.  0.
        -12    1    1    2    0    0  0.16231224320E+02  0.53136040027E+01 -0.76806529316E+01  0.18726437458E+02  0.00000000000E+00 0.  1.
         11    1    3    3    0    0 -0.69636637709E+01  0.40044951995E+01  0.28371315222E+01  0.85192670138E+01  0.51100000000E-03 0. -1.
        -11    1    3    3    0    0 -0.23626810910E+02  0.75395108784E+01 -0.19118937192E+02  0.31314600072E+02  0.51100000000E-03 0.  1.
         12    1    3    3    0    0  0.14359250361E+02 -0.16857610081E+02  0.23962458601E+02  0.32627695456E+02  0.00000000000E+00 0. -1.
</event>
<event>
 7    1  0.3758561E-013  0.7246155E+02  0.7816164E-02  0.1226708E+00
        -11   -1    0    0    0    0  0.00000000000E+00  0.00000000000E+00  0.45593999997E+02  0.45594000000E+02  0.51100000000E-03 0.  1.
         11   -1    0    0    0    0 -0.00000000000E+00 -0.00000000000E+00 -0.45593999997E+02  0.45594000000E+02  0.51100000000E-03 0. -1.
    9900012    2    1    2    0    0  0.93604730260E+00  0.21520002271E+01 -0.18578821665E+02  0.72461550684E+02  0.69999974454E+02 0.  0.
        -12    1    1    2    0    0 -0.93604730260E+00 -0.21520002271E+01  0.18578821665E+02  0.18726449316E+02  0.00000000000E+00 0.  1.
         11    1    3    3    0    0  0.21248360219E+02 -0.93815006136E+01 -0.17046863634E+02  0.28811472121E+02  0.51100000000E-03 0. -1.
        -11    1    3    3    0    0 -0.30603804136E+01 -0.37869115748E+01  0.14670094052E+02  0.15456981831E+02  0.51100000000E-03 0.  1.
        -12    1    3    3    0    0 -0.17251932503E+02  0.15320412415E+02 -0.16202052083E+02  0.28193096733E+02  0.00000000000E+00 0.  1.
</event>
<event>
 7    1  0.3758561E-013  0.7246157E+02  0.7816164E-02  0.1226708E+00
        -11   -1    0    0    0    0  0.00000000000E+00  0.00000000000E+00  0.45593999997E+02  0.45594000000E+02  0.51100000000E-03 0. -1.
         11   -1    0    0    0    0 -0.00000000000E+00 -0.00000000000E+00 -0.45593999997E+02  0.45594000000E+02  0.51100000000E-03 0.  1.
    9900012    2    1    2    0    0 -0.16051145721E+02 -0.45260641026E+01  0.85178905726E+01  0.72461574953E+02  0.70000006069E+02 0.  0.
        -12    1    1    2    0    0  0.16051145721E+02  0.45260641026E+01 -0.85178905726E+01  0.18726425047E+02  0.00000000000E+00 0.  1.
         11    1    3    3    0    0  0.16605981256E+02  0.17887849167E+02 -0.22239817214E+01  0.24508771007E+02  0.51100000000E-03 0. -1.
        -11    1    3    3    0    0  0.25388842534E+01 -0.38609259859E+01  0.64513725412E+01  0.79355460207E+01  0.51100000000E-03 0.  1.
        -12    1    3    3    0    0 -0.35196011231E+02 -0.18552987284E+02  0.42904997528E+01  0.40017257925E+02  0.00000000000E+00 0.  1.
</event>
<event>
 7    1  0.3758561E-013  0.7246155E+02  0.7816164E-02  0.1226708E+00
        -11   -1    0    0    0    0  0.00000000000E+00  0.00000000000E+00  0.45593999997E+02  0.45594000000E+02  0.51100000000E-03 0.  1.
         11   -1    0    0    0    0 -0.00000000000E+00 -0.00000000000E+00 -0.45593999997E+02  0.45594000000E+02  0.51100000000E-03 0. -1.
    9900012    2    1    2    0    0 -0.40710864736E+01 -0.98967451284E+01 -0.15367515609E+02  0.72461552253E+02  0.69999976498E+02 0.  0.
        -12    1    1    2    0    0  0.40710864736E+01  0.98967451284E+01  0.15367515609E+02  0.18726447747E+02  0.00000000000E+00 0.  1.
         11    1    3    3    0    0  0.95633170683E+01  0.49942347575E+01 -0.41896149481E+00  0.10796987689E+02  0.51100000000E-03 0. -1.
        -11    1    3    3    0    0 -0.35590297995E+01  0.18269353468E+02  0.78291340489E+01  0.20192357699E+02  0.51100000000E-03 0.  1.
        -12    1    3    3    0    0 -0.10075373742E+02 -0.33160333353E+02 -0.22777688163E+02  0.41472206865E+02  0.00000000000E+00 0.  1.
</event>
<event>
 7    1  0.3758561E-013  0.7246149E+02  0.7816164E-02  0.1226708E+00
        -11   -1    0    0    0    0  0.00000000000E+00  0.00000000000E+00  0.45593999997E+02  0.45594000000E+02  0.51100000000E-03 0.  1.
         11   -1    0    0    0    0 -0.00000000000E+00 -0.00000000000E+00 -0.45593999997E+02  0.45594000000E+02  0.51100000000E-03 0. -1.
    9900012    2    1    2    0    0 -0.65201075130E+01 -0.88753382562E+01 -0.15145915995E+02  0.72461489314E+02  0.69999894508E+02 0.  0.
        -12    1    1    2    0    0  0.65201075130E+01  0.88753382562E+01  0.15145915995E+02  0.18726510686E+02  0.00000000000E+00 0.  1.
         11    1    3    3    0    0 -0.23642435931E+01 -0.64942778683E+00  0.56326728085E+01  0.61431594027E+01  0.51100000000E-03 0. -1.
        -11    1    3    3    0    0  0.28151430783E+02 -0.50566123633E+01 -0.17870939824E+02  0.33725997008E+02  0.51100000000E-03 0.  1.
         12    1    3    3    0    0 -0.32307294703E+02 -0.31692981060E+01 -0.29076489798E+01  0.32592332903E+02  0.00000000000E+00 0. -1.
</event>
<event>
 7    1  0.3758561E-013  0.7246159E+02  0.7816164E-02  0.1226708E+00
        -11   -1    0    0    0    0  0.00000000000E+00  0.00000000000E+00  0.45593999997E+02  0.45594000000E+02  0.51100000000E-03 0.  1.
         11   -1    0    0    0    0 -0.00000000000E+00 -0.00000000000E+00 -0.45593999997E+02  0.45594000000E+02  0.51100000000E-03 0. -1.
    9900012    2    1    2    0    0  0.49140710837E+01 -0.95856945989E+00 -0.18044713005E+02  0.72461585035E+02  0.70000019202E+02 0.  0.
        -12    1    1    2    0    0 -0.49140710837E+01  0.95856945989E+00  0.18044713005E+02  0.18726414965E+02  0.00000000000E+00 0.  1.
         11    1    3    3    0    0  0.12118372530E+02 -0.26414219561E+02 -0.14860193376E+02  0.32640332339E+02  0.51100000000E-03 0. -1.
        -11    1    3    3    0    0  0.67815499373E+01 -0.30524050110E+01  0.18679883687E+01  0.76678534617E+01  0.51100000000E-03 0.  1.
        -12    1    3    3    0    0 -0.13985851384E+02  0.28508055112E+02 -0.50525079978E+01  0.32153399234E+02  0.00000000000E+00 0.  1.
</event>
<event>
 7    1  0.3758561E-013  0.7246163E+02  0.7816164E-02  0.1226708E+00
        -11   -1    0    0    0    0  0.00000000000E+00  0.00000000000E+00  0.45593999997E+02  0.45594000000E+02  0.51100000000E-03 0.  1.
         11   -1    0    0    0    0 -0.00000000000E+00 -0.00000000000E+00 -0.45593999997E+02  0.45594000000E+02  0.51100000000E-03 0. -1.
    9900012    2    1    2    0    0  0.62750571399E+01 -0.17592909779E+02 -0.13379342767E+01  0.72461631299E+02  0.70000079470E+02 0.  0.
        -12    1    1    2    0    0 -0.62750571399E+01  0.17592909779E+02  0.13379342767E+01  0.18726368701E+02  0.00000000000E+00 0.  1.
         11    1    3    3    0    0  0.21978106271E+02 -0.14368812974E+01 -0.58662455183E+01  0.22792863354E+02  0.51100000000E-03 0. -1.
        -11    1    3    3    0    0 -0.22939094167E+02  0.26436277948E+01 -0.96593219052E+01  0.25029848363E+02  0.51100000000E-03 0.  1.
         12    1    3    3    0    0  0.72360450363E+01 -0.18799656276E+02  0.14187633147E+02  0.24638919582E+02  0.00000000000E+00 0. -1.
</event>
<event>
 7    1  0.3758561E-013  0.7246138E+02  0.7816164E-02  0.1226709E+00
        -11   -1    0    0    0    0  0.00000000000E+00  0.00000000000E+00  0.45593999997E+02  0.45594000000E+02  0.51100000000E-03 0. -1.
         11   -1    0    0    0    0 -0.00000000000E+00 -0.00000000000E+00 -0.45593999997E+02  0.45594000000E+02  0.51100000000E-03 0.  1.
    9900012    2    1    2    0    0 -0.13174809067E+02  0.74857154052E+01  0.11003390611E+02  0.72461384341E+02  0.69999757761E+02 0.  0.
        -12    1    1    2    0    0  0.13174809067E+02 -0.74857154052E+01 -0.11003390611E+02  0.18726615659E+02  0.00000000000E+00 0.  1.
         11    1    3    3    0    0 -0.29813918890E+01  0.30216481318E+02  0.18068016559E+02  0.35332388307E+02  0.51100000000E-03 0. -1.
        -11    1    3    3    0    0 -0.74210774549E+01  0.82515256499E+00  0.64182037876E+01  0.98461468335E+01  0.51100000000E-03 0.  1.
        -12    1    3    3    0    0 -0.27723397229E+01 -0.23555918478E+02 -0.13482829735E+02  0.27282849201E+02  0.00000000000E+00 0.  1.
</event>
<event>
 7    1  0.3758561E-013  0.7246153E+02  0.7816164E-02  0.1226708E+00
        -11   -1    0    0    0    0  0.00000000000E+00  0.00000000000E+00  0.45593999997E+02  0.45594000000E+02  0.51100000000E-03 0. -1.
         11   -1    0    0    0    0 -0.00000000000E+00 -0.00000000000E+00 -0.45593999997E+02  0.45594000000E+02  0.51100000000E-03 0.  1.
    9900012    2    1    2    0    0 -0.11658002520E-01 -0.36441886866E+01  0.18368462585E+02  0.72461530369E+02  0.69999947990E+02 0.  0.
        -12    1    1    2    0    0  0.11658002520E-01  0.36441886866E+01 -0.18368462585E+02  0.18726469631E+02  0.00000000000E+00 0.  1.
         11    1    3    3    0    0  0.25663805533E+02  0.70890268701E+01 -0.55375825068E+01  0.27194669270E+02  0.51100000000E-03 0. -1.
        -11    1    3    3    0    0 -0.61448599388E+01 -0.15444847424E+02  0.17601928101E+02  0.24210131944E+02  0.51100000000E-03 0.  1.
        -12    1    3    3    0    0 -0.19530603597E+02  0.47116318669E+01  0.63041169905E+01  0.21056729156E+02  0.00000000000E+00 0.  1.
</event>
<event>
 7    1  0.3758561E-013  0.7246158E+02  0.7816164E-02  0.1226708E+00
        -11   -1    0    0    0    0  0.00000000000E+00  0.00000000000E+00  0.45593999997E+02  0.45594000000E+02  0.51100000000E-03 0. -1.
         11   -1    0    0    0    0 -0.00000000000E+00 -0.00000000000E+00 -0.45593999997E+02  0.45594000000E+02  0.51100000000E-03 0.  1.
    9900012    2    1    2    0    0  0.17803851501E+02  0.56620088036E+01  0.12819120859E+01  0.72461580947E+02  0.70000013877E+02 0.  0.
        -12    1    1    2    0    0 -0.17803851501E+02 -0.56620088036E+01 -0.12819120859E+01  0.18726419053E+02  0.00000000000E+00 0.  1.
         11    1    3    3    0    0  0.22252229564E+01  0.81348582352E-01  0.64488535851E+01  0.68224590596E+01  0.51100000000E-03 0. -1.
        -11    1    3    3    0    0 -0.41264868515E+01  0.30991809849E+02 -0.10628425507E+02  0.33022471144E+02  0.51100000000E-03 0.  1.
         12    1    3    3    0    0  0.19705115396E+02 -0.25411149627E+02  0.54614840074E+01  0.32616650743E+02  0.00000000000E+00 0. -1.
</event>
<event>
 7    1  0.3758561E-013  0.7246157E+02  0.7816164E-02  0.1226708E+00
        -11   -1    0    0    0    0  0.00000000000E+00  0.00000000000E+00  0.45593999997E+02  0.45594000000E+02  0.51100000000E-03 0.  1.
         11   -1    0    0    0    0 -0.00000000000E+00 -0.00000000000E+00 -0.45593999997E+02  0.45594000000E+02  0.51100000000E-03 0. -1.
    9900012    2    1    2    0    0 -0.98507891473E+00  0.12174799728E+02 -0.14194473948E+02  0.72461568958E+02  0.69999998260E+02 0.  0.
        -12    1    1    2    0    0  0.98507891473E+00 -0.12174799728E+02  0.14194473948E+02  0.18726431042E+02  0.00000000000E+00 0.  1.
         11    1    3    3    0    0  0.16496922927E+01  0.46620575089E+01 -0.18800170714E+02  0.19439719237E+02  0.51100000000E-03 0. -1.
        -11    1    3    3    0    0  0.14289944975E+02  0.17767211713E+02 -0.13247318298E+02  0.26369827109E+02  0.51100000000E-03 0.  1.
         12    1    3    3    0    0 -0.16924716183E+02 -0.10254469493E+02  0.17853015064E+02  0.26652022612E+02  0.00000000000E+00 0. -1.
</event>
<event>
 7    1  0.3758561E-013  0.7246156E+02  0.7816164E-02  0.1226708E+00
        -11   -1    0    0    0    0  0.00000000000E+00  0.00000000000E+00  0.45593999997E+02  0.45594000000E+02  0.51100000000E-03 0. -1.
         11   -1    0    0    0    0 -0.00000000000E+00 -0.00000000000E+00 -0.45593999997E+02  0.45594000000E+02  0.51100000000E-03 0.  1.
    9900012    2    1    2    0    0 -0.87216558507E+01 -0.15980564551E+02  0.43856529988E+01  0.72461556761E+02  0.69999982371E+02 0.  0.
        -12    1    1    2    0    0  0.87216558507E+01  0.15980564551E+02 -0.43856529988E+01  0.18726443239E+02  0.00000000000E+00 0.  1.
         11    1    3    3    0    0 -0.12277777191E+02  0.12668666924E+02 -0.69883591382E+00  0.17655800924E+02  0.51100000000E-03 0. -1.
        -11    1    3    3    0    0  0.45556663254E+01  0.12544764380E+02  0.65804501509E+00  0.13362568336E+02  0.51100000000E-03 0.  1.
        -12    1    3    3    0    0 -0.99954498477E+00 -0.41193995855E+02  0.44264438975E+01  0.41443187501E+02  0.00000000000E+00 0.  1.
</event>
