<event>
 7    1  0.1541902E-008  0.4614232E+02  0.7816164E-02  0.1320468E+00
        -11   -1    0    0    0    0  0.00000000000E+00  0.00000000000E+00  0.45593999997E+02  0.45594000000E+02  0.51100000000E-03 0. -1.
         11   -1    0    0    0    0 -0.00000000000E+00 -0.00000000000E+00 -0.45593999997E+02  0.45594000000E+02  0.51100000000E-03 0.  1.
    9900012    2    1    2    0    0 -0.30981931026E+02 -0.24289364712E+02  0.21892010071E+02  0.46142318818E+02  0.10000009640E+02 0.  0.
         12    1    1    2    0    0  0.30981931026E+02  0.24289364712E+02 -0.21892010071E+02  0.45045681182E+02  0.00000000000E+00 0. -1.
         11    1    3    3    0    0 -0.79551596531E+01 -0.79080529214E+01  0.28750800331E+01  0.11579635209E+02  0.51100000000E-03 0. -1.
        -11    1    3    3    0    0 -0.22543110370E+02 -0.16094992390E+02  0.17070637966E+02  0.32536860420E+02  0.51100000000E-03 0.  1.
        -12    1    3    3    0    0 -0.48366100290E+00 -0.28631940010E+00  0.19462920716E+01  0.20258231888E+01  0.00000000000E+00 0.  1.
</event>
<event>
 7    1  0.1541902E-008  0.4614232E+02  0.7816164E-02  0.1320468E+00
        -11   -1    0    0    0    0  0.00000000000E+00  0.00000000000E+00  0.45593999997E+02  0.45594000000E+02  0.51100000000E-03 0. -1.
         11   -1    0    0    0    0 -0.00000000000E+00 -0.00000000000E+00 -0.45593999997E+02  0.45594000000E+02  0.51100000000E-03 0.  1.
    9900012    2    1    2    0    0 -0.40120738644E+01 -0.25913173906E+02 -0.36626823274E+02  0.46142317613E+02  0.99999986525E+01 0.  0.
         12    1    1    2    0    0  0.40120738644E+01  0.25913173906E+02  0.36626823274E+02  0.45045682387E+02  0.00000000000E+00 0. -1.
         11    1    3    3    0    0 -0.90242073858E+00  0.70040013497E+00 -0.87844177665E+00  0.14410356535E+01  0.51100000000E-03 0. -1.
        -11    1    3    3    0    0 -0.10900124209E+01 -0.15720299313E+02 -0.20836132389E+02  0.26123942098E+02  0.51100000000E-03 0.  1.
         12    1    3    3    0    0 -0.20196407049E+01 -0.10893274728E+02 -0.14912249108E+02  0.18577339861E+02  0.00000000000E+00 0. -1.
</event>
<event>
 7    1  0.1541902E-008  0.4614232E+02  0.7816164E-02  0.1320468E+00
        -11   -1    0    0    0    0  0.00000000000E+00  0.00000000000E+00  0.45593999997E+02  0.45594000000E+02  0.51100000000E-03 0.  1.
         11   -1    0    0    0    0 -0.00000000000E+00 -0.00000000000E+00 -0.45593999997E+02  0.45594000000E+02  0.51100000000E-03 0. -1.
    9900012    2    1    2    0    0 -0.16885730208E+02 -0.44371514636E+01  0.41524658892E+02  0.46142317700E+02  0.99999994456E+01 0.  0.
         12    1    1    2    0    0  0.16885730208E+02  0.44371514636E+01 -0.41524658892E+02  0.45045682300E+02  0.00000000000E+00 0. -1.
         11    1    3    3    0    0 -0.53453351943E+01 -0.62214722384E+01  0.17124417418E+02  0.18987495814E+02  0.51100000000E-03 0. -1.
        -11    1    3    3    0    0 -0.85258125818E+01  0.43335147706E+00  0.16142330752E+02  0.18260671293E+02  0.51100000000E-03 0.  1.
         12    1    3    3    0    0 -0.30145824314E+01  0.13509692977E+01  0.82579107221E+01  0.88941505931E+01  0.00000000000E+00 0. -1.
</event>
<event>
 7    1  0.1541902E-008  0.4614232E+02  0.7816164E-02  0.1320468E+00
        -11   -1    0    0    0    0  0.00000000000E+00  0.00000000000E+00  0.45593999997E+02  0.45594000000E+02  0.51100000000E-03 0.  1.
         11   -1    0    0    0    0 -0.00000000000E+00 -0.00000000000E+00 -0.45593999997E+02  0.45594000000E+02  0.51100000000E-03 0. -1.
    9900012    2    1    2    0    0  0.11205111236E+02 -0.19501914635E+02  0.39028634212E+02  0.46142317846E+02  0.10000000778E+02 0.  0.
         12    1    1    2    0    0 -0.11205111236E+02  0.19501914635E+02 -0.39028634212E+02  0.45045682154E+02  0.00000000000E+00 0. -1.
         11    1    3    3    0    0  0.38219086699E+01 -0.67056555800E+01  0.18953202368E+02  0.20464522543E+02  0.51100000000E-03 0. -1.
        -11    1    3    3    0    0  0.37340823233E+00 -0.56551484559E+01  0.98932917538E+01  0.11401638468E+02  0.51100000000E-03 0.  1.
         12    1    3    3    0    0  0.70097943337E+01 -0.71411105988E+01  0.10182140090E+02  0.14276156836E+02  0.00000000000E+00 0. -1.
</event>
<event>
 7    1  0.1541902E-008  0.4614232E+02  0.7816164E-02  0.1320468E+00
        -11   -1    0    0    0    0  0.00000000000E+00  0.00000000000E+00  0.45593999997E+02  0.45594000000E+02  0.51100000000E-03 0.  1.
         11   -1    0    0    0    0 -0.00000000000E+00 -0.00000000000E+00 -0.45593999997E+02  0.45594000000E+02  0.51100000000E-03 0. -1.
    9900012    2    1    2    0    0 -0.15814215466E+01 -0.34015951793E+02  0.29487753351E+02  0.46142317986E+02  0.10000002046E+02 0.  0.
         12    1    1    2    0    0  0.15814215466E+01  0.34015951793E+02 -0.29487753351E+02  0.45045682014E+02  0.00000000000E+00 0. -1.
         11    1    3    3    0    0 -0.44261523438E-01  0.75658581488E-01  0.65327500394E+00  0.65912957399E+00  0.51100000000E-03 0. -1.
        -11    1    3    3    0    0 -0.29693531170E+01 -0.26857228279E+02  0.18341806544E+02  0.32658071534E+02  0.51100000000E-03 0.  1.
        -12    1    3    3    0    0  0.14321930938E+01 -0.72343820951E+01  0.10492671803E+02  0.12825116877E+02  0.00000000000E+00 0.  1.
</event>
<event>
 7    1  0.1541902E-008  0.4614232E+02  0.7816164E-02  0.1320468E+00
        -11   -1    0    0    0    0  0.00000000000E+00  0.00000000000E+00  0.45593999997E+02  0.45594000000E+02  0.51100000000E-03 0.  1.
         11   -1    0    0    0    0 -0.00000000000E+00 -0.00000000000E+00 -0.45593999997E+02  0.45594000000E+02  0.51100000000E-03 0. -1.
    9900012    2    1    2    0    0  0.39873223277E+02 -0.10224857024E+02  0.18294588213E+02  0.46142316593E+02  0.99999893508E+01 0.  0.
         12    1    1    2    0    0 -0.39873223277E+02  0.10224857024E+02 -0.18294588213E+02  0.45045683407E+02  0.00000000000E+00 0. -1.
         11    1    3    3    0    0  0.85209965164E+01 -0.28861489039E+01  0.73378264079E+01  0.11609519102E+02  0.51100000000E-03 0. -1.
        -11    1    3    3    0    0  0.19967049340E+02 -0.28662098308E+01  0.92163576288E+01  0.22177454009E+02  0.51100000000E-03 0.  1.
        -12    1    3    3    0    0  0.11385177422E+02 -0.44724982888E+01  0.17404041766E+01  0.12355343482E+02  0.00000000000E+00 0.  1.
</event>
<event>
 7    1  0.1541902E-008  0.4614232E+02  0.7816164E-02  0.1320468E+00
        -11   -1    0    0    0    0  0.00000000000E+00  0.00000000000E+00  0.45593999997E+02  0.45594000000E+02  0.51100000000E-03 0.  1.
         11   -1    0    0    0    0 -0.00000000000E+00 -0.00000000000E+00 -0.45593999997E+02  0.45594000000E+02  0.51100000000E-03 0. -1.
    9900012    2    1    2    0    0 -0.16262273137E+02 -0.74981371571E+00  0.42001066870E+02  0.46142319115E+02  0.10000012346E+02 0.  0.
         12    1    1    2    0    0  0.16262273137E+02  0.74981371571E+00 -0.42001066870E+02  0.45045680885E+02  0.00000000000E+00 0. -1.
         11    1    3    3    0    0 -0.34056131825E+00 -0.10266547537E+01  0.41878808166E+01  0.43253147850E+01  0.51100000000E-03 0. -1.
        -11    1    3    3    0    0 -0.10888496945E+02 -0.28874324600E+01  0.19017218200E+02  0.22103194798E+02  0.51100000000E-03 0.  1.
        -12    1    3    3    0    0 -0.50332148730E+01  0.31642734980E+01  0.18795967853E+02  0.19713809532E+02  0.00000000000E+00 0.  1.
</event>
<event>
 7    1  0.1541902E-008  0.4614232E+02  0.7816164E-02  0.1320468E+00
        -11   -1    0    0    0    0  0.00000000000E+00  0.00000000000E+00  0.45593999997E+02  0.45594000000E+02  0.51100000000E-03 0.  1.
         11   -1    0    0    0    0 -0.00000000000E+00 -0.00000000000E+00 -0.45593999997E+02  0.45594000000E+02  0.51100000000E-03 0. -1.
    9900012    2    1    2    0    0  0.14562745826E+01  0.11798187410E+02  0.43448771220E+02  0.46142315607E+02  0.99999803605E+01 0.  0.
         12    1    1    2    0    0 -0.14562745826E+01 -0.11798187410E+02 -0.43448771220E+02  0.45045684393E+02  0.00000000000E+00 0. -1.
         11    1    3    3    0    0  0.15906728715E+01 -0.11427339877E+01  0.82685471493E+01  0.84973497852E+01  0.51100000000E-03 0. -1.
        -11    1    3    3    0    0 -0.94851329042E+00  0.10126248678E+02  0.30201655638E+02  0.31868175243E+02  0.51100000000E-03 0.  1.
         12    1    3    3    0    0  0.81411500144E+00  0.28146727201E+01  0.49785684328E+01  0.57767905793E+01  0.00000000000E+00 0. -1.
</event>
<event>
 7    1  0.1541902E-008  0.4614232E+02  0.7816164E-02  0.1320468E+00
        -11   -1    0    0    0    0  0.00000000000E+00  0.00000000000E+00  0.45593999997E+02  0.45594000000E+02  0.51100000000E-03 0.  1.
         11   -1    0    0    0    0 -0.00000000000E+00 -0.00000000000E+00 -0.45593999997E+02  0.45594000000E+02  0.51100000000E-03 0. -1.
    9900012    2    1    2    0    0 -0.19263435109E+02 -0.18812793231E+02  0.36112495541E+02  0.46142318125E+02  0.10000003321E+02 0.  0.
         12    1    1    2    0    0  0.19263435109E+02  0.18812793231E+02 -0.36112495541E+02  0.45045681875E+02  0.00000000000E+00 0. -1.
         11    1    3    3    0    0 -0.11179458474E+02 -0.11515407931E+02  0.28968234976E+02  0.33117118677E+02  0.51100000000E-03 0. -1.
        -11    1    3    3    0    0 -0.64079248449E+01 -0.58423960412E+01  0.56700458221E+01  0.10360719676E+02  0.51100000000E-03 0.  1.
         12    1    3    3    0    0 -0.16760517906E+01 -0.14549892588E+01  0.14742147427E+01  0.26644797721E+01  0.00000000000E+00 0. -1.
</event>
<event>
 7    1  0.1541902E-008  0.4614232E+02  0.7816164E-02  0.1320468E+00
        -11   -1    0    0    0    0  0.00000000000E+00  0.00000000000E+00  0.45593999997E+02  0.45594000000E+02  0.51100000000E-03 0. -1.
         11   -1    0    0    0    0 -0.00000000000E+00 -0.00000000000E+00 -0.45593999997E+02  0.45594000000E+02  0.51100000000E-03 0.  1.
    9900012    2    1    2    0    0  0.36462415274E+02 -0.27446891431E+01 -0.26307269165E+02  0.46142318109E+02  0.10000003175E+02 0.  0.
         12    1    1    2    0    0 -0.36462415274E+02  0.27446891431E+01  0.26307269165E+02  0.45045681891E+02  0.00000000000E+00 0. -1.
         11    1    3    3    0    0 -0.27720640235E+00 -0.42638878393E+00  0.64850957654E-02  0.50861881812E+00  0.51100000000E-03 0. -1.
        -11    1    3    3    0    0  0.22013842565E+02 -0.35393427193E+01 -0.13426495804E+02  0.26027043651E+02  0.51100000000E-03 0.  1.
         12    1    3    3    0    0  0.14725779111E+02  0.12210423601E+01 -0.12887258457E+02  0.19606655640E+02  0.00000000000E+00 0. -1.
</event>
<event>
 7    1  0.1541902E-008  0.4614232E+02  0.7816164E-02  0.1320468E+00
        -11   -1    0    0    0    0  0.00000000000E+00  0.00000000000E+00  0.45593999997E+02  0.45594000000E+02  0.51100000000E-03 0.  1.
         11   -1    0    0    0    0 -0.00000000000E+00 -0.00000000000E+00 -0.45593999997E+02  0.45594000000E+02  0.51100000000E-03 0. -1.
    9900012    2    1    2    0    0  0.39149918142E+02 -0.22247338686E+02 -0.12055219586E+01  0.46142318161E+02  0.10000003648E+02 0.  0.
         12    1    1    2    0    0 -0.39149918142E+02  0.22247338686E+02  0.12055219586E+01  0.45045681839E+02  0.00000000000E+00 0. -1.
         11    1    3    3    0    0  0.17604862502E+02 -0.13427510928E+02 -0.11316556396E+00  0.22141410076E+02  0.51100000000E-03 0. -1.
        -11    1    3    3    0    0  0.17069890371E+02 -0.87200637511E+01 -0.24478754029E+01  0.19323890999E+02  0.51100000000E-03 0.  1.
         12    1    3    3    0    0  0.44751652694E+01 -0.99764006836E-01  0.13555190083E+01  0.46770170865E+01  0.00000000000E+00 0. -1.
</event>
<event>
 7    1  0.1541902E-008  0.4614233E+02  0.7816164E-02  0.1320468E+00
        -11   -1    0    0    0    0  0.00000000000E+00  0.00000000000E+00  0.45593999997E+02  0.45594000000E+02  0.51100000000E-03 0.  1.
         11   -1    0    0    0    0 -0.00000000000E+00 -0.00000000000E+00 -0.45593999997E+02  0.45594000000E+02  0.51100000000E-03 0. -1.
    9900012    2    1    2    0    0  0.66001535922E+01  0.20593609187E+02  0.39515228619E+02  0.46142333620E+02  0.10000144611E+02 0.  0.
         12    1    1    2    0    0 -0.66001535922E+01 -0.20593609187E+02 -0.39515228619E+02  0.45045666380E+02  0.00000000000E+00 0. -1.
         11    1    3    3    0    0  0.14669001566E+01  0.12388626309E+02  0.17651530726E+02  0.21614957671E+02  0.51100000000E-03 0. -1.
        -11    1    3    3    0    0  0.31665537928E+01  0.84173288474E+01  0.16209848527E+02  0.18537466854E+02  0.51100000000E-03 0.  1.
         12    1    3    3    0    0  0.19666996428E+01 -0.21234596986E+00  0.56538493667E+01  0.59899090943E+01  0.00000000000E+00 0. -1.
</event>
<event>
 7    1  0.1541902E-008  0.4614232E+02  0.7816164E-02  0.1320468E+00
        -11   -1    0    0    0    0  0.00000000000E+00  0.00000000000E+00  0.45593999997E+02  0.45594000000E+02  0.51100000000E-03 0.  1.
         11   -1    0    0    0    0 -0.00000000000E+00 -0.00000000000E+00 -0.45593999997E+02  0.45594000000E+02  0.51100000000E-03 0. -1.
    9900012    2    1    2    0    0 -0.19189631068E+02 -0.28996067669E+02  0.28637381928E+02  0.46142317360E+02  0.99999963444E+01 0.  0.
         12    1    1    2    0    0  0.19189631068E+02  0.28996067669E+02 -0.28637381928E+02  0.45045682640E+02  0.00000000000E+00 0. -1.
         11    1    3    3    0    0 -0.39533688341E+01 -0.11705097894E+02  0.82287190620E+01  0.14844199524E+02  0.51100000000E-03 0. -1.
        -11    1    3    3    0    0 -0.88958582023E+01 -0.12392363760E+02  0.10332466664E+02  0.18424625921E+02  0.51100000000E-03 0.  1.
         12    1    3    3    0    0 -0.63404040315E+01 -0.48986060143E+01  0.10076196202E+02  0.12873491914E+02  0.00000000000E+00 0. -1.
</event>
<event>
 7    1  0.1541902E-008  0.4614231E+02  0.7816164E-02  0.1320468E+00
        -11   -1    0    0    0    0  0.00000000000E+00  0.00000000000E+00  0.45593999997E+02  0.45594000000E+02  0.51100000000E-03 0.  1.
         11   -1    0    0    0    0 -0.00000000000E+00 -0.00000000000E+00 -0.45593999997E+02  0.45594000000E+02  0.51100000000E-03 0. -1.
    9900012    2    1    2    0    0 -0.56681820869E+01 -0.39163845397E+02  0.21521591898E+02  0.46142312168E+02  0.99999489963E+01 0.  0.
         12    1    1    2    0    0  0.56681820869E+01  0.39163845397E+02 -0.21521591898E+02  0.45045687832E+02  0.00000000000E+00 0. -1.
         11    1    3    3    0    0 -0.37317340983E+01 -0.43605741622E+01  0.35865476014E+01  0.67678482816E+01  0.51100000000E-03 0. -1.
        -11    1    3    3    0    0 -0.94769028772E+00 -0.13063446677E+02  0.47665833616E+01  0.13938151713E+02  0.51100000000E-03 0.  1.
        -12    1    3    3    0    0 -0.98875770088E+00 -0.21739824558E+02  0.13168460935E+02  0.25436312174E+02  0.00000000000E+00 0.  1.
</event>
<event>
 7    1  0.1541902E-008  0.4614232E+02  0.7816164E-02  0.1320468E+00
        -11   -1    0    0    0    0  0.00000000000E+00  0.00000000000E+00  0.45593999997E+02  0.45594000000E+02  0.51100000000E-03 0.  1.
         11   -1    0    0    0    0 -0.00000000000E+00 -0.00000000000E+00 -0.45593999997E+02  0.45594000000E+02  0.51100000000E-03 0. -1.
    9900012    2    1    2    0    0  0.12665738641E+02  0.22928474374E+01  0.43167526692E+02  0.46142318238E+02  0.10000004353E+02 0.  0.
         12    1    1    2    0    0 -0.12665738641E+02 -0.22928474374E+01 -0.43167526692E+02  0.45045681762E+02  0.00000000000E+00 0. -1.
         11    1    3    3    0    0  0.34496526369E+00  0.10389108773E+00  0.21194046239E+01  0.21498071104E+01  0.51100000000E-03 0. -1.
        -11    1    3    3    0    0 -0.26828478928E+00  0.16655055553E+01  0.14591953732E+02  0.14689145635E+02  0.51100000000E-03 0.  1.
         12    1    3    3    0    0  0.12589058167E+02  0.52345079435E+00  0.26456168335E+02  0.29303365493E+02  0.00000000000E+00 0. -1.
</event>
<event>
 7    1  0.1541902E-008  0.4614232E+02  0.7816164E-02  0.1320468E+00
        -11   -1    0    0    0    0  0.00000000000E+00  0.00000000000E+00  0.45593999997E+02  0.45594000000E+02  0.51100000000E-03 0.  1.
         11   -1    0    0    0    0 -0.00000000000E+00 -0.00000000000E+00 -0.45593999997E+02  0.45594000000E+02  0.51100000000E-03 0. -1.
    9900012    2    1    2    0    0 -0.27705634162E+02  0.26141094909E+02  0.24044845306E+02  0.46142316598E+02  0.99999893910E+01 0.  0.
         12    1    1    2    0    0  0.27705634162E+02 -0.26141094909E+02 -0.24044845306E+02  0.45045683402E+02  0.00000000000E+00 0. -1.
         11    1    3    3    0    0 -0.16959340388E+00  0.15778660714E+01 -0.42887495058E+00  0.16438848032E+01  0.51100000000E-03 0. -1.
        -11    1    3    3    0    0 -0.18314047198E+02  0.19019644982E+02  0.17457638479E+02  0.31653125621E+02  0.51100000000E-03 0.  1.
         12    1    3    3    0    0 -0.92219935603E+01  0.55435838553E+01  0.70160817777E+01  0.12845306174E+02  0.00000000000E+00 0. -1.
</event>
<event>
 7    1  0.1541902E-008  0.4614232E+02  0.7816164E-02  0.1320468E+00
        -11   -1    0    0    0    0  0.00000000000E+00  0.00000000000E+00  0.45593999997E+02  0.45594000000E+02  0.51100000000E-03 0.  1.
         11   -1    0    0    0    0 -0.00000000000E+00 -0.00000000000E+00 -0.45593999997E+02  0.45594000000E+02  0.51100000000E-03 0. -1.
    9900012    2    1    2    0    0 -0.19558444520E+02 -0.40783990537E+01  0.40372604442E+02  0.46142320071E+02  0.10000021063E+02 0.  0.
         12    1    1    2    0    0  0.19558444520E+02  0.40783990537E+01 -0.40372604442E+02  0.45045679929E+02  0.00000000000E+00 0. -1.
         11    1    3    3    0    0 -0.39547882394E+01  0.17210854951E+01  0.10395174633E+02  0.11254427627E+02  0.51100000000E-03 0. -1.
        -11    1    3    3    0    0 -0.13532883669E+02 -0.51273540801E+01  0.29176096924E+02  0.32567980168E+02  0.51100000000E-03 0.  1.
         12    1    3    3    0    0 -0.20707726120E+01 -0.67213046877E+00  0.80133288521E+00  0.23199122765E+01  0.00000000000E+00 0. -1.
</event>
<event>
 7    1  0.1541902E-008  0.4614232E+02  0.7816164E-02  0.1320468E+00
        -11   -1    0    0    0    0  0.00000000000E+00  0.00000000000E+00  0.45593999997E+02  0.45594000000E+02  0.51100000000E-03 0. -1.
         11   -1    0    0    0    0 -0.00000000000E+00 -0.00000000000E+00 -0.45593999997E+02  0.45594000000E+02  0.51100000000E-03 0.  1.
    9900012    2    1    2    0    0 -0.89448569845E+01 -0.14476287998E+02 -0.41707794749E+02  0.46142317371E+02  0.99999964447E+01 0.  0.
         12    1    1    2    0    0  0.89448569845E+01  0.14476287998E+02  0.41707794749E+02  0.45045682629E+02  0.00000000000E+00 0. -1.
         11    1    3    3    0    0 -0.60755239175E+01 -0.46178098914E+01 -0.13788782356E+02  0.15759653492E+02  0.51100000000E-03 0. -1.
        -11    1    3    3    0    0 -0.36648291824E+01 -0.55901565404E+01 -0.22308170675E+02  0.23288093572E+02  0.51100000000E-03 0.  1.
        -12    1    3    3    0    0  0.79549611538E+00 -0.42683215666E+01 -0.56108417176E+01  0.70945703073E+01  0.00000000000E+00 0.  1.
</event>
<event>
 7    1  0.1541902E-008  0.4614232E+02  0.7816164E-02  0.1320468E+00
        -11   -1    0    0    0    0  0.00000000000E+00  0.00000000000E+00  0.45593999997E+02  0.45594000000E+02  0.51100000000E-03 0.  1.
         11   -1    0    0    0    0 -0.00000000000E+00 -0.00000000000E+00 -0.45593999997E+02  0.45594000000E+02  0.51100000000E-03 0. -1.
    9900012    2    1    2    0    0 -0.41703815592E+02  0.16710916631E+02  0.32635261669E+01  0.46142316826E+02  0.99999914700E+01 0.  0.
         12    1    1    2    0    0  0.41703815592E+02 -0.16710916631E+02 -0.32635261669E+01  0.45045683174E+02  0.00000000000E+00 0. -1.
         11    1    3    3    0    0 -0.28620341114E+02  0.67804282767E+01  0.77074221714E+00  0.29422647347E+02  0.51100000000E-03 0. -1.
        -11    1    3    3    0    0 -0.66139702446E+01  0.57661350707E+01  0.20626756055E+01  0.90137421177E+01  0.51100000000E-03 0.  1.
         12    1    3    3    0    0 -0.64695042334E+01  0.41643532837E+01  0.43010834434E+00  0.77059273605E+01  0.00000000000E+00 0. -1.
</event>
<event>
 7    1  0.1541902E-008  0.4614232E+02  0.7816164E-02  0.1320468E+00
        -11   -1    0    0    0    0  0.00000000000E+00  0.00000000000E+00  0.45593999997E+02  0.45594000000E+02  0.51100000000E-03 0.  1.
         11   -1    0    0    0    0 -0.00000000000E+00 -0.00000000000E+00 -0.45593999997E+02  0.45594000000E+02  0.51100000000E-03 0. -1.
    9900012    2    1    2    0    0 -0.31771342696E+02 -0.10713626888E+01  0.31914690476E+02  0.46142317600E+02  0.99999985298E+01 0.  0.
         12    1    1    2    0    0  0.31771342696E+02  0.10713626888E+01 -0.31914690476E+02  0.45045682400E+02  0.00000000000E+00 0. -1.
         11    1    3    3    0    0 -0.14972306564E+01  0.76589171685E+00  0.30042551125E+00  0.17083751080E+01  0.51100000000E-03 0. -1.
        -11    1    3    3    0    0 -0.71704233405E+01  0.20515606461E+01  0.10605532136E+02  0.12965384071E+02  0.51100000000E-03 0.  1.
        -12    1    3    3    0    0 -0.23103688699E+02 -0.38888150518E+01  0.21008732829E+02  0.31468558421E+02  0.00000000000E+00 0.  1.
</event>
<event>
 7    1  0.1541902E-008  0.4614232E+02  0.7816164E-02  0.1320468E+00
        -11   -1    0    0    0    0  0.00000000000E+00  0.00000000000E+00  0.45593999997E+02  0.45594000000E+02  0.51100000000E-03 0.  1.
         11   -1    0    0    0    0 -0.00000000000E+00 -0.00000000000E+00 -0.45593999997E+02  0.45594000000E+02  0.51100000000E-03 0. -1.
    9900012    2    1    2    0    0 -0.28826977849E+02  0.35580959121E+01  0.34430491527E+02  0.46142318240E+02  0.10000004368E+02 0.  0.
         12    1    1    2    0    0  0.28826977849E+02 -0.35580959121E+01 -0.34430491527E+02  0.45045681760E+02  0.00000000000E+00 0. -1.
         11    1    3    3    0    0 -0.14885575434E+02  0.75706825725E+00  0.10805604459E+02  0.18409633248E+02  0.51100000000E-03 0. -1.
        -11    1    3    3    0    0 -0.88388444878E+01  0.14000258506E+01  0.17370746922E+02  0.19540422031E+02  0.51100000000E-03 0.  1.
         12    1    3    3    0    0 -0.51025579274E+01  0.14010018043E+01  0.62541401458E+01  0.81922629610E+01  0.00000000000E+00 0. -1.
</event>
<event>
 7    1  0.1541902E-008  0.4614232E+02  0.7816164E-02  0.1320468E+00
        -11   -1    0    0    0    0  0.00000000000E+00  0.00000000000E+00  0.45593999997E+02  0.45594000000E+02  0.51100000000E-03 0.  1.
         11   -1    0    0    0    0 -0.00000000000E+00 -0.00000000000E+00 -0.45593999997E+02  0.45594000000E+02  0.51100000000E-03 0. -1.
    9900012    2    1    2    0    0  0.10453383944E+02 -0.43741282428E+02  0.25574437086E+01  0.46142317158E+02  0.99999945046E+01 0.  0.
         12    1    1    2    0    0 -0.10453383944E+02  0.43741282428E+02 -0.25574437086E+01  0.45045682842E+02  0.00000000000E+00 0. -1.
         11    1    3    3    0    0  0.10060752286E+01 -0.22232716990E+02 -0.56798122994E+00  0.22262715357E+02  0.51100000000E-03 0. -1.
        -11    1    3    3    0    0  0.29668253460E+01 -0.90104272330E+01  0.23864154637E+01  0.97818623269E+01  0.51100000000E-03 0.  1.
         12    1    3    3    0    0  0.64804833692E+01 -0.12498138205E+02  0.73900947480E+00  0.14097739475E+02  0.00000000000E+00 0. -1.
</event>
<event>
 7    1  0.1541902E-008  0.4614232E+02  0.7816164E-02  0.1320468E+00
        -11   -1    0    0    0    0  0.00000000000E+00  0.00000000000E+00  0.45593999997E+02  0.45594000000E+02  0.51100000000E-03 0.  1.
         11   -1    0    0    0    0 -0.00000000000E+00 -0.00000000000E+00 -0.45593999997E+02  0.45594000000E+02  0.51100000000E-03 0. -1.
    9900012    2    1    2    0    0  0.16203119261E+02 -0.25667138090E+02  0.33283185117E+02  0.46142318042E+02  0.10000002562E+02 0.  0.
         12    1    1    2    0    0 -0.16203119261E+02  0.25667138090E+02 -0.33283185117E+02  0.45045681958E+02  0.00000000000E+00 0. -1.
         11    1    3    3    0    0  0.14830253939E+02 -0.18701342869E+02  0.21556947941E+02  0.32161757754E+02  0.51100000000E-03 0. -1.
        -11    1    3    3    0    0  0.12238084130E+01 -0.66882147319E+01  0.92271206908E+01  0.11461661304E+02  0.51100000000E-03 0.  1.
        -12    1    3    3    0    0  0.14905690879E+00 -0.27758048902E+00  0.24991164850E+01  0.25188989848E+01  0.00000000000E+00 0.  1.
</event>
<event>
 7    1  0.1541902E-008  0.4614232E+02  0.7816164E-02  0.1320468E+00
        -11   -1    0    0    0    0  0.00000000000E+00  0.00000000000E+00  0.45593999997E+02  0.45594000000E+02  0.51100000000E-03 0.  1.
         11   -1    0    0    0    0 -0.00000000000E+00 -0.00000000000E+00 -0.45593999997E+02  0.45594000000E+02  0.51100000000E-03 0. -1.
    9900012    2    1    2    0    0  0.22345077205E+02 -0.14812350960E+02  0.36199519255E+02  0.46142318625E+02  0.10000007878E+02 0.  0.
         12    1    1    2    0    0 -0.22345077205E+02  0.14812350960E+02 -0.36199519255E+02  0.45045681375E+02  0.00000000000E+00 0. -1.
         11    1    3    3    0    0  0.15209014299E+02 -0.13436094325E+02  0.25298342050E+02  0.32432219434E+02  0.51100000000E-03 0.  1.
        -11    1    3    3    0    0  0.53248456812E+01 -0.96101924285E+00  0.44779943272E+01  0.70235299508E+01  0.51100000000E-03 0. -1.
        -12    1    3    3    0    0  0.18112172241E+01 -0.41523739168E+00  0.64231828776E+01  0.66865692401E+01  0.00000000000E+00 0.  1.
</event>
<event>
 7    1  0.1541902E-008  0.4614232E+02  0.7816164E-02  0.1320468E+00
        -11   -1    0    0    0    0  0.00000000000E+00  0.00000000000E+00  0.45593999997E+02  0.45594000000E+02  0.51100000000E-03 0.  1.
         11   -1    0    0    0    0 -0.00000000000E+00 -0.00000000000E+00 -0.45593999997E+02  0.45594000000E+02  0.51100000000E-03 0. -1.
    9900012    2    1    2    0    0  0.12126950728E+01  0.27409875572E+02  0.35725918329E+02  0.46142321532E+02  0.10000034387E+02 0.  0.
         12    1    1    2    0    0 -0.12126950728E+01 -0.27409875572E+02 -0.35725918329E+02  0.45045678468E+02  0.00000000000E+00 0. -1.
         11    1    3    3    0    0 -0.10332643633E+01  0.14406290221E+02  0.17679740856E+02  0.22829412392E+02  0.51100000000E-03 0. -1.
        -11    1    3    3    0    0  0.33032172934E+01  0.11203525202E+02  0.17685332325E+02  0.21194367203E+02  0.51100000000E-03 0.  1.
         12    1    3    3    0    0 -0.10572578573E+01  0.18000601495E+01  0.36084514765E+00  0.21185419371E+01  0.00000000000E+00 0. -1.
</event>
<event>
 7    1  0.1541902E-008  0.4614232E+02  0.7816164E-02  0.1320468E+00
        -11   -1    0    0    0    0  0.00000000000E+00  0.00000000000E+00  0.45593999997E+02  0.45594000000E+02  0.51100000000E-03 0. -1.
         11   -1    0    0    0    0 -0.00000000000E+00 -0.00000000000E+00 -0.45593999997E+02  0.45594000000E+02  0.51100000000E-03 0.  1.
    9900012    2    1    2    0    0  0.18638699099E+02  0.13433494470E+02 -0.38746013187E+02  0.46142318569E+02  0.10000007364E+02 0.  0.
         12    1    1    2    0    0 -0.18638699099E+02 -0.13433494470E+02  0.38746013187E+02  0.45045681431E+02  0.00000000000E+00 0. -1.
         11    1    3    3    0    0  0.10809158643E+01  0.34332432711E+01 -0.87579682228E+01  0.94687668741E+01  0.51100000000E-03 0. -1.
        -11    1    3    3    0    0  0.16180629327E+02  0.84337642715E+01 -0.22875032141E+02  0.29261036224E+02  0.51100000000E-03 0.  1.
        -12    1    3    3    0    0  0.13771539073E+01  0.15664869270E+01 -0.71130128229E+01  0.74125154702E+01  0.00000000000E+00 0.  1.
</event>
<event>
 7    1  0.1541902E-008  0.4614232E+02  0.7816164E-02  0.1320468E+00
        -11   -1    0    0    0    0  0.00000000000E+00  0.00000000000E+00  0.45593999997E+02  0.45594000000E+02  0.51100000000E-03 0.  1.
         11   -1    0    0    0    0 -0.00000000000E+00 -0.00000000000E+00 -0.45593999997E+02  0.45594000000E+02  0.51100000000E-03 0. -1.
    9900012    2    1    2    0    0  0.41081574682E+02  0.18147416256E+02  0.34769223634E+01  0.46142317807E+02  0.10000000416E+02 0.  0.
         12    1    1    2    0    0 -0.41081574682E+02 -0.18147416256E+02 -0.34769223634E+01  0.45045682193E+02  0.00000000000E+00 0. -1.
         11    1    3    3    0    0  0.21306185763E+02  0.13508529757E+02  0.99294433406E+00  0.25247175420E+02  0.51100000000E-03 0. -1.
        -11    1    3    3    0    0  0.12792129117E+02  0.42618779300E+01  0.32215677168E+01  0.13862924282E+02  0.51100000000E-03 0.  1.
         12    1    3    3    0    0  0.69832598024E+01  0.37700856894E+00 -0.73758968737E+00  0.70322181050E+01  0.00000000000E+00 0. -1.
</event>
<event>
 7    1  0.1541902E-008  0.4614232E+02  0.7816164E-02  0.1320468E+00
        -11   -1    0    0    0    0  0.00000000000E+00  0.00000000000E+00  0.45593999997E+02  0.45594000000E+02  0.51100000000E-03 0. -1.
         11   -1    0    0    0    0 -0.00000000000E+00 -0.00000000000E+00 -0.45593999997E+02  0.45594000000E+02  0.51100000000E-03 0.  1.
    9900012    2    1    2    0    0 -0.28974397641E+02  0.82427087172E+01 -0.33491125909E+02  0.46142317851E+02  0.10000000820E+02 0.  0.
         12    1    1    2    0    0  0.28974397641E+02 -0.82427087172E+01  0.33491125909E+02  0.45045682149E+02  0.00000000000E+00 0. -1.
         11    1    3    3    0    0 -0.17846594952E+02  0.97440656646E+01 -0.21028883902E+02  0.29251696113E+02  0.51100000000E-03 0. -1.
        -11    1    3    3    0    0 -0.82468271420E+01 -0.88858383948E+00 -0.78638084637E+01  0.11429751658E+02  0.51100000000E-03 0.  1.
         12    1    3    3    0    0 -0.28809755463E+01 -0.61277310794E+00 -0.45984335429E+01  0.54608700798E+01  0.00000000000E+00 0. -1.
</event>
<event>
 7    1  0.1541902E-008  0.4614232E+02  0.7816164E-02  0.1320468E+00
        -11   -1    0    0    0    0  0.00000000000E+00  0.00000000000E+00  0.45593999997E+02  0.45594000000E+02  0.51100000000E-03 0.  1.
         11   -1    0    0    0    0 -0.00000000000E+00 -0.00000000000E+00 -0.45593999997E+02  0.45594000000E+02  0.51100000000E-03 0. -1.
    9900012    2    1    2    0    0 -0.44960300930E+02  0.24669830618E+01  0.12644580388E+01  0.46142317418E+02  0.99999968704E+01 0.  0.
         12    1    1    2    0    0  0.44960300930E+02 -0.24669830618E+01 -0.12644580388E+01  0.45045682582E+02  0.00000000000E+00 0. -1.
         11    1    3    3    0    0 -0.12355313641E+02 -0.27016393369E+01 -0.19894990080E+01  0.12802762860E+02  0.51100000000E-03 0. -1.
        -11    1    3    3    0    0 -0.12453579833E+02  0.18098835044E+01 -0.37671511660E+00  0.12590045413E+02  0.51100000000E-03 0.  1.
         12    1    3    3    0    0 -0.20151407456E+02  0.33587388942E+01  0.36306721635E+01  0.20749509146E+02  0.00000000000E+00 0. -1.
</event>
<event>
 7    1  0.1541902E-008  0.4614232E+02  0.7816164E-02  0.1320468E+00
        -11   -1    0    0    0    0  0.00000000000E+00  0.00000000000E+00  0.45593999997E+02  0.45594000000E+02  0.51100000000E-03 0.  1.
         11   -1    0    0    0    0 -0.00000000000E+00 -0.00000000000E+00 -0.45593999997E+02  0.45594000000E+02  0.51100000000E-03 0. -1.
    9900012    2    1    2    0    0  0.32380182537E+02 -0.11238682796E+02  0.29228912365E+02  0.46142317297E+02  0.99999957680E+01 0.  0.
         12    1    1    2    0    0 -0.32380182537E+02  0.11238682796E+02 -0.29228912365E+02  0.45045682703E+02  0.00000000000E+00 0. -1.
         11    1    3    3    0    0  0.72933998232E+01 -0.56192983603E+01  0.77896180126E+01  0.12060196685E+02  0.51100000000E-03 0. -1.
        -11    1    3    3    0    0  0.13243097461E+02  0.24495291614E+00  0.11580554629E+02  0.17594001195E+02  0.51100000000E-03 0.  1.
         12    1    3    3    0    0  0.11843685253E+02 -0.58643373521E+01  0.98587397237E+01  0.16488119416E+02  0.00000000000E+00 0. -1.
</event>
<event>
 7    1  0.1541902E-008  0.4614232E+02  0.7816164E-02  0.1320468E+00
        -11   -1    0    0    0    0  0.00000000000E+00  0.00000000000E+00  0.45593999997E+02  0.45594000000E+02  0.51100000000E-03 0. -1.
         11   -1    0    0    0    0 -0.00000000000E+00 -0.00000000000E+00 -0.45593999997E+02  0.45594000000E+02  0.51100000000E-03 0.  1.
    9900012    2    1    2    0    0  0.12295467785E+02  0.22522543832E+02 -0.37022561291E+02  0.46142317041E+02  0.99999934314E+01 0.  0.
         12    1    1    2    0    0 -0.12295467785E+02 -0.22522543832E+02  0.37022561291E+02  0.45045682959E+02  0.00000000000E+00 0. -1.
         11    1    3    3    0    0  0.71150003943E+01  0.15450839826E+02 -0.27961862538E+02  0.32729458272E+02  0.51100000000E-03 0. -1.
        -11    1    3    3    0    0  0.11059271249E+01  0.28894028499E+00 -0.36563542205E+01  0.38308599218E+01  0.51100000000E-03 0.  1.
         12    1    3    3    0    0  0.40745402662E+01  0.67827637210E+01 -0.54043445329E+01  0.95819988471E+01  0.00000000000E+00 0. -1.
</event>
<event>
 7    1  0.1541902E-008  0.4614233E+02  0.7816164E-02  0.1320468E+00
        -11   -1    0    0    0    0  0.00000000000E+00  0.00000000000E+00  0.45593999997E+02  0.45594000000E+02  0.51100000000E-03 0. -1.
         11   -1    0    0    0    0 -0.00000000000E+00 -0.00000000000E+00 -0.45593999997E+02  0.45594000000E+02  0.51100000000E-03 0.  1.
    9900012    2    1    2    0    0 -0.40315569467E+02  0.17986080128E+02 -0.89592638541E+01  0.46142327304E+02  0.10000087017E+02 0.  0.
         12    1    1    2    0    0  0.40315569467E+02 -0.17986080128E+02  0.89592638541E+01  0.45045672696E+02  0.00000000000E+00 0. -1.
         11    1    3    3    0    0 -0.59293129365E+01  0.46217141359E+01 -0.46880069752E+01  0.88597067171E+01  0.51100000000E-03 0. -1.
        -11    1    3    3    0    0 -0.34002119678E+02  0.13121020121E+02 -0.38259922743E+01  0.36646193919E+02  0.51100000000E-03 0.  1.
        -12    1    3    3    0    0 -0.38413685262E+00  0.24334587137E+00 -0.44526460467E+00  0.63642666728E+00  0.00000000000E+00 0.  1.
</event>
<event>
 7    1  0.1541902E-008  0.4614232E+02  0.7816164E-02  0.1320468E+00
        -11   -1    0    0    0    0  0.00000000000E+00  0.00000000000E+00  0.45593999997E+02  0.45594000000E+02  0.51100000000E-03 0. -1.
         11   -1    0    0    0    0 -0.00000000000E+00 -0.00000000000E+00 -0.45593999997E+02  0.45594000000E+02  0.51100000000E-03 0.  1.
    9900012    2    1    2    0    0  0.43786738651E+02  0.10226908017E+02 -0.26917166362E+01  0.46142317990E+02  0.10000002088E+02 0.  0.
         12    1    1    2    0    0 -0.43786738651E+02 -0.10226908017E+02  0.26917166362E+01  0.45045682010E+02  0.00000000000E+00 0. -1.
         11    1    3    3    0    0  0.43688917113E+01  0.29558551037E+01 -0.16408260694E+01  0.55241836167E+01  0.51100000000E-03 0. -1.
        -11    1    3    3    0    0  0.35885930655E+02  0.66490555502E+01 -0.28463296144E+01  0.36607534077E+02  0.51100000000E-03 0.  1.
        -12    1    3    3    0    0  0.35319162851E+01  0.62199736303E+00  0.17954390476E+01  0.40106002965E+01  0.00000000000E+00 0.  1.
</event>
<event>
 7    1  0.1541902E-008  0.4614232E+02  0.7816164E-02  0.1320468E+00
        -11   -1    0    0    0    0  0.00000000000E+00  0.00000000000E+00  0.45593999997E+02  0.45594000000E+02  0.51100000000E-03 0.  1.
         11   -1    0    0    0    0 -0.00000000000E+00 -0.00000000000E+00 -0.45593999997E+02  0.45594000000E+02  0.51100000000E-03 0. -1.
    9900012    2    1    2    0    0  0.19743149745E+02 -0.48891020552E+01  0.40192263678E+02  0.46142319404E+02  0.10000014981E+02 0.  0.
         12    1    1    2    0    0 -0.19743149745E+02  0.48891020552E+01 -0.40192263678E+02  0.45045680596E+02  0.00000000000E+00 0. -1.
         11    1    3    3    0    0 -0.59539219650E+00  0.91979898776E+00  0.35502246591E+01  0.37154565583E+01  0.51100000000E-03 0. -1.
        -11    1    3    3    0    0  0.12779472448E+02 -0.51495749104E+01  0.24521295623E+02  0.28126979523E+02  0.51100000000E-03 0.  1.
         12    1    3    3    0    0  0.75590694940E+01 -0.65932613257E+00  0.12120743396E+02  0.14299883323E+02  0.00000000000E+00 0. -1.
</event>
<event>
 7    1  0.1541902E-008  0.4614232E+02  0.7816164E-02  0.1320468E+00
        -11   -1    0    0    0    0  0.00000000000E+00  0.00000000000E+00  0.45593999997E+02  0.45594000000E+02  0.51100000000E-03 0.  1.
         11   -1    0    0    0    0 -0.00000000000E+00 -0.00000000000E+00 -0.45593999997E+02  0.45594000000E+02  0.51100000000E-03 0. -1.
    9900012    2    1    2    0    0 -0.34401495954E+02  0.15877901674E+02  0.24362733611E+02  0.46142317915E+02  0.10000001407E+02 0.  0.
         12    1    1    2    0    0  0.34401495954E+02 -0.15877901674E+02 -0.24362733611E+02  0.45045682085E+02  0.00000000000E+00 0. -1.
         11    1    3    3    0    0 -0.29137274374E+02  0.11093471967E+02  0.21393689421E+02  0.37811847687E+02  0.51100000000E-03 0. -1.
        -11    1    3    3    0    0 -0.41209143849E+01  0.50981569352E+01  0.28176056010E+01  0.71352674153E+01  0.51100000000E-03 0.  1.
        -12    1    3    3    0    0 -0.11433071957E+01 -0.31372722844E+00  0.15143858890E+00  0.11952028128E+01  0.00000000000E+00 0.  1.
</event>
<event>
 7    1  0.1541902E-008  0.4614232E+02  0.7816164E-02  0.1320468E+00
        -11   -1    0    0    0    0  0.00000000000E+00  0.00000000000E+00  0.45593999997E+02  0.45594000000E+02  0.51100000000E-03 0.  1.
         11   -1    0    0    0    0 -0.00000000000E+00 -0.00000000000E+00 -0.45593999997E+02  0.45594000000E+02  0.51100000000E-03 0. -1.
    9900012    2    1    2    0    0  0.44923778454E+02 -0.29280650372E+01  0.15472809871E+01  0.46142317477E+02  0.99999974122E+01 0.  0.
         12    1    1    2    0    0 -0.44923778454E+02  0.29280650372E+01 -0.15472809871E+01  0.45045682523E+02  0.00000000000E+00 0. -1.
         11    1    3    3    0    0  0.60660753749E+01 -0.20735828575E+01  0.32564208316E-01  0.64107781906E+01  0.51100000000E-03 0. -1.
        -11    1    3    3    0    0  0.34364236702E+02  0.14508953161E+01  0.28349255082E+01  0.34511485976E+02  0.51100000000E-03 0.  1.
        -12    1    3    3    0    0  0.44934663772E+01 -0.23053774957E+01 -0.13202087294E+01  0.52200533111E+01  0.00000000000E+00 0.  1.
</event>
<event>
 7    1  0.1541902E-008  0.4614232E+02  0.7816164E-02  0.1320468E+00
        -11   -1    0    0    0    0  0.00000000000E+00  0.00000000000E+00  0.45593999997E+02  0.45594000000E+02  0.51100000000E-03 0.  1.
         11   -1    0    0    0    0 -0.00000000000E+00 -0.00000000000E+00 -0.45593999997E+02  0.45594000000E+02  0.51100000000E-03 0. -1.
    9900012    2    1    2    0    0 -0.57800353851E+01  0.44662831272E+02  0.96755345985E+00  0.46142318009E+02  0.10000002265E+02 0.  0.
         12    1    1    2    0    0  0.57800353851E+01 -0.44662831272E+02 -0.96755345985E+00  0.45045681991E+02  0.00000000000E+00 0. -1.
         11    1    3    3    0    0 -0.88908405004E+00  0.23352380389E+02  0.11165709211E+01  0.23395958436E+02  0.51100000000E-03 0. -1.
        -11    1    3    3    0    0  0.10175140915E+01  0.25546983719E+01 -0.13135950321E+01  0.30475155237E+01  0.51100000000E-03 0.  1.
        -12    1    3    3    0    0 -0.59084654266E+01  0.18755752512E+02  0.11645775709E+01  0.19698844050E+02  0.00000000000E+00 0.  1.
</event>
<event>
 7    1  0.1541902E-008  0.4614232E+02  0.7816164E-02  0.1320468E+00
        -11   -1    0    0    0    0  0.00000000000E+00  0.00000000000E+00  0.45593999997E+02  0.45594000000E+02  0.51100000000E-03 0.  1.
         11   -1    0    0    0    0 -0.00000000000E+00 -0.00000000000E+00 -0.45593999997E+02  0.45594000000E+02  0.51100000000E-03 0. -1.
    9900012    2    1    2    0    0  0.16971331027E+02  0.24690307452E+02  0.33637420334E+02  0.46142318680E+02  0.10000008376E+02 0.  0.
         12    1    1    2    0    0 -0.16971331027E+02 -0.24690307452E+02 -0.33637420334E+02  0.45045681320E+02  0.00000000000E+00 0. -1.
         11    1    3    3    0    0  0.74850610746E+01  0.15858509981E+02  0.14713170628E+02  0.22890956037E+02  0.51100000000E-03 0. -1.
        -11    1    3    3    0    0  0.55891843424E+01  0.63260108563E+01  0.14850247288E+02  0.17081780930E+02  0.51100000000E-03 0.  1.
         12    1    3    3    0    0  0.38970856095E+01  0.25057866153E+01  0.40740024185E+01  0.61695817132E+01  0.00000000000E+00 0. -1.
</event>
<event>
 7    1  0.1541902E-008  0.4614232E+02  0.7816164E-02  0.1320468E+00
        -11   -1    0    0    0    0  0.00000000000E+00  0.00000000000E+00  0.45593999997E+02  0.45594000000E+02  0.51100000000E-03 0.  1.
         11   -1    0    0    0    0 -0.00000000000E+00 -0.00000000000E+00 -0.45593999997E+02  0.45594000000E+02  0.51100000000E-03 0. -1.
    9900012    2    1    2    0    0  0.28888226357E+02  0.53121318226E+01  0.34152088266E+02  0.46142317637E+02  0.99999988724E+01 0.  0.
         12    1    1    2    0    0 -0.28888226357E+02 -0.53121318226E+01 -0.34152088266E+02  0.45045682363E+02  0.00000000000E+00 0. -1.
         11    1    3    3    0    0  0.11403440957E+02  0.61381539893E+01  0.13407433312E+02  0.18640672421E+02  0.51100000000E-03 0.  1.
        -11    1    3    3    0    0  0.77648800522E+01 -0.17610377909E+01  0.11954080900E+02  0.14362961629E+02  0.51100000000E-03 0. -1.
         12    1    3    3    0    0  0.97199053486E+01  0.93501562417E+00  0.87905740539E+01  0.13138683587E+02  0.00000000000E+00 0. -1.
</event>
<event>
 7    1  0.1541902E-008  0.4614232E+02  0.7816164E-02  0.1320468E+00
        -11   -1    0    0    0    0  0.00000000000E+00  0.00000000000E+00  0.45593999997E+02  0.45594000000E+02  0.51100000000E-03 0.  1.
         11   -1    0    0    0    0 -0.00000000000E+00 -0.00000000000E+00 -0.45593999997E+02  0.45594000000E+02  0.51100000000E-03 0. -1.
    9900012    2    1    2    0    0 -0.43261138257E+02  0.73403284458E+01  0.10183663496E+02  0.46142317553E+02  0.99999980986E+01 0.  0.
         12    1    1    2    0    0  0.43261138257E+02 -0.73403284458E+01 -0.10183663496E+02  0.45045682447E+02  0.00000000000E+00 0. -1.
         11    1    3    3    0    0 -0.18995298617E+02  0.40514600544E+01  0.63978625213E+01  0.20449164854E+02  0.51100000000E-03 0. -1.
        -11    1    3    3    0    0 -0.97752713225E+01  0.24986521379E+01 -0.15965217292E+01  0.10215090495E+02  0.51100000000E-03 0.  1.
        -12    1    3    3    0    0 -0.14490568317E+02  0.79021625353E+00  0.53823227039E+01  0.15478062203E+02  0.00000000000E+00 0.  1.
</event>
<event>
 7    1  0.1541902E-008  0.4614232E+02  0.7816164E-02  0.1320468E+00
        -11   -1    0    0    0    0  0.00000000000E+00  0.00000000000E+00  0.45593999997E+02  0.45594000000E+02  0.51100000000E-03 0. -1.
         11   -1    0    0    0    0 -0.00000000000E+00 -0.00000000000E+00 -0.45593999997E+02  0.45594000000E+02  0.51100000000E-03 0.  1.
    9900012    2    1    2    0    0 -0.14563346026E+02 -0.42597077534E+02 -0.15847543784E+01  0.46142317540E+02  0.99999979805E+01 0.  0.
         12    1    1    2    0    0  0.14563346026E+02  0.42597077534E+02  0.15847543784E+01  0.45045682460E+02  0.00000000000E+00 0. -1.
         11    1    3    3    0    0 -0.89571344828E+01 -0.14831916882E+02 -0.88319169494E+00  0.17349237573E+02  0.51100000000E-03 0. -1.
        -11    1    3    3    0    0 -0.42574955250E+01 -0.22446678130E+02  0.14654475135E+01  0.22893823706E+02  0.51100000000E-03 0.  1.
        -12    1    3    3    0    0 -0.13487160183E+01 -0.53184825215E+01 -0.21670101970E+01  0.58992562602E+01  0.00000000000E+00 0.  1.
</event>
<event>
 7    1  0.1541902E-008  0.4614232E+02  0.7816164E-02  0.1320468E+00
        -11   -1    0    0    0    0  0.00000000000E+00  0.00000000000E+00  0.45593999997E+02  0.45594000000E+02  0.51100000000E-03 0.  1.
         11   -1    0    0    0    0 -0.00000000000E+00 -0.00000000000E+00 -0.45593999997E+02  0.45594000000E+02  0.51100000000E-03 0. -1.
    9900012    2    1    2    0    0 -0.28606230529E+02  0.26591222553E+02  0.22443349930E+02  0.46142317654E+02  0.99999990191E+01 0.  0.
         12    1    1    2    0    0  0.28606230529E+02 -0.26591222553E+02 -0.22443349930E+02  0.45045682346E+02  0.00000000000E+00 0. -1.
         11    1    3    3    0    0 -0.18552401300E+02  0.20075436625E+02  0.10945743293E+02  0.29445272051E+02  0.51100000000E-03 0. -1.
        -11    1    3    3    0    0 -0.86582258138E+01  0.62611499971E+01  0.10006007896E+02  0.14638547325E+02  0.51100000000E-03 0.  1.
         12    1    3    3    0    0 -0.13956034157E+01  0.25463593137E+00  0.14915987414E+01  0.20584982771E+01  0.00000000000E+00 0. -1.
</event>
<event>
 7    1  0.1541902E-008  0.4614232E+02  0.7816164E-02  0.1320468E+00
        -11   -1    0    0    0    0  0.00000000000E+00  0.00000000000E+00  0.45593999997E+02  0.45594000000E+02  0.51100000000E-03 0.  1.
         11   -1    0    0    0    0 -0.00000000000E+00 -0.00000000000E+00 -0.45593999997E+02  0.45594000000E+02  0.51100000000E-03 0. -1.
    9900012    2    1    2    0    0 -0.44896464803E+02 -0.25389971353E+00  0.36546163552E+01  0.46142320545E+02  0.10000025389E+02 0.  0.
         12    1    1    2    0    0  0.44896464803E+02  0.25389971353E+00 -0.36546163552E+01  0.45045679455E+02  0.00000000000E+00 0. -1.
         11    1    3    3    0    0 -0.82137566183E+01  0.22335084355E+01  0.18501170645E+01  0.87107572076E+01  0.51100000000E-03 0.  1.
        -11    1    3    3    0    0 -0.33419993720E-01 -0.53882636263E+00 -0.38839202133E+00  0.66505591374E+00  0.51100000000E-03 0. -1.
        -12    1    3    3    0    0 -0.36649288191E+02 -0.19485817864E+01  0.21928913121E+01  0.36766507424E+02  0.00000000000E+00 0.  1.
</event>
<event>
 7    1  0.1541902E-008  0.4614233E+02  0.7816164E-02  0.1320468E+00
        -11   -1    0    0    0    0  0.00000000000E+00  0.00000000000E+00  0.45593999997E+02  0.45594000000E+02  0.51100000000E-03 0.  1.
         11   -1    0    0    0    0 -0.00000000000E+00 -0.00000000000E+00 -0.45593999997E+02  0.45594000000E+02  0.51100000000E-03 0. -1.
    9900012    2    1    2    0    0 -0.54779728442E+01 -0.42003329055E+02  0.15324000272E+02  0.46142325152E+02  0.10000067398E+02 0.  0.
         12    1    1    2    0    0  0.54779728442E+01  0.42003329055E+02 -0.15324000272E+02  0.45045674848E+02  0.00000000000E+00 0. -1.
         11    1    3    3    0    0  0.11828967766E+01 -0.17016498838E+02  0.66831153246E+01  0.18320057538E+02  0.51100000000E-03 0. -1.
        -11    1    3    3    0    0 -0.68393163487E+01 -0.25228735281E+02  0.86062288759E+01  0.27519674921E+02  0.51100000000E-03 0.  1.
         12    1    3    3    0    0  0.17844672784E+00  0.24190506465E+00  0.34656071191E-01  0.30259269365E+00  0.00000000000E+00 0. -1.
</event>
<event>
 7    1  0.1541902E-008  0.4614232E+02  0.7816164E-02  0.1320468E+00
        -11   -1    0    0    0    0  0.00000000000E+00  0.00000000000E+00  0.45593999997E+02  0.45594000000E+02  0.51100000000E-03 0.  1.
         11   -1    0    0    0    0 -0.00000000000E+00 -0.00000000000E+00 -0.45593999997E+02  0.45594000000E+02  0.51100000000E-03 0. -1.
    9900012    2    1    2    0    0 -0.28403614642E+02  0.32773703376E+02  0.12175078939E+02  0.46142317578E+02  0.99999983311E+01 0.  0.
         12    1    1    2    0    0  0.28403614642E+02 -0.32773703376E+02 -0.12175078939E+02  0.45045682422E+02  0.00000000000E+00 0. -1.
         11    1    3    3    0    0 -0.22849375113E+02  0.21606966301E+02  0.11166652352E+02  0.33371380865E+02  0.51100000000E-03 0. -1.
        -11    1    3    3    0    0 -0.32783233660E+01  0.85798336648E+01  0.14451329635E+01  0.92978147621E+01  0.51100000000E-03 0.  1.
         12    1    3    3    0    0 -0.22759161623E+01  0.25869034099E+01 -0.43670637601E+00  0.34731219513E+01  0.00000000000E+00 0. -1.
</event>
<event>
 7    1  0.1541902E-008  0.4614232E+02  0.7816164E-02  0.1320468E+00
        -11   -1    0    0    0    0  0.00000000000E+00  0.00000000000E+00  0.45593999997E+02  0.45594000000E+02  0.51100000000E-03 0.  1.
         11   -1    0    0    0    0 -0.00000000000E+00 -0.00000000000E+00 -0.45593999997E+02  0.45594000000E+02  0.51100000000E-03 0. -1.
    9900012    2    1    2    0    0 -0.78038738735E+01  0.36734999350E+02  0.24874742910E+02  0.46142318082E+02  0.10000002925E+02 0.  0.
         12    1    1    2    0    0  0.78038738735E+01 -0.36734999350E+02 -0.24874742910E+02  0.45045681918E+02  0.00000000000E+00 0. -1.
         11    1    3    3    0    0 -0.89856542900E+01  0.27317102826E+02  0.19646314713E+02  0.34827342303E+02  0.51100000000E-03 0. -1.
        -11    1    3    3    0    0 -0.69186434980E+00  0.29737380523E+01  0.47224735285E+00  0.30894679325E+01  0.51100000000E-03 0.  1.
         12    1    3    3    0    0  0.18736447663E+01  0.64441584716E+01  0.47561808438E+01  0.82255078467E+01  0.00000000000E+00 0. -1.
</event>
<event>
 7    1  0.1541902E-008  0.4614232E+02  0.7816164E-02  0.1320468E+00
        -11   -1    0    0    0    0  0.00000000000E+00  0.00000000000E+00  0.45593999997E+02  0.45594000000E+02  0.51100000000E-03 0.  1.
         11   -1    0    0    0    0 -0.00000000000E+00 -0.00000000000E+00 -0.45593999997E+02  0.45594000000E+02  0.51100000000E-03 0. -1.
    9900012    2    1    2    0    0  0.20152741074E+01  0.40152211409E+02  0.20318757801E+02  0.46142319526E+02  0.10000016095E+02 0.  0.
         12    1    1    2    0    0 -0.20152741074E+01 -0.40152211409E+02 -0.20318757801E+02  0.45045680474E+02  0.00000000000E+00 0. -1.
         11    1    3    3    0    0  0.23068251605E+00  0.75890719386E+01  0.19820821622E+01  0.78470298375E+01  0.51100000000E-03 0. -1.
        -11    1    3    3    0    0  0.31355650090E+01  0.31415875377E+02  0.16095654227E+02  0.35438102078E+02  0.51100000000E-03 0.  1.
        -12    1    3    3    0    0 -0.13509734176E+01  0.11472640938E+01  0.22410214119E+01  0.28571876110E+01  0.00000000000E+00 0.  1.
</event>
<event>
 7    1  0.1541902E-008  0.4614232E+02  0.7816164E-02  0.1320468E+00
        -11   -1    0    0    0    0  0.00000000000E+00  0.00000000000E+00  0.45593999997E+02  0.45594000000E+02  0.51100000000E-03 0. -1.
         11   -1    0    0    0    0 -0.00000000000E+00 -0.00000000000E+00 -0.45593999997E+02  0.45594000000E+02  0.51100000000E-03 0.  1.
    9900012    2    1    2    0    0 -0.22440594256E+02  0.51397150968E+00 -0.39054695547E+02  0.46142315617E+02  0.99999804442E+01 0.  0.
         12    1    1    2    0    0  0.22440594256E+02 -0.51397150968E+00  0.39054695547E+02  0.45045684383E+02  0.00000000000E+00 0. -1.
         11    1    3    3    0    0 -0.72901840466E+01  0.12538416605E+01 -0.10983093801E+02  0.13241874945E+02  0.51100000000E-03 0. -1.
        -11    1    3    3    0    0 -0.52950697435E+01  0.28684434152E+01 -0.62115695830E+01  0.86515506217E+01  0.51100000000E-03 0.  1.
        -12    1    3    3    0    0 -0.98553404658E+01 -0.36083135660E+01 -0.21860032163E+02  0.24248890050E+02  0.00000000000E+00 0.  1.
</event>
<event>
 7    1  0.1541902E-008  0.4614231E+02  0.7816164E-02  0.1320468E+00
        -11   -1    0    0    0    0  0.00000000000E+00  0.00000000000E+00  0.45593999997E+02  0.45594000000E+02  0.51100000000E-03 0. -1.
         11   -1    0    0    0    0 -0.00000000000E+00 -0.00000000000E+00 -0.45593999997E+02  0.45594000000E+02  0.51100000000E-03 0.  1.
    9900012    2    1    2    0    0  0.27457235972E+02  0.35193158427E+02  0.60543824604E+01  0.46142314810E+02  0.99999730870E+01 0.  0.
         12    1    1    2    0    0 -0.27457235972E+02 -0.35193158427E+02 -0.60543824604E+01  0.45045685190E+02  0.00000000000E+00 0. -1.
         11    1    3    3    0    0  0.14201460924E+02  0.18985707175E+02  0.65515585222E+01  0.24597997655E+02  0.51100000000E-03 0. -1.
        -11    1    3    3    0    0  0.62259478757E+01  0.55370309784E+01  0.18941274375E+01  0.85445221059E+01  0.51100000000E-03 0.  1.
         12    1    3    3    0    0  0.70298271727E+01  0.10670420273E+02 -0.23913034993E+01  0.12999795049E+02  0.00000000000E+00 0. -1.
</event>
<event>
 7    1  0.1541902E-008  0.4614232E+02  0.7816164E-02  0.1320468E+00
        -11   -1    0    0    0    0  0.00000000000E+00  0.00000000000E+00  0.45593999997E+02  0.45594000000E+02  0.51100000000E-03 0.  1.
         11   -1    0    0    0    0 -0.00000000000E+00 -0.00000000000E+00 -0.45593999997E+02  0.45594000000E+02  0.51100000000E-03 0. -1.
    9900012    2    1    2    0    0  0.23953839469E+02 -0.15801379643E+02  0.34722377174E+02  0.46142317625E+02  0.99999987634E+01 0.  0.
         12    1    1    2    0    0 -0.23953839469E+02  0.15801379643E+02 -0.34722377174E+02  0.45045682375E+02  0.00000000000E+00 0. -1.
         11    1    3    3    0    0  0.13148902091E+02 -0.11711440181E+02  0.18284183692E+02  0.25384302844E+02  0.51100000000E-03 0. -1.
        -11    1    3    3    0    0  0.67889845972E+01  0.31210146736E-01  0.10375686940E+02  0.12399442152E+02  0.51100000000E-03 0.  1.
        -12    1    3    3    0    0  0.40159527813E+01 -0.41211496094E+01  0.60625065422E+01  0.83585726304E+01  0.00000000000E+00 0.  1.
</event>
<event>
 7    1  0.1541902E-008  0.4614232E+02  0.7816164E-02  0.1320468E+00
        -11   -1    0    0    0    0  0.00000000000E+00  0.00000000000E+00  0.45593999997E+02  0.45594000000E+02  0.51100000000E-03 0. -1.
         11   -1    0    0    0    0 -0.00000000000E+00 -0.00000000000E+00 -0.45593999997E+02  0.45594000000E+02  0.51100000000E-03 0.  1.
    9900012    2    1    2    0    0  0.19795918270E+02  0.39697298441E+02 -0.78332392836E+01  0.46142317395E+02  0.99999966621E+01 0.  0.
         12    1    1    2    0    0 -0.19795918270E+02 -0.39697298441E+02  0.78332392836E+01  0.45045682605E+02  0.00000000000E+00 0. -1.
         11    1    3    3    0    0  0.97914112764E+01  0.25985618390E+02 -0.21463696557E+01  0.27851947882E+02  0.51100000000E-03 0.  1.
        -11    1    3    3    0    0  0.22480395586E+01  0.48616390008E+01 -0.32738208995E+01  0.62775089944E+01  0.51100000000E-03 0. -1.
        -12    1    3    3    0    0  0.77564674352E+01  0.88500410504E+01 -0.24130487284E+01  0.12012860518E+02  0.00000000000E+00 0.  1.
</event>
<event>
 7    1  0.1541902E-008  0.4614231E+02  0.7816164E-02  0.1320468E+00
        -11   -1    0    0    0    0  0.00000000000E+00  0.00000000000E+00  0.45593999997E+02  0.45594000000E+02  0.51100000000E-03 0.  1.
         11   -1    0    0    0    0 -0.00000000000E+00 -0.00000000000E+00 -0.45593999997E+02  0.45594000000E+02  0.51100000000E-03 0. -1.
    9900012    2    1    2    0    0  0.13303104648E+02  0.28481023226E+02  0.32264107343E+02  0.46142313193E+02  0.99999583436E+01 0.  0.
         12    1    1    2    0    0 -0.13303104648E+02 -0.28481023226E+02 -0.32264107343E+02  0.45045686807E+02  0.00000000000E+00 0. -1.
         11    1    3    3    0    0  0.42167450109E+01  0.27815093048E+01  0.57564202732E+01  0.76585969422E+01  0.51100000000E-03 0. -1.
        -11    1    3    3    0    0  0.95313915467E+01  0.23709246195E+02  0.25831467881E+02  0.36335114051E+02  0.51100000000E-03 0.  1.
        -12    1    3    3    0    0 -0.44503190933E+00  0.19902677258E+01  0.67621918889E+00  0.21486021996E+01  0.00000000000E+00 0.  1.
</event>
<event>
 7    1  0.1541902E-008  0.4614232E+02  0.7816164E-02  0.1320468E+00
        -11   -1    0    0    0    0  0.00000000000E+00  0.00000000000E+00  0.45593999997E+02  0.45594000000E+02  0.51100000000E-03 0.  1.
         11   -1    0    0    0    0 -0.00000000000E+00 -0.00000000000E+00 -0.45593999997E+02  0.45594000000E+02  0.51100000000E-03 0. -1.
    9900012    2    1    2    0    0  0.21441377865E+02  0.26140228716E+02  0.29766914896E+02  0.46142318026E+02  0.10000002417E+02 0.  0.
         12    1    1    2    0    0 -0.21441377865E+02 -0.26140228716E+02 -0.29766914896E+02  0.45045681974E+02  0.00000000000E+00 0. -1.
         11    1    3    3    0    0  0.17456943506E+02  0.20493341672E+02  0.20450710771E+02  0.33807595312E+02  0.51100000000E-03 0.  1.
        -11    1    3    3    0    0  0.17224608882E+01 -0.19752149560E+00  0.13408500027E+01  0.21917493569E+01  0.51100000000E-03 0. -1.
         12    1    3    3    0    0  0.22619734704E+01  0.58444085394E+01  0.79753541220E+01  0.10142973357E+02  0.00000000000E+00 0. -1.
</event>
<event>
 7    1  0.1541902E-008  0.4614232E+02  0.7816164E-02  0.1320468E+00
        -11   -1    0    0    0    0  0.00000000000E+00  0.00000000000E+00  0.45593999997E+02  0.45594000000E+02  0.51100000000E-03 0.  1.
         11   -1    0    0    0    0 -0.00000000000E+00 -0.00000000000E+00 -0.45593999997E+02  0.45594000000E+02  0.51100000000E-03 0. -1.
    9900012    2    1    2    0    0  0.27963713872E+02  0.23426585775E+02  0.26426107308E+02  0.46142319163E+02  0.10000012784E+02 0.  0.
         12    1    1    2    0    0 -0.27963713872E+02 -0.23426585775E+02 -0.26426107308E+02  0.45045680837E+02  0.00000000000E+00 0. -1.
         11    1    3    3    0    0  0.28150246017E+01  0.36717423128E+01  0.79356409600E+00  0.46942304327E+01  0.51100000000E-03 0. -1.
        -11    1    3    3    0    0  0.25448431217E+02  0.19352700552E+02  0.24744550982E+02  0.40428238567E+02  0.51100000000E-03 0.  1.
        -12    1    3    3    0    0 -0.29974194684E+00  0.40214291089E+00  0.88799222967E+00  0.10198501632E+01  0.00000000000E+00 0.  1.
</event>
<event>
 7    1  0.1541902E-008  0.4614232E+02  0.7816164E-02  0.1320468E+00
        -11   -1    0    0    0    0  0.00000000000E+00  0.00000000000E+00  0.45593999997E+02  0.45594000000E+02  0.51100000000E-03 0.  1.
         11   -1    0    0    0    0 -0.00000000000E+00 -0.00000000000E+00 -0.45593999997E+02  0.45594000000E+02  0.51100000000E-03 0. -1.
    9900012    2    1    2    0    0 -0.97320113765E+01 -0.49898260033E+01  0.43697861598E+02  0.46142317441E+02  0.99999970768E+01 0.  0.
         12    1    1    2    0    0  0.97320113765E+01  0.49898260033E+01 -0.43697861598E+02  0.45045682559E+02  0.00000000000E+00 0. -1.
         11    1    3    3    0    0  0.20537522751E+00  0.23704603977E+01  0.84749111799E+01  0.88025781025E+01  0.51100000000E-03 0. -1.
        -11    1    3    3    0    0 -0.65045833498E+01 -0.52383312701E+01  0.23187108164E+02  0.24645318102E+02  0.51100000000E-03 0.  1.
         12    1    3    3    0    0 -0.34328032543E+01 -0.21219551308E+01  0.12035842254E+02  0.12694421236E+02  0.00000000000E+00 0. -1.
</event>
<event>
 7    1  0.1928045E-008  0.4614232E+02  0.7816164E-02  0.1320468E+00
        -11   -1    0    0    0    0  0.00000000000E+00  0.00000000000E+00  0.45593999997E+02  0.45594000000E+02  0.51100000000E-03 0.  1.
         11   -1    0    0    0    0 -0.00000000000E+00 -0.00000000000E+00 -0.45593999997E+02  0.45594000000E+02  0.51100000000E-03 0. -1.
    9900012    2    1    2    0    0 -0.41523447249E+02 -0.63948519655E+01 -0.16248777075E+02  0.46142316972E+02  0.99999928004E+01 0.  0.
         12    1    1    2    0    0  0.41523447249E+02  0.63948519655E+01  0.16248777075E+02  0.45045683028E+02  0.00000000000E+00 0. -1.
         11    1    3    3    0    0 -0.46361345562E+01 -0.13507932942E+01 -0.54329398798E+01  0.72687840899E+01  0.51100000000E-03 0. -1.
        -11    1    3    3    0    0 -0.28926718760E+02 -0.50288797462E+01 -0.80201635240E+01  0.30436289408E+02  0.51100000000E-03 0.  1.
         12    1    3    3    0    0 -0.79605939323E+01 -0.15178925095E-01 -0.27956736708E+01  0.84372434734E+01  0.00000000000E+00 0. -1.
</event>
<event>
 7    1  0.1541902E-008  0.4614232E+02  0.7816164E-02  0.1320468E+00
        -11   -1    0    0    0    0  0.00000000000E+00  0.00000000000E+00  0.45593999997E+02  0.45594000000E+02  0.51100000000E-03 0.  1.
         11   -1    0    0    0    0 -0.00000000000E+00 -0.00000000000E+00 -0.45593999997E+02  0.45594000000E+02  0.51100000000E-03 0. -1.
    9900012    2    1    2    0    0  0.29422497418E+01  0.37362652445E+02  0.24989775853E+02  0.46142317316E+02  0.99999959453E+01 0.  0.
         12    1    1    2    0    0 -0.29422497418E+01 -0.37362652445E+02 -0.24989775853E+02  0.45045682684E+02  0.00000000000E+00 0. -1.
         11    1    3    3    0    0  0.39179734101E+01  0.98633297403E+01  0.44304487283E+01  0.11500637609E+02  0.51100000000E-03 0. -1.
        -11    1    3    3    0    0  0.12074810893E+01  0.20007726825E+02  0.14021102014E+02  0.24461366381E+02  0.51100000000E-03 0.  1.
         12    1    3    3    0    0 -0.21832047576E+01  0.74915958799E+01  0.65382251109E+01  0.10180313327E+02  0.00000000000E+00 0. -1.
</event>
<event>
 7    1  0.1541902E-008  0.4614232E+02  0.7816164E-02  0.1320468E+00
        -11   -1    0    0    0    0  0.00000000000E+00  0.00000000000E+00  0.45593999997E+02  0.45594000000E+02  0.51100000000E-03 0.  1.
         11   -1    0    0    0    0 -0.00000000000E+00 -0.00000000000E+00 -0.45593999997E+02  0.45594000000E+02  0.51100000000E-03 0. -1.
    9900012    2    1    2    0    0  0.22603309000E+02  0.20249228497E+02  0.33289223819E+02  0.46142320352E+02  0.10000023628E+02 0.  0.
         12    1    1    2    0    0 -0.22603309000E+02 -0.20249228497E+02 -0.33289223819E+02  0.45045679648E+02  0.00000000000E+00 0. -1.
         11    1    3    3    0    0  0.17179458305E+02  0.12796131845E+02  0.27223459388E+02  0.34640893741E+02  0.51100000000E-03 0.  1.
        -11    1    3    3    0    0 -0.26714502337E+00  0.15412868692E+01  0.89347330213E+00  0.18014512148E+01  0.51100000000E-03 0. -1.
        -12    1    3    3    0    0  0.56909957186E+01  0.59118097828E+01  0.51722911279E+01  0.96999753962E+01  0.00000000000E+00 0.  1.
</event>
<event>
 7    1  0.1541902E-008  0.4614232E+02  0.7816164E-02  0.1320468E+00
        -11   -1    0    0    0    0  0.00000000000E+00  0.00000000000E+00  0.45593999997E+02  0.45594000000E+02  0.51100000000E-03 0.  1.
         11   -1    0    0    0    0 -0.00000000000E+00 -0.00000000000E+00 -0.45593999997E+02  0.45594000000E+02  0.51100000000E-03 0. -1.
    9900012    2    1    2    0    0 -0.25624874590E+02  0.90579011826E+01  0.35922606737E+02  0.46142318228E+02  0.10000004254E+02 0.  0.
         12    1    1    2    0    0  0.25624874590E+02 -0.90579011826E+01 -0.35922606737E+02  0.45045681772E+02  0.00000000000E+00 0. -1.
         11    1    3    3    0    0 -0.20476715492E+01  0.14089700524E+01  0.16142612416E+01  0.29637805249E+01  0.51100000000E-03 0. -1.
        -11    1    3    3    0    0 -0.82949765208E+00 -0.14366939797E+01  0.29818578401E+01  0.34122767159E+01  0.51100000000E-03 0.  1.
        -12    1    3    3    0    0 -0.22747705389E+02  0.90856251098E+01  0.31326487655E+02  0.39766260987E+02  0.00000000000E+00 0.  1.
</event>
<event>
 7    1  0.1541902E-008  0.4614232E+02  0.7816164E-02  0.1320468E+00
        -11   -1    0    0    0    0  0.00000000000E+00  0.00000000000E+00  0.45593999997E+02  0.45594000000E+02  0.51100000000E-03 0. -1.
         11   -1    0    0    0    0 -0.00000000000E+00 -0.00000000000E+00 -0.45593999997E+02  0.45594000000E+02  0.51100000000E-03 0.  1.
    9900012    2    1    2    0    0 -0.42406736841E+02 -0.15151477448E+02  0.11022146150E+01  0.46142317905E+02  0.10000001313E+02 0.  0.
         12    1    1    2    0    0  0.42406736841E+02  0.15151477448E+02 -0.11022146150E+01  0.45045682095E+02  0.00000000000E+00 0. -1.
         11    1    3    3    0    0 -0.49380014581E+01 -0.49325200693E+01  0.17301627158E+01  0.71907632362E+01  0.51100000000E-03 0. -1.
        -11    1    3    3    0    0 -0.16427661428E+02 -0.29875649121E+01 -0.34951840029E+00  0.16700771463E+02  0.51100000000E-03 0.  1.
         12    1    3    3    0    0 -0.21041073954E+02 -0.72313924670E+01 -0.27842970046E+00  0.22250783206E+02  0.00000000000E+00 0. -1.
</event>
<event>
 7    1  0.1541902E-008  0.4614232E+02  0.7816164E-02  0.1320468E+00
        -11   -1    0    0    0    0  0.00000000000E+00  0.00000000000E+00  0.45593999997E+02  0.45594000000E+02  0.51100000000E-03 0. -1.
         11   -1    0    0    0    0 -0.00000000000E+00 -0.00000000000E+00 -0.45593999997E+02  0.45594000000E+02  0.51100000000E-03 0.  1.
    9900012    2    1    2    0    0 -0.11895215141E+02  0.24305454648E+02 -0.36011973597E+02  0.46142317507E+02  0.99999976842E+01 0.  0.
         12    1    1    2    0    0  0.11895215141E+02 -0.24305454648E+02  0.36011973597E+02  0.45045682493E+02  0.00000000000E+00 0. -1.
         11    1    3    3    0    0 -0.25526622882E+01  0.84304748603E+01 -0.60082108584E+01  0.10662438235E+02  0.51100000000E-03 0. -1.
        -11    1    3    3    0    0 -0.60826036721E+01  0.76491570221E+01 -0.12500764705E+02  0.15867475825E+02  0.51100000000E-03 0.  1.
        -12    1    3    3    0    0 -0.32599491810E+01  0.82258227656E+01 -0.17502998034E+02  0.19612403448E+02  0.00000000000E+00 0.  1.
</event>
<event>
 7    1  0.1541902E-008  0.4614232E+02  0.7816164E-02  0.1320468E+00
        -11   -1    0    0    0    0  0.00000000000E+00  0.00000000000E+00  0.45593999997E+02  0.45594000000E+02  0.51100000000E-03 0. -1.
         11   -1    0    0    0    0 -0.00000000000E+00 -0.00000000000E+00 -0.45593999997E+02  0.45594000000E+02  0.51100000000E-03 0.  1.
    9900012    2    1    2    0    0 -0.27979892626E+02  0.23485043758E+01 -0.35223907190E+02  0.46142317611E+02  0.99999986296E+01 0.  0.
         12    1    1    2    0    0  0.27979892626E+02 -0.23485043758E+01  0.35223907190E+02  0.45045682389E+02  0.00000000000E+00 0. -1.
         11    1    3    3    0    0 -0.11623695261E+02  0.30675783939E+01 -0.10666909795E+02  0.16071816747E+02  0.51100000000E-03 0. -1.
        -11    1    3    3    0    0 -0.31526592069E+01 -0.23784733366E+01 -0.70398814328E+01  0.80719468740E+01  0.51100000000E-03 0.  1.
        -12    1    3    3    0    0 -0.13203538158E+02  0.16593993184E+01 -0.17517115962E+02  0.21998553989E+02  0.00000000000E+00 0.  1.
</event>
<event>
 7    1  0.1541902E-008  0.4614232E+02  0.7816164E-02  0.1320468E+00
        -11   -1    0    0    0    0  0.00000000000E+00  0.00000000000E+00  0.45593999997E+02  0.45594000000E+02  0.51100000000E-03 0.  1.
         11   -1    0    0    0    0 -0.00000000000E+00 -0.00000000000E+00 -0.45593999997E+02  0.45594000000E+02  0.51100000000E-03 0. -1.
    9900012    2    1    2    0    0 -0.11976994334E+02  0.92056322764E+01  0.42437263586E+02  0.46142318747E+02  0.10000008992E+02 0.  0.
         12    1    1    2    0    0  0.11976994334E+02 -0.92056322764E+01 -0.42437263586E+02  0.45045681253E+02  0.00000000000E+00 0. -1.
         11    1    3    3    0    0 -0.46971991510E+01  0.52214392864E+01  0.86631048495E+01  0.11152420992E+02  0.51100000000E-03 0. -1.
        -11    1    3    3    0    0 -0.50842149421E+01  0.41785608643E+01  0.28910846566E+02  0.29650407449E+02  0.51100000000E-03 0.  1.
         12    1    3    3    0    0 -0.21955802414E+01 -0.19436787429E+00  0.48633121702E+01  0.53394903064E+01  0.00000000000E+00 0. -1.
</event>
<event>
 7    1  0.1541902E-008  0.4614232E+02  0.7816164E-02  0.1320468E+00
        -11   -1    0    0    0    0  0.00000000000E+00  0.00000000000E+00  0.45593999997E+02  0.45594000000E+02  0.51100000000E-03 0.  1.
         11   -1    0    0    0    0 -0.00000000000E+00 -0.00000000000E+00 -0.45593999997E+02  0.45594000000E+02  0.51100000000E-03 0. -1.
    9900012    2    1    2    0    0 -0.22670102310E+02 -0.68237881552E+01  0.38322522588E+02  0.46142319175E+02  0.10000012889E+02 0.  0.
         12    1    1    2    0    0  0.22670102310E+02  0.68237881552E+01 -0.38322522588E+02  0.45045680825E+02  0.00000000000E+00 0. -1.
         11    1    3    3    0    0 -0.27240557711E+01  0.12962952115E+01  0.87201031751E+01  0.92271913801E+01  0.51100000000E-03 0. -1.
        -11    1    3    3    0    0 -0.16793769591E+02 -0.65934842569E+01  0.27302277601E+02  0.32724900217E+02  0.51100000000E-03 0.  1.
         12    1    3    3    0    0 -0.31522769482E+01 -0.15265991098E+01  0.23001418111E+01  0.41902275775E+01  0.00000000000E+00 0. -1.
</event>
<event>
 7    1  0.1541902E-008  0.4614232E+02  0.7816164E-02  0.1320468E+00
        -11   -1    0    0    0    0  0.00000000000E+00  0.00000000000E+00  0.45593999997E+02  0.45594000000E+02  0.51100000000E-03 0. -1.
         11   -1    0    0    0    0 -0.00000000000E+00 -0.00000000000E+00 -0.45593999997E+02  0.45594000000E+02  0.51100000000E-03 0.  1.
    9900012    2    1    2    0    0 -0.40744691280E+02  0.18350297773E+02 -0.56789211664E+01  0.46142318282E+02  0.10000004750E+02 0.  0.
         12    1    1    2    0    0  0.40744691280E+02 -0.18350297773E+02  0.56789211664E+01  0.45045681718E+02  0.00000000000E+00 0. -1.
         11    1    3    3    0    0 -0.84146336076E+01  0.65167015096E+01  0.11669088013E+01  0.10706779802E+02  0.51100000000E-03 0. -1.
        -11    1    3    3    0    0 -0.18016739144E+02  0.40170616088E+01 -0.37047479128E+01  0.18827236406E+02  0.51100000000E-03 0.  1.
        -12    1    3    3    0    0 -0.14313318528E+02  0.78165346546E+01 -0.31410820549E+01  0.16608302074E+02  0.00000000000E+00 0.  1.
</event>
<event>
 7    1  0.1541902E-008  0.4614232E+02  0.7816164E-02  0.1320468E+00
        -11   -1    0    0    0    0  0.00000000000E+00  0.00000000000E+00  0.45593999997E+02  0.45594000000E+02  0.51100000000E-03 0. -1.
         11   -1    0    0    0    0 -0.00000000000E+00 -0.00000000000E+00 -0.45593999997E+02  0.45594000000E+02  0.51100000000E-03 0.  1.
    9900012    2    1    2    0    0  0.13249662659E+02  0.12271883693E+02 -0.41266945412E+02  0.46142317925E+02  0.10000001493E+02 0.  0.
         12    1    1    2    0    0 -0.13249662659E+02 -0.12271883693E+02  0.41266945412E+02  0.45045682075E+02  0.00000000000E+00 0. -1.
         11    1    3    3    0    0  0.54334978625E+01  0.13427563099E+01 -0.98068180408E+01  0.11291570922E+02  0.51100000000E-03 0. -1.
        -11    1    3    3    0    0  0.12901780118E+01  0.93890852089E+00 -0.50246536692E+00  0.16728957585E+01  0.51100000000E-03 0.  1.
        -12    1    3    3    0    0  0.65259867841E+01  0.99902188627E+01 -0.30957662005E+02  0.33177851245E+02  0.00000000000E+00 0.  1.
</event>
<event>
 7    1  0.1541902E-008  0.4614232E+02  0.7816164E-02  0.1320468E+00
        -11   -1    0    0    0    0  0.00000000000E+00  0.00000000000E+00  0.45593999997E+02  0.45594000000E+02  0.51100000000E-03 0.  1.
         11   -1    0    0    0    0 -0.00000000000E+00 -0.00000000000E+00 -0.45593999997E+02  0.45594000000E+02  0.51100000000E-03 0. -1.
    9900012    2    1    2    0    0  0.23879094071E+02 -0.11338870521E+02  0.36473713014E+02  0.46142324743E+02  0.10000063663E+02 0.  0.
         12    1    1    2    0    0 -0.23879094071E+02  0.11338870521E+02 -0.36473713014E+02  0.45045675257E+02  0.00000000000E+00 0. -1.
         11    1    3    3    0    0  0.54298737197E+01 -0.65214727891E+01  0.10971528498E+02  0.13870384774E+02  0.51100000000E-03 0. -1.
        -11    1    3    3    0    0  0.11124828517E+02 -0.34249952706E+01  0.11253363973E+02  0.16190447897E+02  0.51100000000E-03 0.  1.
        -12    1    3    3    0    0  0.73243918341E+01 -0.13924024613E+01  0.14248820543E+02  0.16081492071E+02  0.00000000000E+00 0.  1.
</event>
<event>
 7    1  0.1541902E-008  0.4614232E+02  0.7816164E-02  0.1320468E+00
        -11   -1    0    0    0    0  0.00000000000E+00  0.00000000000E+00  0.45593999997E+02  0.45594000000E+02  0.51100000000E-03 0. -1.
         11   -1    0    0    0    0 -0.00000000000E+00 -0.00000000000E+00 -0.45593999997E+02  0.45594000000E+02  0.51100000000E-03 0.  1.
    9900012    2    1    2    0    0 -0.18132588705E+02  0.17014958095E+02 -0.37560802051E+02  0.46142318488E+02  0.10000006628E+02 0.  0.
         12    1    1    2    0    0  0.18132588705E+02 -0.17014958095E+02  0.37560802051E+02  0.45045681512E+02  0.00000000000E+00 0. -1.
         11    1    3    3    0    0 -0.10375690651E+02  0.74695416107E+01 -0.20260257667E+02  0.23956774603E+02  0.51100000000E-03 0. -1.
        -11    1    3    3    0    0 -0.69255106248E+01  0.10374618333E+02 -0.14371239054E+02  0.19029658830E+02  0.51100000000E-03 0.  1.
         12    1    3    3    0    0 -0.83138742949E+00 -0.82920184924E+00 -0.29293053298E+01  0.31558850549E+01  0.00000000000E+00 0. -1.
</event>
<event>
 7    1  0.1541902E-008  0.4614232E+02  0.7816164E-02  0.1320468E+00
        -11   -1    0    0    0    0  0.00000000000E+00  0.00000000000E+00  0.45593999997E+02  0.45594000000E+02  0.51100000000E-03 0. -1.
         11   -1    0    0    0    0 -0.00000000000E+00 -0.00000000000E+00 -0.45593999997E+02  0.45594000000E+02  0.51100000000E-03 0.  1.
    9900012    2    1    2    0    0 -0.70480952501E+01 -0.41036951846E+02 -0.17187387575E+02  0.46142319240E+02  0.10000013485E+02 0.  0.
         12    1    1    2    0    0  0.70480952501E+01  0.41036951846E+02  0.17187387575E+02  0.45045680760E+02  0.00000000000E+00 0. -1.
         11    1    3    3    0    0  0.16978742688E+01 -0.15752883913E+02 -0.43966118219E+01  0.16442819843E+02  0.51100000000E-03 0. -1.
        -11    1    3    3    0    0 -0.26287230675E+01 -0.55464728456E+01 -0.27649351979E+01  0.67318951939E+01  0.51100000000E-03 0.  1.
         12    1    3    3    0    0 -0.61172464514E+01 -0.19737595088E+02 -0.10025840555E+02  0.22967604203E+02  0.00000000000E+00 0. -1.
</event>
<event>
 7    1  0.1541902E-008  0.4614232E+02  0.7816164E-02  0.1320468E+00
        -11   -1    0    0    0    0  0.00000000000E+00  0.00000000000E+00  0.45593999997E+02  0.45594000000E+02  0.51100000000E-03 0.  1.
         11   -1    0    0    0    0 -0.00000000000E+00 -0.00000000000E+00 -0.45593999997E+02  0.45594000000E+02  0.51100000000E-03 0. -1.
    9900012    2    1    2    0    0  0.16851908981E+02  0.24181289584E+02  0.34064525941E+02  0.46142317301E+02  0.99999958014E+01 0.  0.
         12    1    1    2    0    0 -0.16851908981E+02 -0.24181289584E+02 -0.34064525941E+02  0.45045682699E+02  0.00000000000E+00 0. -1.
         11    1    3    3    0    0  0.25833668606E+01  0.25792032953E+00  0.19000470203E+01  0.32172171474E+01  0.51100000000E-03 0. -1.
        -11    1    3    3    0    0  0.93192101710E+01  0.10134193647E+02  0.16069801967E+02  0.21161004102E+02  0.51100000000E-03 0.  1.
        -12    1    3    3    0    0  0.49493319493E+01  0.13789175608E+02  0.16094676954E+02  0.21764096051E+02  0.00000000000E+00 0.  1.
</event>
<event>
 7    1  0.1541902E-008  0.4614232E+02  0.7816164E-02  0.1320468E+00
        -11   -1    0    0    0    0  0.00000000000E+00  0.00000000000E+00  0.45593999997E+02  0.45594000000E+02  0.51100000000E-03 0. -1.
         11   -1    0    0    0    0 -0.00000000000E+00 -0.00000000000E+00 -0.45593999997E+02  0.45594000000E+02  0.51100000000E-03 0.  1.
    9900012    2    1    2    0    0 -0.19994720000E+02  0.24486723701E+02 -0.32089327249E+02  0.46142318866E+02  0.10000010077E+02 0.  0.
         12    1    1    2    0    0  0.19994720000E+02 -0.24486723701E+02  0.32089327249E+02  0.45045681134E+02  0.00000000000E+00 0. -1.
         11    1    3    3    0    0 -0.13935738228E+02  0.17542211458E+02 -0.19967298054E+02  0.30010447758E+02  0.51100000000E-03 0.  1.
        -11    1    3    3    0    0 -0.35399974007E+01  0.55084931503E+01 -0.44146013336E+01  0.78970743684E+01  0.51100000000E-03 0. -1.
         12    1    3    3    0    0 -0.25189843716E+01  0.14360190922E+01 -0.77074278619E+01  0.82347967397E+01  0.00000000000E+00 0. -1.
</event>
<event>
 7    1  0.1541902E-008  0.4614232E+02  0.7816164E-02  0.1320468E+00
        -11   -1    0    0    0    0  0.00000000000E+00  0.00000000000E+00  0.45593999997E+02  0.45594000000E+02  0.51100000000E-03 0.  1.
         11   -1    0    0    0    0 -0.00000000000E+00 -0.00000000000E+00 -0.45593999997E+02  0.45594000000E+02  0.51100000000E-03 0. -1.
    9900012    2    1    2    0    0  0.17989719904E+01  0.29454042527E+02  0.34034345531E+02  0.46142316553E+02  0.99999889856E+01 0.  0.
         12    1    1    2    0    0 -0.17989719904E+01 -0.29454042527E+02 -0.34034345531E+02  0.45045683447E+02  0.00000000000E+00 0. -1.
         11    1    3    3    0    0  0.31805391179E+01  0.65372008625E+01  0.51484546577E+01  0.89082776013E+01  0.51100000000E-03 0. -1.
        -11    1    3    3    0    0 -0.10966712836E+01  0.10618085802E+01  0.29093106900E+01  0.32854549635E+01  0.51100000000E-03 0.  1.
        -12    1    3    3    0    0 -0.28489584385E+00  0.21855033085E+02  0.25976580184E+02  0.33948583988E+02  0.00000000000E+00 0.  1.
</event>
<event>
 7    1  0.1541902E-008  0.4614232E+02  0.7816164E-02  0.1320468E+00
        -11   -1    0    0    0    0  0.00000000000E+00  0.00000000000E+00  0.45593999997E+02  0.45594000000E+02  0.51100000000E-03 0.  1.
         11   -1    0    0    0    0 -0.00000000000E+00 -0.00000000000E+00 -0.45593999997E+02  0.45594000000E+02  0.51100000000E-03 0. -1.
    9900012    2    1    2    0    0  0.50772041425E+01 -0.41957249254E+02 -0.15586042478E+02  0.46142317776E+02  0.10000000137E+02 0.  0.
         12    1    1    2    0    0 -0.50772041425E+01  0.41957249254E+02  0.15586042478E+02  0.45045682224E+02  0.00000000000E+00 0. -1.
         11    1    3    3    0    0  0.49895144270E+01 -0.84623017833E+01 -0.45800201258E+01  0.10838929389E+02  0.51100000000E-03 0. -1.
        -11    1    3    3    0    0 -0.21158622647E+00 -0.32205963682E+02 -0.10766619163E+02  0.33958635925E+02  0.51100000000E-03 0.  1.
        -12    1    3    3    0    0  0.29927594194E+00 -0.12889837886E+01 -0.23940318914E+00  0.13447524618E+01  0.00000000000E+00 0.  1.
</event>
<event>
 7    1  0.1541902E-008  0.4614232E+02  0.7816164E-02  0.1320468E+00
        -11   -1    0    0    0    0  0.00000000000E+00  0.00000000000E+00  0.45593999997E+02  0.45594000000E+02  0.51100000000E-03 0. -1.
         11   -1    0    0    0    0 -0.00000000000E+00 -0.00000000000E+00 -0.45593999997E+02  0.45594000000E+02  0.51100000000E-03 0.  1.
    9900012    2    1    2    0    0  0.18948980734E+02  0.36542929367E+02 -0.18293823400E+02  0.46142317275E+02  0.99999955683E+01 0.  0.
         12    1    1    2    0    0 -0.18948980734E+02 -0.36542929367E+02  0.18293823400E+02  0.45045682725E+02  0.00000000000E+00 0. -1.
         11    1    3    3    0    0  0.49864165962E+01  0.76954106685E+01 -0.85915456966E+00  0.92098774511E+01  0.51100000000E-03 0. -1.
        -11    1    3    3    0    0  0.13572326180E+02  0.25509026794E+02 -0.13933470317E+02  0.32078966337E+02  0.51100000000E-03 0.  1.
         12    1    3    3    0    0  0.39023795693E+00  0.33384919050E+01 -0.35011985131E+01  0.48534734872E+01  0.00000000000E+00 0. -1.
</event>
<event>
 7    1  0.1541902E-008  0.4614231E+02  0.7816164E-02  0.1320468E+00
        -11   -1    0    0    0    0  0.00000000000E+00  0.00000000000E+00  0.45593999997E+02  0.45594000000E+02  0.51100000000E-03 0.  1.
         11   -1    0    0    0    0 -0.00000000000E+00 -0.00000000000E+00 -0.45593999997E+02  0.45594000000E+02  0.51100000000E-03 0. -1.
    9900012    2    1    2    0    0 -0.43403997815E+02  0.18400941702E+01  0.11908871549E+02  0.46142309924E+02  0.99999285320E+01 0.  0.
         12    1    1    2    0    0  0.43403997815E+02 -0.18400941702E+01 -0.11908871549E+02  0.45045690076E+02  0.00000000000E+00 0. -1.
         11    1    3    3    0    0 -0.25747973585E+02  0.20598705956E+00  0.65108946729E+01  0.26559222958E+02  0.51100000000E-03 0.  1.
        -11    1    3    3    0    0 -0.65869758265E+01  0.31439037333E+01  0.40039617260E+01  0.83249078666E+01  0.51100000000E-03 0. -1.
         12    1    3    3    0    0 -0.11069048403E+02 -0.15097966227E+01  0.13940151502E+01  0.11258179099E+02  0.00000000000E+00 0. -1.
</event>
<event>
 7    1  0.1541902E-008  0.4614232E+02  0.7816164E-02  0.1320468E+00
        -11   -1    0    0    0    0  0.00000000000E+00  0.00000000000E+00  0.45593999997E+02  0.45594000000E+02  0.51100000000E-03 0.  1.
         11   -1    0    0    0    0 -0.00000000000E+00 -0.00000000000E+00 -0.45593999997E+02  0.45594000000E+02  0.51100000000E-03 0. -1.
    9900012    2    1    2    0    0 -0.15072493193E+02  0.10283031562E+02  0.41184860368E+02  0.46142317492E+02  0.99999975422E+01 0.  0.
         12    1    1    2    0    0  0.15072493193E+02 -0.10283031562E+02 -0.41184860368E+02  0.45045682508E+02  0.00000000000E+00 0. -1.
         11    1    3    3    0    0  0.29241671629E+00 -0.11512538456E+01  0.25113969094E+01  0.27781302436E+01  0.51100000000E-03 0. -1.
        -11    1    3    3    0    0 -0.15442340598E+02  0.11240667086E+02  0.36635603753E+02  0.41315686395E+02  0.51100000000E-03 0.  1.
        -12    1    3    3    0    0  0.77430689063E-01  0.19361832152E+00  0.20378597055E+01  0.20485008531E+01  0.00000000000E+00 0.  1.
</event>
<event>
 7    1  0.1541902E-008  0.4614232E+02  0.7816164E-02  0.1320468E+00
        -11   -1    0    0    0    0  0.00000000000E+00  0.00000000000E+00  0.45593999997E+02  0.45594000000E+02  0.51100000000E-03 0.  1.
         11   -1    0    0    0    0 -0.00000000000E+00 -0.00000000000E+00 -0.45593999997E+02  0.45594000000E+02  0.51100000000E-03 0. -1.
    9900012    2    1    2    0    0 -0.39189046376E+02  0.13636032327E+02  0.17532562073E+02  0.46142318006E+02  0.10000002235E+02 0.  0.
         12    1    1    2    0    0  0.39189046376E+02 -0.13636032327E+02 -0.17532562073E+02  0.45045681994E+02  0.00000000000E+00 0. -1.
         11    1    3    3    0    0 -0.21089116011E+01 -0.11533954763E+01  0.13962573673E+01  0.27798136921E+01  0.51100000000E-03 0. -1.
        -11    1    3    3    0    0 -0.25866653567E+02  0.12740246802E+02  0.11025452133E+02  0.30870021871E+02  0.51100000000E-03 0.  1.
        -12    1    3    3    0    0 -0.11213481208E+02  0.20491810012E+01  0.51108525729E+01  0.12492482443E+02  0.00000000000E+00 0.  1.
</event>
<event>
 7    1  0.1541902E-008  0.4614232E+02  0.7816164E-02  0.1320468E+00
        -11   -1    0    0    0    0  0.00000000000E+00  0.00000000000E+00  0.45593999997E+02  0.45594000000E+02  0.51100000000E-03 0. -1.
         11   -1    0    0    0    0 -0.00000000000E+00 -0.00000000000E+00 -0.45593999997E+02  0.45594000000E+02  0.51100000000E-03 0.  1.
    9900012    2    1    2    0    0 -0.15820203674E+02  0.41618207370E+02  0.68380878647E+01  0.46142317913E+02  0.10000001389E+02 0.  0.
         12    1    1    2    0    0  0.15820203674E+02 -0.41618207370E+02 -0.68380878647E+01  0.45045682087E+02  0.00000000000E+00 0. -1.
         11    1    3    3    0    0 -0.71523084353E+01  0.18119976751E+02  0.49012347161E+01  0.20087587596E+02  0.51100000000E-03 0. -1.
        -11    1    3    3    0    0 -0.32696642071E+01  0.95321926099E+01  0.41888906998E+01  0.10913304061E+02  0.51100000000E-03 0.  1.
        -12    1    3    3    0    0 -0.53982310321E+01  0.13966038009E+02 -0.22520375512E+01  0.15141426256E+02  0.00000000000E+00 0.  1.
</event>
<event>
 7    1  0.1541902E-008  0.4614232E+02  0.7816164E-02  0.1320468E+00
        -11   -1    0    0    0    0  0.00000000000E+00  0.00000000000E+00  0.45593999997E+02  0.45594000000E+02  0.51100000000E-03 0.  1.
         11   -1    0    0    0    0 -0.00000000000E+00 -0.00000000000E+00 -0.45593999997E+02  0.45594000000E+02  0.51100000000E-03 0. -1.
    9900012    2    1    2    0    0 -0.20726856554E+01  0.20707720341E+02  0.39950065073E+02  0.46142318666E+02  0.10000008249E+02 0.  0.
         12    1    1    2    0    0  0.20726856554E+01 -0.20707720341E+02 -0.39950065073E+02  0.45045681334E+02  0.00000000000E+00 0. -1.
         11    1    3    3    0    0  0.25404901372E+01  0.18619479015E+01  0.30713759469E+01  0.43993511560E+01  0.51100000000E-03 0. -1.
        -11    1    3    3    0    0 -0.85926900513E+00  0.74797617413E+01  0.12711057449E+02  0.14773495208E+02  0.51100000000E-03 0.  1.
         12    1    3    3    0    0 -0.37539067874E+01  0.11366010698E+02  0.24167631677E+02  0.26969472302E+02  0.00000000000E+00 0. -1.
</event>
<event>
 7    1  0.1541902E-008  0.4614232E+02  0.7816164E-02  0.1320468E+00
        -11   -1    0    0    0    0  0.00000000000E+00  0.00000000000E+00  0.45593999997E+02  0.45594000000E+02  0.51100000000E-03 0.  1.
         11   -1    0    0    0    0 -0.00000000000E+00 -0.00000000000E+00 -0.45593999997E+02  0.45594000000E+02  0.51100000000E-03 0. -1.
    9900012    2    1    2    0    0 -0.16840286892E+02 -0.31218990003E+02  0.27764957967E+02  0.46142317739E+02  0.99999998008E+01 0.  0.
         12    1    1    2    0    0  0.16840286892E+02  0.31218990003E+02 -0.27764957967E+02  0.45045682261E+02  0.00000000000E+00 0. -1.
         11    1    3    3    0    0 -0.54809482620E+01 -0.15146761428E+02  0.15631452680E+02  0.22445656345E+02  0.51100000000E-03 0. -1.
        -11    1    3    3    0    0 -0.78494190148E+01 -0.96167373144E+01  0.10282596819E+02  0.16119144302E+02  0.51100000000E-03 0.  1.
         12    1    3    3    0    0 -0.35099196153E+01 -0.64554912606E+01  0.18509084687E+01  0.75775170921E+01  0.00000000000E+00 0. -1.
</event>
<event>
 7    1  0.1541902E-008  0.4614232E+02  0.7816164E-02  0.1320468E+00
        -11   -1    0    0    0    0  0.00000000000E+00  0.00000000000E+00  0.45593999997E+02  0.45594000000E+02  0.51100000000E-03 0. -1.
         11   -1    0    0    0    0 -0.00000000000E+00 -0.00000000000E+00 -0.45593999997E+02  0.45594000000E+02  0.51100000000E-03 0.  1.
    9900012    2    1    2    0    0 -0.46981314118E+01 -0.22844955027E+02 -0.38537632849E+02  0.46142317026E+02  0.99999932993E+01 0.  0.
         12    1    1    2    0    0  0.46981314118E+01  0.22844955027E+02  0.38537632849E+02  0.45045682974E+02  0.00000000000E+00 0. -1.
         11    1    3    3    0    0 -0.24315275085E+01 -0.12646016922E+01 -0.55561234514E+01  0.61953249739E+01  0.51100000000E-03 0. -1.
        -11    1    3    3    0    0 -0.42173178334E+01 -0.15678041376E+02 -0.22224550781E+02  0.27523034149E+02  0.51100000000E-03 0.  1.
        -12    1    3    3    0    0  0.19507139301E+01 -0.59023119589E+01 -0.10756958617E+02  0.12423957903E+02  0.00000000000E+00 0.  1.
</event>
<event>
 7    1  0.1541902E-008  0.4614232E+02  0.7816164E-02  0.1320468E+00
        -11   -1    0    0    0    0  0.00000000000E+00  0.00000000000E+00  0.45593999997E+02  0.45594000000E+02  0.51100000000E-03 0. -1.
         11   -1    0    0    0    0 -0.00000000000E+00 -0.00000000000E+00 -0.45593999997E+02  0.45594000000E+02  0.51100000000E-03 0.  1.
    9900012    2    1    2    0    0  0.47694333201E+01  0.34594630721E+02 -0.28453074575E+02  0.46142318501E+02  0.10000006744E+02 0.  0.
         12    1    1    2    0    0 -0.47694333201E+01 -0.34594630721E+02  0.28453074575E+02  0.45045681499E+02  0.00000000000E+00 0. -1.
         11    1    3    3    0    0  0.60243992560E+01  0.19068443499E+02 -0.19671728572E+02  0.28051307085E+02  0.51100000000E-03 0.  1.
        -11    1    3    3    0    0 -0.20569793443E+01  0.98073772337E+01 -0.60198510109E+01  0.11689928087E+02  0.51100000000E-03 0. -1.
        -12    1    3    3    0    0  0.80201340841E+00  0.57188099885E+01 -0.27614949924E+01  0.64010833290E+01  0.00000000000E+00 0.  1.
</event>
<event>
 7    1  0.1541902E-008  0.4614232E+02  0.7816164E-02  0.1320468E+00
        -11   -1    0    0    0    0  0.00000000000E+00  0.00000000000E+00  0.45593999997E+02  0.45594000000E+02  0.51100000000E-03 0.  1.
         11   -1    0    0    0    0 -0.00000000000E+00 -0.00000000000E+00 -0.45593999997E+02  0.45594000000E+02  0.51100000000E-03 0. -1.
    9900012    2    1    2    0    0 -0.16436121293E+02 -0.36756568031E+02  0.20197081936E+02  0.46142317684E+02  0.99999992968E+01 0.  0.
         12    1    1    2    0    0  0.16436121293E+02  0.36756568031E+02 -0.20197081936E+02  0.45045682316E+02  0.00000000000E+00 0. -1.
         11    1    3    3    0    0 -0.92899506942E+01 -0.14962149655E+02  0.52704814167E+01  0.18383337042E+02  0.51100000000E-03 0. -1.
        -11    1    3    3    0    0  0.14452760010E+00 -0.60053069620E+01  0.35576787054E+01  0.69815240433E+01  0.51100000000E-03 0.  1.
         12    1    3    3    0    0 -0.72906981987E+01 -0.15789111415E+02  0.11368921813E+02  0.20777456598E+02  0.00000000000E+00 0. -1.
</event>
<event>
 7    1  0.1541902E-008  0.4614232E+02  0.7816164E-02  0.1320468E+00
        -11   -1    0    0    0    0  0.00000000000E+00  0.00000000000E+00  0.45593999997E+02  0.45594000000E+02  0.51100000000E-03 0.  1.
         11   -1    0    0    0    0 -0.00000000000E+00 -0.00000000000E+00 -0.45593999997E+02  0.45594000000E+02  0.51100000000E-03 0. -1.
    9900012    2    1    2    0    0 -0.30732493963E+02  0.31373858494E+02 -0.10015403348E+02  0.46142317785E+02  0.10000000216E+02 0.  0.
         12    1    1    2    0    0  0.30732493963E+02 -0.31373858494E+02  0.10015403348E+02  0.45045682215E+02  0.00000000000E+00 0. -1.
         11    1    3    3    0    0 -0.18067342268E+02  0.19422035206E+02 -0.37337941129E+01  0.26787786898E+02  0.51100000000E-03 0.  1.
        -11    1    3    3    0    0 -0.27587533484E+01  0.21541859687E+01  0.99080644547E+00  0.36377101174E+01  0.51100000000E-03 0. -1.
        -12    1    3    3    0    0 -0.99063983465E+01  0.97976373195E+01 -0.72724156809E+01  0.15716820769E+02  0.00000000000E+00 0.  1.
</event>
<event>
 7    1  0.1541902E-008  0.4614232E+02  0.7816164E-02  0.1320468E+00
        -11   -1    0    0    0    0  0.00000000000E+00  0.00000000000E+00  0.45593999997E+02  0.45594000000E+02  0.51100000000E-03 0.  1.
         11   -1    0    0    0    0 -0.00000000000E+00 -0.00000000000E+00 -0.45593999997E+02  0.45594000000E+02  0.51100000000E-03 0. -1.
    9900012    2    1    2    0    0  0.48683823403E+01 -0.30192304856E+01  0.44679935029E+02  0.46142317703E+02  0.99999994744E+01 0.  0.
         12    1    1    2    0    0 -0.48683823403E+01  0.30192304856E+01 -0.44679935029E+02  0.45045682297E+02  0.00000000000E+00 0. -1.
         11    1    3    3    0    0  0.20883972644E+01  0.11856693238E+01  0.47308644757E+01  0.53054965675E+01  0.51100000000E-03 0. -1.
        -11    1    3    3    0    0  0.15365422594E+01  0.60530750726E+00  0.25576258296E+02  0.25629521025E+02  0.51100000000E-03 0.  1.
        -12    1    3    3    0    0  0.12434428165E+01 -0.48102073167E+01  0.14372812258E+02  0.15207300111E+02  0.00000000000E+00 0.  1.
</event>
<event>
 7    1  0.1541902E-008  0.4614232E+02  0.7816164E-02  0.1320468E+00
        -11   -1    0    0    0    0  0.00000000000E+00  0.00000000000E+00  0.45593999997E+02  0.45594000000E+02  0.51100000000E-03 0.  1.
         11   -1    0    0    0    0 -0.00000000000E+00 -0.00000000000E+00 -0.45593999997E+02  0.45594000000E+02  0.51100000000E-03 0. -1.
    9900012    2    1    2    0    0  0.55318337688E+01  0.16214828335E+02  0.41660431007E+02  0.46142319247E+02  0.10000013550E+02 0.  0.
         12    1    1    2    0    0 -0.55318337688E+01 -0.16214828335E+02 -0.41660431007E+02  0.45045680753E+02  0.00000000000E+00 0. -1.
         11    1    3    3    0    0 -0.10450373152E+01  0.86317742183E+01  0.15166954474E+02  0.17482452272E+02  0.51100000000E-03 0. -1.
        -11    1    3    3    0    0  0.58374238578E+01  0.53595401307E+01  0.23826059555E+02  0.25109386729E+02  0.51100000000E-03 0.  1.
        -12    1    3    3    0    0  0.73944722616E+00  0.22235139865E+01  0.26674169780E+01  0.35504802468E+01  0.00000000000E+00 0.  1.
</event>
<event>
 7    1  0.1541902E-008  0.4614232E+02  0.7816164E-02  0.1320468E+00
        -11   -1    0    0    0    0  0.00000000000E+00  0.00000000000E+00  0.45593999997E+02  0.45594000000E+02  0.51100000000E-03 0. -1.
         11   -1    0    0    0    0 -0.00000000000E+00 -0.00000000000E+00 -0.45593999997E+02  0.45594000000E+02  0.51100000000E-03 0.  1.
    9900012    2    1    2    0    0 -0.21582719917E+01  0.38054585919E+02  0.24006328478E+02  0.46142318138E+02  0.10000003434E+02 0.  0.
         12    1    1    2    0    0  0.21582719917E+01 -0.38054585919E+02 -0.24006328478E+02  0.45045681862E+02  0.00000000000E+00 0. -1.
         11    1    3    3    0    0 -0.46677685906E+00  0.50726377289E+00 -0.45219606376E+00  0.82442629303E+00  0.51100000000E-03 0. -1.
        -11    1    3    3    0    0 -0.87555479638E+00  0.17578558884E+02  0.75980062612E+01  0.19170342408E+02  0.51100000000E-03 0.  1.
        -12    1    3    3    0    0 -0.81594033624E+00  0.19968763262E+02  0.16860518280E+02  0.26147549436E+02  0.00000000000E+00 0.  1.
</event>
<event>
 7    1  0.1541902E-008  0.4614232E+02  0.7816164E-02  0.1320468E+00
        -11   -1    0    0    0    0  0.00000000000E+00  0.00000000000E+00  0.45593999997E+02  0.45594000000E+02  0.51100000000E-03 0.  1.
         11   -1    0    0    0    0 -0.00000000000E+00 -0.00000000000E+00 -0.45593999997E+02  0.45594000000E+02  0.51100000000E-03 0. -1.
    9900012    2    1    2    0    0  0.11463329779E+02  0.39783991800E+02  0.17746539650E+02  0.46142316492E+02  0.99999884279E+01 0.  0.
         12    1    1    2    0    0 -0.11463329779E+02 -0.39783991800E+02 -0.17746539650E+02  0.45045683508E+02  0.00000000000E+00 0. -1.
         11    1    3    3    0    0  0.53265179742E+01  0.94395120627E+01  0.36893603032E+01  0.11449347642E+02  0.51100000000E-03 0. -1.
        -11    1    3    3    0    0  0.66521155572E+01  0.15791456174E+02  0.82117253339E+01  0.19001398967E+02  0.51100000000E-03 0.  1.
        -12    1    3    3    0    0 -0.51530375285E+00  0.14553023564E+02  0.58454540126E+01  0.15691569884E+02  0.00000000000E+00 0.  1.
</event>
<event>
 7    1  0.1541902E-008  0.4614232E+02  0.7816164E-02  0.1320468E+00
        -11   -1    0    0    0    0  0.00000000000E+00  0.00000000000E+00  0.45593999997E+02  0.45594000000E+02  0.51100000000E-03 0.  1.
         11   -1    0    0    0    0 -0.00000000000E+00 -0.00000000000E+00 -0.45593999997E+02  0.45594000000E+02  0.51100000000E-03 0. -1.
    9900012    2    1    2    0    0 -0.17458480422E+02  0.36867512679E+02  0.19107630365E+02  0.46142316878E+02  0.99999919431E+01 0.  0.
         12    1    1    2    0    0  0.17458480422E+02 -0.36867512679E+02 -0.19107630365E+02  0.45045683122E+02  0.00000000000E+00 0. -1.
         11    1    3    3    0    0 -0.85208706546E+00 -0.96140771071E-01 -0.11525900736E+00  0.86520535995E+00  0.51100000000E-03 0. -1.
        -11    1    3    3    0    0 -0.92022546574E+01  0.16351864789E+02  0.60269017836E+01  0.19707575149E+02  0.51100000000E-03 0.  1.
        -12    1    3    3    0    0 -0.74041386995E+01  0.20611788661E+02  0.13195987589E+02  0.25569536369E+02  0.00000000000E+00 0.  1.
</event>
<event>
 7    1  0.1541902E-008  0.4614232E+02  0.7816164E-02  0.1320468E+00
        -11   -1    0    0    0    0  0.00000000000E+00  0.00000000000E+00  0.45593999997E+02  0.45594000000E+02  0.51100000000E-03 0. -1.
         11   -1    0    0    0    0 -0.00000000000E+00 -0.00000000000E+00 -0.45593999997E+02  0.45594000000E+02  0.51100000000E-03 0.  1.
    9900012    2    1    2    0    0  0.37393244221E+02 -0.24810677886E+02  0.39100951531E+01  0.46142319912E+02  0.10000019609E+02 0.  0.
         12    1    1    2    0    0 -0.37393244221E+02  0.24810677886E+02 -0.39100951531E+01  0.45045680088E+02  0.00000000000E+00 0. -1.
         11    1    3    3    0    0  0.21200203290E+01 -0.44475973610E+01  0.67901090680E+00  0.49735967422E+01  0.51100000000E-03 0. -1.
        -11    1    3    3    0    0  0.31394823608E+02 -0.19024434450E+02  0.15713041790E+01  0.36742795928E+02  0.51100000000E-03 0.  1.
         12    1    3    3    0    0  0.38784002839E+01 -0.13386460757E+01  0.16597800673E+01  0.44259272418E+01  0.00000000000E+00 0. -1.
</event>
<event>
 7    1  0.1541902E-008  0.4614232E+02  0.7816164E-02  0.1320468E+00
        -11   -1    0    0    0    0  0.00000000000E+00  0.00000000000E+00  0.45593999997E+02  0.45594000000E+02  0.51100000000E-03 0.  1.
         11   -1    0    0    0    0 -0.00000000000E+00 -0.00000000000E+00 -0.45593999997E+02  0.45594000000E+02  0.51100000000E-03 0. -1.
    9900012    2    1    2    0    0  0.11692628844E+02 -0.85018375903E+01  0.42662802582E+02  0.46142317234E+02  0.99999951941E+01 0.  0.
         12    1    1    2    0    0 -0.11692628844E+02  0.85018375903E+01 -0.42662802582E+02  0.45045682766E+02  0.00000000000E+00 0. -1.
         11    1    3    3    0    0  0.76351271742E+01 -0.26461923251E+01  0.18643665467E+02  0.20319541409E+02  0.51100000000E-03 0.  1.
        -11    1    3    3    0    0  0.12138923527E+00 -0.17510692747E+00 -0.39528846583E+00  0.44905569234E+00  0.51100000000E-03 0. -1.
         12    1    3    3    0    0  0.39361124347E+01 -0.56805383377E+01  0.24414425581E+02  0.25373720133E+02  0.00000000000E+00 0. -1.
</event>
<event>
 7    1  0.1541902E-008  0.4614232E+02  0.7816164E-02  0.1320468E+00
        -11   -1    0    0    0    0  0.00000000000E+00  0.00000000000E+00  0.45593999997E+02  0.45594000000E+02  0.51100000000E-03 0. -1.
         11   -1    0    0    0    0 -0.00000000000E+00 -0.00000000000E+00 -0.45593999997E+02  0.45594000000E+02  0.51100000000E-03 0.  1.
    9900012    2    1    2    0    0 -0.68177680740E+01  0.34385612566E+02 -0.28288890517E+02  0.46142316081E+02  0.99999846815E+01 0.  0.
         12    1    1    2    0    0  0.68177680740E+01 -0.34385612566E+02  0.28288890517E+02  0.45045683919E+02  0.00000000000E+00 0. -1.
         11    1    3    3    0    0 -0.22189930480E+01  0.35175188871E+01 -0.16846317709E+01  0.44871877310E+01  0.51100000000E-03 0.  1.
        -11    1    3    3    0    0  0.82709941038E+00  0.21687616266E+01 -0.28505385753E+00  0.23385628900E+01  0.51100000000E-03 0. -1.
        -12    1    3    3    0    0 -0.54258744365E+01  0.28699332052E+02 -0.26319204888E+02  0.39316565460E+02  0.00000000000E+00 0.  1.
</event>
<event>
 7    1  0.1541902E-008  0.4614232E+02  0.7816164E-02  0.1320468E+00
        -11   -1    0    0    0    0  0.00000000000E+00  0.00000000000E+00  0.45593999997E+02  0.45594000000E+02  0.51100000000E-03 0.  1.
         11   -1    0    0    0    0 -0.00000000000E+00 -0.00000000000E+00 -0.45593999997E+02  0.45594000000E+02  0.51100000000E-03 0. -1.
    9900012    2    1    2    0    0 -0.21226140649E+02 -0.31947560060E+02  0.23620283206E+02  0.46142318527E+02  0.10000006981E+02 0.  0.
         12    1    1    2    0    0  0.21226140649E+02  0.31947560060E+02 -0.23620283206E+02  0.45045681473E+02  0.00000000000E+00 0. -1.
         11    1    3    3    0    0 -0.12245312597E+02 -0.11025044600E+02  0.10762835028E+02  0.19680902091E+02  0.51100000000E-03 0. -1.
        -11    1    3    3    0    0 -0.79405647684E+01 -0.20360346405E+02  0.11625244262E+02  0.24753637692E+02  0.51100000000E-03 0.  1.
         12    1    3    3    0    0 -0.10402632836E+01 -0.56216905587E+00  0.12322039161E+01  0.17077787437E+01  0.00000000000E+00 0. -1.
</event>
<event>
 7    1  0.1541902E-008  0.4614232E+02  0.7816164E-02  0.1320468E+00
        -11   -1    0    0    0    0  0.00000000000E+00  0.00000000000E+00  0.45593999997E+02  0.45594000000E+02  0.51100000000E-03 0.  1.
         11   -1    0    0    0    0 -0.00000000000E+00 -0.00000000000E+00 -0.45593999997E+02  0.45594000000E+02  0.51100000000E-03 0. -1.
    9900012    2    1    2    0    0 -0.37392470617E+02  0.22188344069E+02 -0.11772575857E+02  0.46142323030E+02  0.10000048046E+02 0.  0.
         12    1    1    2    0    0  0.37392470617E+02 -0.22188344069E+02  0.11772575857E+02  0.45045676970E+02  0.00000000000E+00 0. -1.
         11    1    3    3    0    0 -0.18175726732E+02  0.67821407954E+01 -0.41554506574E+01  0.19839915485E+02  0.51100000000E-03 0. -1.
        -11    1    3    3    0    0 -0.70702106701E+01  0.87764539507E+01 -0.24658681806E+01  0.11536660219E+02  0.51100000000E-03 0.  1.
         12    1    3    3    0    0 -0.12146533215E+02  0.66297493232E+01 -0.51512570188E+01  0.14765747326E+02  0.00000000000E+00 0. -1.
</event>
<event>
 7    1  0.1541902E-008  0.4614232E+02  0.7816164E-02  0.1320468E+00
        -11   -1    0    0    0    0  0.00000000000E+00  0.00000000000E+00  0.45593999997E+02  0.45594000000E+02  0.51100000000E-03 0.  1.
         11   -1    0    0    0    0 -0.00000000000E+00 -0.00000000000E+00 -0.45593999997E+02  0.45594000000E+02  0.51100000000E-03 0. -1.
    9900012    2    1    2    0    0 -0.11775368969E+02  0.42414020311E+02  0.95658223225E+01  0.46142318853E+02  0.10000009956E+02 0.  0.
         12    1    1    2    0    0  0.11775368969E+02 -0.42414020311E+02 -0.95658223225E+01  0.45045681147E+02  0.00000000000E+00 0. -1.
         11    1    3    3    0    0 -0.21417661897E+01  0.50061548009E+01  0.38447831860E+01  0.66656662315E+01  0.51100000000E-03 0. -1.
        -11    1    3    3    0    0 -0.85730508555E+01  0.36890860299E+02  0.56672656965E+01  0.38295569917E+02  0.51100000000E-03 0.  1.
        -12    1    3    3    0    0 -0.10605519237E+01  0.51700521164E+00  0.53773440084E-01  0.11810827043E+01  0.00000000000E+00 0.  1.
</event>
<event>
 7    1  0.1541902E-008  0.4614232E+02  0.7816164E-02  0.1320468E+00
        -11   -1    0    0    0    0  0.00000000000E+00  0.00000000000E+00  0.45593999997E+02  0.45594000000E+02  0.51100000000E-03 0. -1.
         11   -1    0    0    0    0 -0.00000000000E+00 -0.00000000000E+00 -0.45593999997E+02  0.45594000000E+02  0.51100000000E-03 0.  1.
    9900012    2    1    2    0    0  0.16566681753E+02  0.40775467416E+02 -0.95926926608E+01  0.46142318300E+02  0.10000004912E+02 0.  0.
         12    1    1    2    0    0 -0.16566681753E+02 -0.40775467416E+02  0.95926926608E+01  0.45045681700E+02  0.00000000000E+00 0. -1.
         11    1    3    3    0    0  0.30412404807E+01  0.10328237356E+02  0.10601616820E+01  0.10818760262E+02  0.51100000000E-03 0. -1.
        -11    1    3    3    0    0  0.79785459536E+01  0.20873063498E+02 -0.91917329487E+01  0.24162572921E+02  0.51100000000E-03 0.  1.
         12    1    3    3    0    0  0.55468953192E+01  0.95741665625E+01 -0.14611213941E+01  0.11160985117E+02  0.00000000000E+00 0. -1.
</event>
<event>
 7    1  0.1541902E-008  0.4614232E+02  0.7816164E-02  0.1320468E+00
        -11   -1    0    0    0    0  0.00000000000E+00  0.00000000000E+00  0.45593999997E+02  0.45594000000E+02  0.51100000000E-03 0.  1.
         11   -1    0    0    0    0 -0.00000000000E+00 -0.00000000000E+00 -0.45593999997E+02  0.45594000000E+02  0.51100000000E-03 0. -1.
    9900012    2    1    2    0    0  0.23417601487E+01 -0.36874382505E+02  0.25766444573E+02  0.46142316615E+02  0.99999895500E+01 0.  0.
         12    1    1    2    0    0 -0.23417601487E+01  0.36874382505E+02 -0.25766444573E+02  0.45045683385E+02  0.00000000000E+00 0. -1.
         11    1    3    3    0    0  0.72316692628E+00 -0.19223913947E+01  0.16853467340E+00  0.20608161672E+01  0.51100000000E-03 0. -1.
        -11    1    3    3    0    0 -0.14356191034E+01 -0.27703211715E+02  0.22124942149E+02  0.35482981933E+02  0.51100000000E-03 0.  1.
        -12    1    3    3    0    0  0.30542123258E+01 -0.72487793954E+01  0.34729677502E+01  0.85985185147E+01  0.00000000000E+00 0.  1.
</event>
<event>
 7    1  0.1541902E-008  0.4614232E+02  0.7816164E-02  0.1320468E+00
        -11   -1    0    0    0    0  0.00000000000E+00  0.00000000000E+00  0.45593999997E+02  0.45594000000E+02  0.51100000000E-03 0.  1.
         11   -1    0    0    0    0 -0.00000000000E+00 -0.00000000000E+00 -0.45593999997E+02  0.45594000000E+02  0.51100000000E-03 0. -1.
    9900012    2    1    2    0    0  0.29546432133E+02  0.18089094220E+02  0.28790735711E+02  0.46142318251E+02  0.10000004464E+02 0.  0.
         12    1    1    2    0    0 -0.29546432133E+02 -0.18089094220E+02 -0.28790735711E+02  0.45045681749E+02  0.00000000000E+00 0. -1.
         11    1    3    3    0    0  0.10040475252E+02  0.90229623891E+01  0.15971080927E+02  0.20911729239E+02  0.51100000000E-03 0. -1.
        -11    1    3    3    0    0  0.11759170502E+02  0.69868058933E+01  0.74167533508E+01  0.15559620111E+02  0.51100000000E-03 0.  1.
        -12    1    3    3    0    0  0.77467863793E+01  0.20793259374E+01  0.54029014337E+01  0.96709688999E+01  0.00000000000E+00 0.  1.
</event>
<event>
 7    1  0.1541902E-008  0.4614232E+02  0.7816164E-02  0.1320468E+00
        -11   -1    0    0    0    0  0.00000000000E+00  0.00000000000E+00  0.45593999997E+02  0.45594000000E+02  0.51100000000E-03 0. -1.
         11   -1    0    0    0    0 -0.00000000000E+00 -0.00000000000E+00 -0.45593999997E+02  0.45594000000E+02  0.51100000000E-03 0.  1.
    9900012    2    1    2    0    0 -0.24229191323E+02  0.20457687141E+01 -0.37919316370E+02  0.46142318344E+02  0.10000005318E+02 0.  0.
         12    1    1    2    0    0  0.24229191323E+02 -0.20457687141E+01  0.37919316370E+02  0.45045681656E+02  0.00000000000E+00 0. -1.
         11    1    3    3    0    0 -0.97207708074E+00 -0.35352908215E+00 -0.42319076727E+01  0.43564847611E+01  0.51100000000E-03 0. -1.
        -11    1    3    3    0    0 -0.10045036658E+01  0.21958722612E+01 -0.41844951248E+01  0.48312402458E+01  0.51100000000E-03 0.  1.
        -12    1    3    3    0    0 -0.22252610577E+02  0.20342553507E+00 -0.29502913573E+02  0.36954593337E+02  0.00000000000E+00 0.  1.
</event>
<event>
 7    1  0.1541902E-008  0.4614232E+02  0.7816164E-02  0.1320468E+00
        -11   -1    0    0    0    0  0.00000000000E+00  0.00000000000E+00  0.45593999997E+02  0.45594000000E+02  0.51100000000E-03 0.  1.
         11   -1    0    0    0    0 -0.00000000000E+00 -0.00000000000E+00 -0.45593999997E+02  0.45594000000E+02  0.51100000000E-03 0. -1.
    9900012    2    1    2    0    0  0.35150964452E+02  0.10929526703E+02  0.25962834308E+02  0.46142316287E+02  0.99999865562E+01 0.  0.
         12    1    1    2    0    0 -0.35150964452E+02 -0.10929526703E+02 -0.25962834308E+02  0.45045683713E+02  0.00000000000E+00 0. -1.
         11    1    3    3    0    0  0.20170719105E+02  0.38588548868E+01  0.12720047362E+02  0.24156743891E+02  0.51100000000E-03 0. -1.
        -11    1    3    3    0    0  0.11634541662E+02  0.77613909953E+01  0.11711863825E+02  0.18241970956E+02  0.51100000000E-03 0.  1.
         12    1    3    3    0    0  0.33457036852E+01 -0.69071917915E+00  0.15309231212E+01  0.37436014394E+01  0.00000000000E+00 0. -1.
</event>
<event>
 7    1  0.1541902E-008  0.4614232E+02  0.7816164E-02  0.1320468E+00
        -11   -1    0    0    0    0  0.00000000000E+00  0.00000000000E+00  0.45593999997E+02  0.45594000000E+02  0.51100000000E-03 0.  1.
         11   -1    0    0    0    0 -0.00000000000E+00 -0.00000000000E+00 -0.45593999997E+02  0.45594000000E+02  0.51100000000E-03 0. -1.
    9900012    2    1    2    0    0 -0.12978379903E+02  0.13407238998E+02  0.40999038343E+02  0.46142317105E+02  0.99999940142E+01 0.  0.
         12    1    1    2    0    0  0.12978379903E+02 -0.13407238998E+02 -0.40999038343E+02  0.45045682895E+02  0.00000000000E+00 0. -1.
         11    1    3    3    0    0  0.69212484960E+00 -0.53632363044E+00  0.11924548127E+01  0.14794014281E+01  0.51100000000E-03 0. -1.
        -11    1    3    3    0    0 -0.59834150596E+01  0.93661035911E+01  0.18957087672E+02  0.21974902173E+02  0.51100000000E-03 0.  1.
        -12    1    3    3    0    0 -0.76870896926E+01  0.45774590371E+01  0.20849495859E+02  0.22688013504E+02  0.00000000000E+00 0.  1.
</event>
<event>
 7    1  0.1541902E-008  0.4614232E+02  0.7816164E-02  0.1320468E+00
        -11   -1    0    0    0    0  0.00000000000E+00  0.00000000000E+00  0.45593999997E+02  0.45594000000E+02  0.51100000000E-03 0. -1.
         11   -1    0    0    0    0 -0.00000000000E+00 -0.00000000000E+00 -0.45593999997E+02  0.45594000000E+02  0.51100000000E-03 0.  1.
    9900012    2    1    2    0    0  0.38422104207E+02  0.21617874570E+02 -0.92478586973E+01  0.46142317820E+02  0.10000000537E+02 0.  0.
         12    1    1    2    0    0 -0.38422104207E+02 -0.21617874570E+02  0.92478586973E+01  0.45045682180E+02  0.00000000000E+00 0. -1.
         11    1    3    3    0    0  0.98546289537E+01  0.45032318768E+01  0.18839224999E+01  0.10997362111E+02  0.51100000000E-03 0. -1.
        -11    1    3    3    0    0  0.14848008583E+02  0.80677233591E+01 -0.58923377437E+01  0.17896121463E+02  0.51100000000E-03 0.  1.
         12    1    3    3    0    0  0.13719466670E+02  0.90469193337E+01 -0.52394434534E+01  0.17248834246E+02  0.00000000000E+00 0. -1.
</event>
<event>
 7    1  0.1541902E-008  0.4614232E+02  0.7816164E-02  0.1320468E+00
        -11   -1    0    0    0    0  0.00000000000E+00  0.00000000000E+00  0.45593999997E+02  0.45594000000E+02  0.51100000000E-03 0.  1.
         11   -1    0    0    0    0 -0.00000000000E+00 -0.00000000000E+00 -0.45593999997E+02  0.45594000000E+02  0.51100000000E-03 0. -1.
    9900012    2    1    2    0    0 -0.21771656530E+02  0.28285575488E+01  0.39333290014E+02  0.46142317974E+02  0.10000001945E+02 0.  0.
         12    1    1    2    0    0  0.21771656530E+02 -0.28285575488E+01 -0.39333290014E+02  0.45045682026E+02  0.00000000000E+00 0. -1.
         11    1    3    3    0    0 -0.47735407307E+01  0.83537673001E+00  0.31404410500E+01  0.57746788342E+01  0.51100000000E-03 0. -1.
        -11    1    3    3    0    0 -0.52348322741E+01 -0.13550443942E+01  0.14330268297E+02  0.15316533680E+02  0.51100000000E-03 0.  1.
         12    1    3    3    0    0 -0.11763283525E+02  0.33482252130E+01  0.21862580666E+02  0.25051105460E+02  0.00000000000E+00 0. -1.
</event>
<event>
 7    1  0.1541902E-008  0.4614232E+02  0.7816164E-02  0.1320468E+00
        -11   -1    0    0    0    0  0.00000000000E+00  0.00000000000E+00  0.45593999997E+02  0.45594000000E+02  0.51100000000E-03 0.  1.
         11   -1    0    0    0    0 -0.00000000000E+00 -0.00000000000E+00 -0.45593999997E+02  0.45594000000E+02  0.51100000000E-03 0. -1.
    9900012    2    1    2    0    0 -0.14743408913E+02 -0.36797267991E+02  0.21394074902E+02  0.46142317867E+02  0.10000000963E+02 0.  0.
         12    1    1    2    0    0  0.14743408913E+02  0.36797267991E+02 -0.21394074902E+02  0.45045682133E+02  0.00000000000E+00 0. -1.
         11    1    3    3    0    0  0.26483232339E+00 -0.62641935991E+01  0.27573252453E+01  0.68493138617E+01  0.51100000000E-03 0. -1.
        -11    1    3    3    0    0 -0.12561433968E+02 -0.21783572925E+02  0.16107074052E+02  0.29862208684E+02  0.51100000000E-03 0.  1.
        -12    1    3    3    0    0 -0.24468072685E+01 -0.87495014661E+01  0.25296756042E+01  0.94307953206E+01  0.00000000000E+00 0.  1.
</event>
<event>
 7    1  0.1541902E-008  0.4614232E+02  0.7816164E-02  0.1320468E+00
        -11   -1    0    0    0    0  0.00000000000E+00  0.00000000000E+00  0.45593999997E+02  0.45594000000E+02  0.51100000000E-03 0.  1.
         11   -1    0    0    0    0 -0.00000000000E+00 -0.00000000000E+00 -0.45593999997E+02  0.45594000000E+02  0.51100000000E-03 0. -1.
    9900012    2    1    2    0    0  0.14831410553E+02  0.32705352326E+02  0.27193798333E+02  0.46142317881E+02  0.10000001096E+02 0.  0.
         12    1    1    2    0    0 -0.14831410553E+02 -0.32705352326E+02 -0.27193798333E+02  0.45045682119E+02  0.00000000000E+00 0. -1.
         11    1    3    3    0    0  0.10536538488E+01  0.58687257550E+01  0.10415959108E+01  0.60528547581E+01  0.51100000000E-03 0. -1.
        -11    1    3    3    0    0  0.43633488092E+01  0.10820049276E+02  0.11982889576E+02  0.16724291376E+02  0.51100000000E-03 0.  1.
         12    1    3    3    0    0  0.94144078945E+01  0.16016577296E+02  0.14169312846E+02  0.23365171748E+02  0.00000000000E+00 0. -1.
</event>
<event>
 7    1  0.1541902E-008  0.4614232E+02  0.7816164E-02  0.1320468E+00
        -11   -1    0    0    0    0  0.00000000000E+00  0.00000000000E+00  0.45593999997E+02  0.45594000000E+02  0.51100000000E-03 0.  1.
         11   -1    0    0    0    0 -0.00000000000E+00 -0.00000000000E+00 -0.45593999997E+02  0.45594000000E+02  0.51100000000E-03 0. -1.
    9900012    2    1    2    0    0  0.20272009646E+02 -0.17724558535E+02  0.36110928260E+02  0.46142317741E+02  0.99999998170E+01 0.  0.
         12    1    1    2    0    0 -0.20272009646E+02  0.17724558535E+02 -0.36110928260E+02  0.45045682259E+02  0.00000000000E+00 0. -1.
         11    1    3    3    0    0  0.13053848597E+02 -0.85333835366E+01  0.17198255107E+02  0.23216407491E+02  0.51100000000E-03 0. -1.
        -11    1    3    3    0    0 -0.81602883191E+00 -0.10604448744E+01  0.34232913112E+01  0.36755094952E+01  0.51100000000E-03 0.  1.
        -12    1    3    3    0    0  0.80341898810E+01 -0.81307301236E+01  0.15489381842E+02  0.19250400755E+02  0.00000000000E+00 0.  1.
</event>
<event>
 7    1  0.1541902E-008  0.4614232E+02  0.7816164E-02  0.1320468E+00
        -11   -1    0    0    0    0  0.00000000000E+00  0.00000000000E+00  0.45593999997E+02  0.45594000000E+02  0.51100000000E-03 0. -1.
         11   -1    0    0    0    0 -0.00000000000E+00 -0.00000000000E+00 -0.45593999997E+02  0.45594000000E+02  0.51100000000E-03 0.  1.
    9900012    2    1    2    0    0 -0.36785842624E+02 -0.22423518796E+02  0.13156784642E+02  0.46142318799E+02  0.10000009463E+02 0.  0.
         12    1    1    2    0    0  0.36785842624E+02  0.22423518796E+02 -0.13156784642E+02  0.45045681201E+02  0.00000000000E+00 0. -1.
         11    1    3    3    0    0 -0.12469491910E+02 -0.71738380351E+01  0.37161556938E+01  0.14858061584E+02  0.51100000000E-03 0. -1.
        -11    1    3    3    0    0 -0.28928546442E+01 -0.19312826749E+01 -0.15001006314E+01  0.37879760993E+01  0.51100000000E-03 0.  1.
         12    1    3    3    0    0 -0.21423496070E+02 -0.13318398086E+02  0.10940729579E+02  0.27496281115E+02  0.00000000000E+00 0. -1.
</event>
<event>
 7    1  0.1541902E-008  0.4614232E+02  0.7816164E-02  0.1320468E+00
        -11   -1    0    0    0    0  0.00000000000E+00  0.00000000000E+00  0.45593999997E+02  0.45594000000E+02  0.51100000000E-03 0.  1.
         11   -1    0    0    0    0 -0.00000000000E+00 -0.00000000000E+00 -0.45593999997E+02  0.45594000000E+02  0.51100000000E-03 0. -1.
    9900012    2    1    2    0    0 -0.43113770513E+02 -0.12978478941E+02  0.13694305999E+01  0.46142318036E+02  0.10000002506E+02 0.  0.
         12    1    1    2    0    0  0.43113770513E+02  0.12978478941E+02 -0.13694305999E+01  0.45045681964E+02  0.00000000000E+00 0. -1.
         11    1    3    3    0    0 -0.16182375506E+02 -0.48726890697E+01  0.36850054570E+01  0.17297157028E+02  0.51100000000E-03 0. -1.
        -11    1    3    3    0    0 -0.12177030401E+02 -0.62457789188E+01 -0.27881204953E+01  0.13966511370E+02  0.51100000000E-03 0.  1.
        -12    1    3    3    0    0 -0.14754364606E+02 -0.18600109529E+01  0.47254563815E+00  0.14878649638E+02  0.00000000000E+00 0.  1.
</event>
<event>
 7    1  0.1541902E-008  0.4614232E+02  0.7816164E-02  0.1320468E+00
        -11   -1    0    0    0    0  0.00000000000E+00  0.00000000000E+00  0.45593999997E+02  0.45594000000E+02  0.51100000000E-03 0.  1.
         11   -1    0    0    0    0 -0.00000000000E+00 -0.00000000000E+00 -0.45593999997E+02  0.45594000000E+02  0.51100000000E-03 0. -1.
    9900012    2    1    2    0    0 -0.39955033174E+02  0.74644015445E+01  0.19416268659E+02  0.46142318131E+02  0.10000003376E+02 0.  0.
         12    1    1    2    0    0  0.39955033174E+02 -0.74644015445E+01 -0.19416268659E+02  0.45045681869E+02  0.00000000000E+00 0. -1.
         11    1    3    3    0    0 -0.11244991893E+02 -0.20870607113E+01  0.44270725858E+01  0.12263956825E+02  0.51100000000E-03 0. -1.
        -11    1    3    3    0    0 -0.16553156238E+02  0.48363809448E+01  0.71854384759E+01  0.18682293447E+02  0.51100000000E-03 0.  1.
         12    1    3    3    0    0 -0.12156885044E+02  0.47150813110E+01  0.78037575977E+01  0.15196067859E+02  0.00000000000E+00 0. -1.
</event>
<event>
 7    1  0.1541902E-008  0.4614232E+02  0.7816164E-02  0.1320468E+00
        -11   -1    0    0    0    0  0.00000000000E+00  0.00000000000E+00  0.45593999997E+02  0.45594000000E+02  0.51100000000E-03 0. -1.
         11   -1    0    0    0    0 -0.00000000000E+00 -0.00000000000E+00 -0.45593999997E+02  0.45594000000E+02  0.51100000000E-03 0.  1.
    9900012    2    1    2    0    0 -0.24749476753E+02  0.31376252244E+02 -0.20787194843E+02  0.46142320142E+02  0.10000021714E+02 0.  0.
         12    1    1    2    0    0  0.24749476753E+02 -0.31376252244E+02  0.20787194843E+02  0.45045679858E+02  0.00000000000E+00 0. -1.
         11    1    3    3    0    0 -0.15688839115E+01  0.60625450729E+01 -0.28800301325E+01  0.68927805212E+01  0.51100000000E-03 0. -1.
        -11    1    3    3    0    0 -0.17107307170E+02  0.18336542972E+02 -0.16166652626E+02  0.29837047845E+02  0.51100000000E-03 0.  1.
         12    1    3    3    0    0 -0.60732856718E+01  0.69771641990E+01 -0.17405120850E+01  0.94124917757E+01  0.00000000000E+00 0. -1.
</event>
<event>
 7    1  0.1541902E-008  0.4614232E+02  0.7816164E-02  0.1320468E+00
        -11   -1    0    0    0    0  0.00000000000E+00  0.00000000000E+00  0.45593999997E+02  0.45594000000E+02  0.51100000000E-03 0.  1.
         11   -1    0    0    0    0 -0.00000000000E+00 -0.00000000000E+00 -0.45593999997E+02  0.45594000000E+02  0.51100000000E-03 0. -1.
    9900012    2    1    2    0    0  0.17710618318E+02 -0.12397147712E+02  0.39519085537E+02  0.46142318805E+02  0.10000009519E+02 0.  0.
         12    1    1    2    0    0 -0.17710618318E+02  0.12397147712E+02 -0.39519085537E+02  0.45045681195E+02  0.00000000000E+00 0. -1.
         11    1    3    3    0    0  0.88325996816E+01 -0.60770440746E+01  0.12087329472E+02  0.16157005163E+02  0.51100000000E-03 0. -1.
        -11    1    3    3    0    0  0.56537626939E+01 -0.79356332120E+00  0.13135430847E+02  0.14322510923E+02  0.51100000000E-03 0.  1.
        -12    1    3    3    0    0  0.32242559429E+01 -0.55265403163E+01  0.14296325218E+02  0.15662802718E+02  0.00000000000E+00 0.  1.
</event>
<event>
 7    1  0.1541902E-008  0.4614232E+02  0.7816164E-02  0.1320468E+00
        -11   -1    0    0    0    0  0.00000000000E+00  0.00000000000E+00  0.45593999997E+02  0.45594000000E+02  0.51100000000E-03 0.  1.
         11   -1    0    0    0    0 -0.00000000000E+00 -0.00000000000E+00 -0.45593999997E+02  0.45594000000E+02  0.51100000000E-03 0. -1.
    9900012    2    1    2    0    0 -0.23356280633E+02  0.29864691962E+02  0.24324837972E+02  0.46142318593E+02  0.10000007589E+02 0.  0.
         12    1    1    2    0    0  0.23356280633E+02 -0.29864691962E+02 -0.24324837972E+02  0.45045681407E+02  0.00000000000E+00 0. -1.
         11    1    3    3    0    0 -0.75309935985E+01  0.59031578288E+01  0.60656465190E+01  0.11329395610E+02  0.51100000000E-03 0. -1.
        -11    1    3    3    0    0 -0.10027443621E+01  0.16651441241E+01  0.40729277792E+01  0.45129748687E+01  0.51100000000E-03 0.  1.
        -12    1    3    3    0    0 -0.14822542672E+02  0.22296390009E+02  0.14186263674E+02  0.30299948115E+02  0.00000000000E+00 0.  1.
</event>
<event>
 7    1  0.1541902E-008  0.4614232E+02  0.7816164E-02  0.1320468E+00
        -11   -1    0    0    0    0  0.00000000000E+00  0.00000000000E+00  0.45593999997E+02  0.45594000000E+02  0.51100000000E-03 0.  1.
         11   -1    0    0    0    0 -0.00000000000E+00 -0.00000000000E+00 -0.45593999997E+02  0.45594000000E+02  0.51100000000E-03 0. -1.
    9900012    2    1    2    0    0 -0.40273056771E+02  0.13962285045E+02 -0.14568767239E+02  0.46142317807E+02  0.10000000421E+02 0.  0.
         12    1    1    2    0    0  0.40273056771E+02 -0.13962285045E+02  0.14568767239E+02  0.45045682193E+02  0.00000000000E+00 0. -1.
         11    1    3    3    0    0 -0.78211397111E+01  0.13869319829E+00 -0.45307064399E+01  0.90397324789E+01  0.51100000000E-03 0. -1.
        -11    1    3    3    0    0 -0.80110929374E+01  0.61217541120E+01 -0.24222804101E+01  0.10369229774E+02  0.51100000000E-03 0.  1.
        -12    1    3    3    0    0 -0.24440824122E+02  0.77018377343E+01 -0.76157803888E+01  0.26733355554E+02  0.00000000000E+00 0.  1.
</event>
<event>
 7    1  0.1541902E-008  0.4614232E+02  0.7816164E-02  0.1320468E+00
        -11   -1    0    0    0    0  0.00000000000E+00  0.00000000000E+00  0.45593999997E+02  0.45594000000E+02  0.51100000000E-03 0.  1.
         11   -1    0    0    0    0 -0.00000000000E+00 -0.00000000000E+00 -0.45593999997E+02  0.45594000000E+02  0.51100000000E-03 0. -1.
    9900012    2    1    2    0    0  0.12302479837E+01  0.44767557448E+02  0.48441281103E+01  0.46142319995E+02  0.10000020374E+02 0.  0.
         12    1    1    2    0    0 -0.12302479837E+01 -0.44767557448E+02 -0.48441281103E+01  0.45045680005E+02  0.00000000000E+00 0. -1.
         11    1    3    3    0    0 -0.33089423195E+01  0.74660872754E+01  0.13492195226E+01  0.82771946974E+01  0.51100000000E-03 0. -1.
        -11    1    3    3    0    0  0.36600292385E+01  0.27676659852E+02  0.12645884784E+01  0.27946243019E+02  0.51100000000E-03 0.  1.
        -12    1    3    3    0    0  0.87916106462E+00  0.96248103202E+01  0.22303201094E+01  0.99188822792E+01  0.00000000000E+00 0.  1.
</event>
<event>
 7    1  0.1541902E-008  0.4614232E+02  0.7816164E-02  0.1320468E+00
        -11   -1    0    0    0    0  0.00000000000E+00  0.00000000000E+00  0.45593999997E+02  0.45594000000E+02  0.51100000000E-03 0.  1.
         11   -1    0    0    0    0 -0.00000000000E+00 -0.00000000000E+00 -0.45593999997E+02  0.45594000000E+02  0.51100000000E-03 0. -1.
    9900012    2    1    2    0    0 -0.14235809846E+02  0.15716779432E+02  0.39742143590E+02  0.46142318577E+02  0.10000007442E+02 0.  0.
         12    1    1    2    0    0  0.14235809846E+02 -0.15716779432E+02 -0.39742143590E+02  0.45045681423E+02  0.00000000000E+00 0. -1.
         11    1    3    3    0    0 -0.74022704176E+01  0.41819532237E+01  0.96541235136E+01  0.12864075605E+02  0.51100000000E-03 0. -1.
        -11    1    3    3    0    0 -0.61294169301E+01  0.88963965488E+01  0.18978421923E+02  0.21837951425E+02  0.51100000000E-03 0.  1.
        -12    1    3    3    0    0 -0.70412249835E+00  0.26384296593E+01  0.11109598153E+02  0.11440291547E+02  0.00000000000E+00 0.  1.
</event>
<event>
 7    1  0.1541902E-008  0.4614232E+02  0.7816164E-02  0.1320468E+00
        -11   -1    0    0    0    0  0.00000000000E+00  0.00000000000E+00  0.45593999997E+02  0.45594000000E+02  0.51100000000E-03 0.  1.
         11   -1    0    0    0    0 -0.00000000000E+00 -0.00000000000E+00 -0.45593999997E+02  0.45594000000E+02  0.51100000000E-03 0. -1.
    9900012    2    1    2    0    0  0.34240119695E+02  0.29082705102E+02 -0.33051394488E+01  0.46142317859E+02  0.10000000894E+02 0.  0.
         12    1    1    2    0    0 -0.34240119695E+02 -0.29082705102E+02  0.33051394488E+01  0.45045682141E+02  0.00000000000E+00 0. -1.
         11    1    3    3    0    0  0.83650360724E+01  0.11445105178E+02  0.18093545503E+01  0.14291186976E+02  0.51100000000E-03 0. -1.
        -11    1    3    3    0    0  0.18502360867E+02  0.14057621333E+02 -0.35317169891E+01  0.23503767790E+02  0.51100000000E-03 0.  1.
         12    1    3    3    0    0  0.73727227553E+01  0.35799785907E+01 -0.15827770101E+01  0.83473630926E+01  0.00000000000E+00 0. -1.
</event>
<event>
 7    1  0.1541902E-008  0.4614232E+02  0.7816164E-02  0.1320468E+00
        -11   -1    0    0    0    0  0.00000000000E+00  0.00000000000E+00  0.45593999997E+02  0.45594000000E+02  0.51100000000E-03 0.  1.
         11   -1    0    0    0    0 -0.00000000000E+00 -0.00000000000E+00 -0.45593999997E+02  0.45594000000E+02  0.51100000000E-03 0. -1.
    9900012    2    1    2    0    0  0.22496700874E+02 -0.38477301912E+02  0.65199173578E+01  0.46142316133E+02  0.99999851554E+01 0.  0.
         12    1    1    2    0    0 -0.22496700874E+02  0.38477301912E+02 -0.65199173578E+01  0.45045683867E+02  0.00000000000E+00 0. -1.
         11    1    3    3    0    0  0.10756514113E+02 -0.11634881756E+02  0.56161366116E+01  0.16811129053E+02  0.51100000000E-03 0. -1.
        -11    1    3    3    0    0  0.62541045956E+01 -0.14214008880E+02  0.10143758157E+01  0.15562160239E+02  0.51100000000E-03 0.  1.
         12    1    3    3    0    0  0.54860821653E+01 -0.12628411276E+02 -0.11059506949E+00  0.13769026842E+02  0.00000000000E+00 0. -1.
</event>
<event>
 7    1  0.1541902E-008  0.4614232E+02  0.7816164E-02  0.1320468E+00
        -11   -1    0    0    0    0  0.00000000000E+00  0.00000000000E+00  0.45593999997E+02  0.45594000000E+02  0.51100000000E-03 0.  1.
         11   -1    0    0    0    0 -0.00000000000E+00 -0.00000000000E+00 -0.45593999997E+02  0.45594000000E+02  0.51100000000E-03 0. -1.
    9900012    2    1    2    0    0 -0.40699891708E+02  0.14425550688E+02  0.12827158328E+02  0.46142315540E+02  0.99999797461E+01 0.  0.
         12    1    1    2    0    0  0.40699891708E+02 -0.14425550688E+02 -0.12827158328E+02  0.45045684460E+02  0.00000000000E+00 0. -1.
         11    1    3    3    0    0 -0.10768118658E+02  0.63559517902E+01  0.69420020894E+01  0.14301814426E+02  0.51100000000E-03 0. -1.
        -11    1    3    3    0    0 -0.27711273275E+02  0.62542003358E+01  0.50538690718E+01  0.28854311311E+02  0.51100000000E-03 0.  1.
        -12    1    3    3    0    0 -0.22204997747E+01  0.18153985620E+01  0.83128716715E+00  0.29861898035E+01  0.00000000000E+00 0.  1.
</event>
<event>
 7    1  0.1541902E-008  0.4614232E+02  0.7816164E-02  0.1320468E+00
        -11   -1    0    0    0    0  0.00000000000E+00  0.00000000000E+00  0.45593999997E+02  0.45594000000E+02  0.51100000000E-03 0.  1.
         11   -1    0    0    0    0 -0.00000000000E+00 -0.00000000000E+00 -0.45593999997E+02  0.45594000000E+02  0.51100000000E-03 0. -1.
    9900012    2    1    2    0    0  0.80800659929E+01  0.14266700949E+02  0.41955776565E+02  0.46142318635E+02  0.10000007973E+02 0.  0.
         12    1    1    2    0    0 -0.80800659929E+01 -0.14266700949E+02 -0.41955776565E+02  0.45045681365E+02  0.00000000000E+00 0. -1.
         11    1    3    3    0    0  0.18333391179E+01  0.78556060519E+01  0.16340407822E+02  0.18223078961E+02  0.51100000000E-03 0. -1.
        -11    1    3    3    0    0  0.48598539798E+01  0.68317782490E+00  0.84675744477E+01  0.97869673512E+01  0.51100000000E-03 0.  1.
         12    1    3    3    0    0  0.13868728952E+01  0.57279170720E+01  0.17147794295E+02  0.18132272323E+02  0.00000000000E+00 0. -1.
</event>
<event>
 7    1  0.1541902E-008  0.4614232E+02  0.7816164E-02  0.1320468E+00
        -11   -1    0    0    0    0  0.00000000000E+00  0.00000000000E+00  0.45593999997E+02  0.45594000000E+02  0.51100000000E-03 0.  1.
         11   -1    0    0    0    0 -0.00000000000E+00 -0.00000000000E+00 -0.45593999997E+02  0.45594000000E+02  0.51100000000E-03 0. -1.
    9900012    2    1    2    0    0 -0.26376071728E+02 -0.28978051024E+02  0.22219111154E+02  0.46142317616E+02  0.99999986808E+01 0.  0.
         12    1    1    2    0    0  0.26376071728E+02  0.28978051024E+02 -0.22219111154E+02  0.45045682384E+02  0.00000000000E+00 0. -1.
         11    1    3    3    0    0 -0.37841154568E+01 -0.10465342309E+01  0.25893186803E+01  0.47031197280E+01  0.51100000000E-03 0. -1.
        -11    1    3    3    0    0 -0.15539486920E+02 -0.16290091278E+02  0.93279592256E+01  0.24369110594E+02  0.51100000000E-03 0.  1.
        -12    1    3    3    0    0 -0.70524693519E+01 -0.11641425515E+02  0.10301833248E+02  0.17070087294E+02  0.00000000000E+00 0.  1.
</event>
<event>
 7    1  0.1541902E-008  0.4614232E+02  0.7816164E-02  0.1320468E+00
        -11   -1    0    0    0    0  0.00000000000E+00  0.00000000000E+00  0.45593999997E+02  0.45594000000E+02  0.51100000000E-03 0. -1.
         11   -1    0    0    0    0 -0.00000000000E+00 -0.00000000000E+00 -0.45593999997E+02  0.45594000000E+02  0.51100000000E-03 0.  1.
    9900012    2    1    2    0    0  0.61465328041E+01  0.37684520252E+02 -0.23900011118E+02  0.46142318036E+02  0.10000002511E+02 0.  0.
         12    1    1    2    0    0 -0.61465328041E+01 -0.37684520252E+02  0.23900011118E+02  0.45045681964E+02  0.00000000000E+00 0. -1.
         11    1    3    3    0    0  0.29143043233E+01  0.29417866922E+02 -0.14566731365E+02  0.32955936139E+02  0.51100000000E-03 0. -1.
        -11    1    3    3    0    0  0.36536307775E+01  0.76455108318E+01 -0.90114920617E+01  0.12369714757E+02  0.51100000000E-03 0.  1.
        -12    1    3    3    0    0 -0.42140229665E+00  0.62114249816E+00 -0.32178769209E+00  0.81666713992E+00  0.00000000000E+00 0.  1.
</event>
<event>
 7    1  0.1541902E-008  0.4614232E+02  0.7816164E-02  0.1320468E+00
        -11   -1    0    0    0    0  0.00000000000E+00  0.00000000000E+00  0.45593999997E+02  0.45594000000E+02  0.51100000000E-03 0.  1.
         11   -1    0    0    0    0 -0.00000000000E+00 -0.00000000000E+00 -0.45593999997E+02  0.45594000000E+02  0.51100000000E-03 0. -1.
    9900012    2    1    2    0    0  0.49157868385E+01  0.30279258999E+01  0.44674155646E+02  0.46142317874E+02  0.10000001034E+02 0.  0.
         12    1    1    2    0    0 -0.49157868385E+01 -0.30279258999E+01 -0.44674155646E+02  0.45045682126E+02  0.00000000000E+00 0. -1.
         11    1    3    3    0    0 -0.22728815157E+01  0.51914248467E+00  0.43814729946E+01  0.49631446853E+01  0.51100000000E-03 0. -1.
        -11    1    3    3    0    0  0.36637137709E+01  0.27939351104E+01  0.28417301369E+02  0.28788398520E+02  0.51100000000E-03 0.  1.
         12    1    3    3    0    0  0.35249545833E+01 -0.28515169521E+00  0.11875381282E+02  0.12390774669E+02  0.00000000000E+00 0. -1.
</event>
<event>
 7    1  0.1541902E-008  0.4614232E+02  0.7816164E-02  0.1320468E+00
        -11   -1    0    0    0    0  0.00000000000E+00  0.00000000000E+00  0.45593999997E+02  0.45594000000E+02  0.51100000000E-03 0.  1.
         11   -1    0    0    0    0 -0.00000000000E+00 -0.00000000000E+00 -0.45593999997E+02  0.45594000000E+02  0.51100000000E-03 0. -1.
    9900012    2    1    2    0    0 -0.40810748656E+01 -0.28995839078E+02  0.34230099261E+02  0.46142317063E+02  0.99999936307E+01 0.  0.
         12    1    1    2    0    0  0.40810748656E+01  0.28995839078E+02 -0.34230099261E+02  0.45045682937E+02  0.00000000000E+00 0. -1.
         11    1    3    3    0    0  0.22759025092E+01 -0.11842082982E+02  0.11679108441E+02  0.16787383233E+02  0.51100000000E-03 0. -1.
        -11    1    3    3    0    0 -0.23710113217E+01 -0.11258239967E+02  0.11964112467E+02  0.16598483342E+02  0.51100000000E-03 0.  1.
         12    1    3    3    0    0 -0.39859660531E+01 -0.58955161290E+01  0.10586878352E+02  0.12756450488E+02  0.00000000000E+00 0. -1.
</event>
<event>
 7    1  0.1541902E-008  0.4614232E+02  0.7816164E-02  0.1320468E+00
        -11   -1    0    0    0    0  0.00000000000E+00  0.00000000000E+00  0.45593999997E+02  0.45594000000E+02  0.51100000000E-03 0.  1.
         11   -1    0    0    0    0 -0.00000000000E+00 -0.00000000000E+00 -0.45593999997E+02  0.45594000000E+02  0.51100000000E-03 0. -1.
    9900012    2    1    2    0    0 -0.28602903084E+02  0.24897853083E+01  0.34710061988E+02  0.46142317644E+02  0.99999989350E+01 0.  0.
         12    1    1    2    0    0  0.28602903084E+02 -0.24897853083E+01 -0.34710061988E+02  0.45045682356E+02  0.00000000000E+00 0. -1.
         11    1    3    3    0    0 -0.69501065060E+01  0.46379058027E+01  0.81217359068E+01  0.11652327882E+02  0.51100000000E-03 0. -1.
        -11    1    3    3    0    0 -0.35281158539E+01  0.69765465989E-01  0.60868495575E+01  0.70357804468E+01  0.51100000000E-03 0.  1.
         12    1    3    3    0    0 -0.18124680724E+02 -0.22178859604E+01  0.20501476523E+02  0.27454209315E+02  0.00000000000E+00 0. -1.
</event>
<event>
 7    1  0.1541902E-008  0.4614232E+02  0.7816164E-02  0.1320468E+00
        -11   -1    0    0    0    0  0.00000000000E+00  0.00000000000E+00  0.45593999997E+02  0.45594000000E+02  0.51100000000E-03 0.  1.
         11   -1    0    0    0    0 -0.00000000000E+00 -0.00000000000E+00 -0.45593999997E+02  0.45594000000E+02  0.51100000000E-03 0. -1.
    9900012    2    1    2    0    0  0.36247589281E+02  0.24499624127E+02  0.10723540038E+02  0.46142316278E+02  0.99999864730E+01 0.  0.
         12    1    1    2    0    0 -0.36247589281E+02 -0.24499624127E+02 -0.10723540038E+02  0.45045683722E+02  0.00000000000E+00 0. -1.
         11    1    3    3    0    0  0.15999751276E+02  0.10117159753E+02  0.46358695795E+01  0.19489490742E+02  0.51100000000E-03 0.  1.
        -11    1    3    3    0    0  0.60070159784E+01  0.48645579288E+00  0.19062451150E+01  0.63209691427E+01  0.51100000000E-03 0. -1.
        -12    1    3    3    0    0  0.14240822026E+02  0.13896008581E+02  0.41814253439E+01  0.20331856393E+02  0.00000000000E+00 0.  1.
</event>
<event>
 7    1  0.1541902E-008  0.4614232E+02  0.7816164E-02  0.1320468E+00
        -11   -1    0    0    0    0  0.00000000000E+00  0.00000000000E+00  0.45593999997E+02  0.45594000000E+02  0.51100000000E-03 0. -1.
         11   -1    0    0    0    0 -0.00000000000E+00 -0.00000000000E+00 -0.45593999997E+02  0.45594000000E+02  0.51100000000E-03 0.  1.
    9900012    2    1    2    0    0  0.76607096292E+01  0.44150260200E+02  0.46023416685E+01  0.46142317670E+02  0.99999991716E+01 0.  0.
         12    1    1    2    0    0 -0.76607096292E+01 -0.44150260200E+02 -0.46023416685E+01  0.45045682330E+02  0.00000000000E+00 0. -1.
         11    1    3    3    0    0  0.16303992906E+01  0.77259061603E+00  0.25437226279E+00  0.18220328252E+01  0.51100000000E-03 0. -1.
        -11    1    3    3    0    0  0.97029385509E+00  0.40259330358E+01 -0.10677530456E+01  0.42766463264E+01  0.51100000000E-03 0.  1.
        -12    1    3    3    0    0  0.50600164835E+01  0.39351736548E+02  0.54157224513E+01  0.40043638519E+02  0.00000000000E+00 0.  1.
</event>
<event>
 7    1  0.1541902E-008  0.4614232E+02  0.7816164E-02  0.1320468E+00
        -11   -1    0    0    0    0  0.00000000000E+00  0.00000000000E+00  0.45593999997E+02  0.45594000000E+02  0.51100000000E-03 0. -1.
         11   -1    0    0    0    0 -0.00000000000E+00 -0.00000000000E+00 -0.45593999997E+02  0.45594000000E+02  0.51100000000E-03 0.  1.
    9900012    2    1    2    0    0 -0.44116493884E+02  0.43203602819E+01 -0.80114227046E+01  0.46142318305E+02  0.10000004961E+02 0.  0.
         12    1    1    2    0    0  0.44116493884E+02 -0.43203602819E+01  0.80114227046E+01  0.45045681695E+02  0.00000000000E+00 0. -1.
         11    1    3    3    0    0 -0.51402226403E+01  0.19100429271E+01  0.13289394952E+00  0.54852359875E+01  0.51100000000E-03 0. -1.
        -11    1    3    3    0    0 -0.14645214182E+02 -0.37622228423E+00  0.57437081659E+00  0.14661300888E+02  0.51100000000E-03 0.  1.
        -12    1    3    3    0    0 -0.24331057062E+02  0.27865396390E+01 -0.87186874707E+01  0.25995781430E+02  0.00000000000E+00 0.  1.
</event>
<event>
 7    1  0.1541902E-008  0.4614232E+02  0.7816164E-02  0.1320468E+00
        -11   -1    0    0    0    0  0.00000000000E+00  0.00000000000E+00  0.45593999997E+02  0.45594000000E+02  0.51100000000E-03 0.  1.
         11   -1    0    0    0    0 -0.00000000000E+00 -0.00000000000E+00 -0.45593999997E+02  0.45594000000E+02  0.51100000000E-03 0. -1.
    9900012    2    1    2    0    0  0.31750610021E+02 -0.15360468640E+02  0.28019066762E+02  0.46142319455E+02  0.10000015447E+02 0.  0.
         12    1    1    2    0    0 -0.31750610021E+02  0.15360468640E+02 -0.28019066762E+02  0.45045680545E+02  0.00000000000E+00 0. -1.
         11    1    3    3    0    0 -0.17005572451E+00 -0.15373854546E+00 -0.14450744063E+00  0.27099289901E+00  0.51100000000E-03 0. -1.
        -11    1    3    3    0    0  0.12159886582E+02 -0.80888770596E+01  0.75434897003E+01  0.16437670482E+02  0.51100000000E-03 0.  1.
        -12    1    3    3    0    0  0.19760779164E+02 -0.71178530350E+01  0.20620084502E+02  0.29433656074E+02  0.00000000000E+00 0.  1.
</event>
<event>
 7    1  0.1541902E-008  0.4614232E+02  0.7816164E-02  0.1320468E+00
        -11   -1    0    0    0    0  0.00000000000E+00  0.00000000000E+00  0.45593999997E+02  0.45594000000E+02  0.51100000000E-03 0. -1.
         11   -1    0    0    0    0 -0.00000000000E+00 -0.00000000000E+00 -0.45593999997E+02  0.45594000000E+02  0.51100000000E-03 0.  1.
    9900012    2    1    2    0    0 -0.14392063921E+02 -0.31325889623E+02 -0.28994321200E+02  0.46142317339E+02  0.99999961497E+01 0.  0.
         12    1    1    2    0    0  0.14392063921E+02  0.31325889623E+02  0.28994321200E+02  0.45045682661E+02  0.00000000000E+00 0. -1.
         11    1    3    3    0    0 -0.30133054144E+01 -0.29798053815E+01 -0.76778590582E+01  0.87697645128E+01  0.51100000000E-03 0. -1.
        -11    1    3    3    0    0 -0.84083216392E+01 -0.20808779464E+02 -0.17256715592E+02  0.28310764894E+02  0.51100000000E-03 0.  1.
         12    1    3    3    0    0 -0.29704368670E+01 -0.75373047766E+01 -0.40597465498E+01  0.90617879320E+01  0.00000000000E+00 0. -1.
</event>
<event>
 7    1  0.1541902E-008  0.4614232E+02  0.7816164E-02  0.1320468E+00
        -11   -1    0    0    0    0  0.00000000000E+00  0.00000000000E+00  0.45593999997E+02  0.45594000000E+02  0.51100000000E-03 0. -1.
         11   -1    0    0    0    0 -0.00000000000E+00 -0.00000000000E+00 -0.45593999997E+02  0.45594000000E+02  0.51100000000E-03 0.  1.
    9900012    2    1    2    0    0 -0.30595940664E+02  0.31572524004E+02  0.98070193671E+01  0.46142317787E+02  0.10000000239E+02 0.  0.
         12    1    1    2    0    0  0.30595940664E+02 -0.31572524004E+02 -0.98070193671E+01  0.45045682213E+02  0.00000000000E+00 0. -1.
         11    1    3    3    0    0 -0.13053222518E+02  0.11107464097E+02 -0.26265209506E+00  0.17141509944E+02  0.51100000000E-03 0. -1.
        -11    1    3    3    0    0 -0.11797793855E+02  0.11035804708E+02  0.59285363943E+01  0.17208267474E+02  0.51100000000E-03 0.  1.
         12    1    3    3    0    0 -0.57449242910E+01  0.94292551992E+01  0.41411350679E+01  0.11792540370E+02  0.00000000000E+00 0. -1.
</event>
<event>
 7    1  0.1541902E-008  0.4614232E+02  0.7816164E-02  0.1320468E+00
        -11   -1    0    0    0    0  0.00000000000E+00  0.00000000000E+00  0.45593999997E+02  0.45594000000E+02  0.51100000000E-03 0. -1.
         11   -1    0    0    0    0 -0.00000000000E+00 -0.00000000000E+00 -0.45593999997E+02  0.45594000000E+02  0.51100000000E-03 0.  1.
    9900012    2    1    2    0    0  0.66226615981E+01 -0.44555985071E+02  0.13327947073E+00  0.46142320787E+02  0.10000027594E+02 0.  0.
         12    1    1    2    0    0 -0.66226615981E+01  0.44555985071E+02 -0.13327947073E+00  0.45045679213E+02  0.00000000000E+00 0. -1.
         11    1    3    3    0    0  0.23200937087E+01 -0.13260383078E+02 -0.27189898363E+01  0.13733663028E+02  0.51100000000E-03 0. -1.
        -11    1    3    3    0    0  0.66829689140E+00 -0.10183444053E+02 -0.21043317043E+01  0.10420046339E+02  0.51100000000E-03 0.  1.
        -12    1    3    3    0    0  0.36342709980E+01 -0.21112157941E+02  0.49566010113E+01  0.21988611420E+02  0.00000000000E+00 0.  1.
</event>
<event>
 7    1  0.1541902E-008  0.4614232E+02  0.7816164E-02  0.1320468E+00
        -11   -1    0    0    0    0  0.00000000000E+00  0.00000000000E+00  0.45593999997E+02  0.45594000000E+02  0.51100000000E-03 0.  1.
         11   -1    0    0    0    0 -0.00000000000E+00 -0.00000000000E+00 -0.45593999997E+02  0.45594000000E+02  0.51100000000E-03 0. -1.
    9900012    2    1    2    0    0 -0.29186144211E+01 -0.44881160989E+02  0.25053130637E+01  0.46142317461E+02  0.99999972628E+01 0.  0.
         12    1    1    2    0    0  0.29186144211E+01  0.44881160989E+02 -0.25053130637E+01  0.45045682539E+02  0.00000000000E+00 0. -1.
         11    1    3    3    0    0 -0.59025860787E-01 -0.77331969458E+01 -0.13116877141E+01  0.78438730214E+01  0.51100000000E-03 0. -1.
        -11    1    3    3    0    0  0.18360913974E+01 -0.14635786655E+02  0.40651418198E+01  0.15300420286E+02  0.51100000000E-03 0.  1.
         12    1    3    3    0    0 -0.46956799577E+01 -0.22512177388E+02 -0.24814104207E+00  0.22998024154E+02  0.00000000000E+00 0. -1.
</event>
<event>
 7    1  0.1541902E-008  0.4614232E+02  0.7816164E-02  0.1320468E+00
        -11   -1    0    0    0    0  0.00000000000E+00  0.00000000000E+00  0.45593999997E+02  0.45594000000E+02  0.51100000000E-03 0.  1.
         11   -1    0    0    0    0 -0.00000000000E+00 -0.00000000000E+00 -0.45593999997E+02  0.45594000000E+02  0.51100000000E-03 0. -1.
    9900012    2    1    2    0    0  0.31435327238E+02 -0.17460503661E+02  0.27130508931E+02  0.46142317615E+02  0.99999986717E+01 0.  0.
         12    1    1    2    0    0 -0.31435327238E+02  0.17460503661E+02 -0.27130508931E+02  0.45045682385E+02  0.00000000000E+00 0. -1.
         11    1    3    3    0    0  0.25145315471E+02 -0.15590401450E+02  0.17910254713E+02  0.34585036239E+02  0.51100000000E-03 0. -1.
        -11    1    3    3    0    0  0.31034182835E+01 -0.21407471350E+01  0.49547214982E+01  0.62260154774E+01  0.51100000000E-03 0.  1.
         12    1    3    3    0    0  0.31865934832E+01  0.27064492451E+00  0.42655327192E+01  0.53312658986E+01  0.00000000000E+00 0. -1.
</event>
<event>
 7    1  0.1541902E-008  0.4614232E+02  0.7816164E-02  0.1320468E+00
        -11   -1    0    0    0    0  0.00000000000E+00  0.00000000000E+00  0.45593999997E+02  0.45594000000E+02  0.51100000000E-03 0.  1.
         11   -1    0    0    0    0 -0.00000000000E+00 -0.00000000000E+00 -0.45593999997E+02  0.45594000000E+02  0.51100000000E-03 0. -1.
    9900012    2    1    2    0    0  0.43152724255E+02  0.12497098017E+02  0.32829855597E+01  0.46142322475E+02  0.10000042986E+02 0.  0.
         12    1    1    2    0    0 -0.43152724255E+02 -0.12497098017E+02 -0.32829855597E+01  0.45045677525E+02  0.00000000000E+00 0. -1.
         11    1    3    3    0    0  0.14205881191E+02  0.21686561872E+01  0.52791197288E+01  0.15309449221E+02  0.51100000000E-03 0. -1.
        -11    1    3    3    0    0  0.19910707996E+02  0.78039853703E+01 -0.14740546802E+01  0.21436215105E+02  0.51100000000E-03 0.  1.
        -12    1    3    3    0    0  0.90361350685E+01  0.25244564592E+01 -0.52207948884E+00  0.93966581497E+01  0.00000000000E+00 0.  1.
</event>
<event>
 7    1  0.1541902E-008  0.4614232E+02  0.7816164E-02  0.1320468E+00
        -11   -1    0    0    0    0  0.00000000000E+00  0.00000000000E+00  0.45593999997E+02  0.45594000000E+02  0.51100000000E-03 0. -1.
         11   -1    0    0    0    0 -0.00000000000E+00 -0.00000000000E+00 -0.45593999997E+02  0.45594000000E+02  0.51100000000E-03 0.  1.
    9900012    2    1    2    0    0 -0.55636550641E+01 -0.39669617682E+02 -0.20602927257E+02  0.46142318340E+02  0.10000005275E+02 0.  0.
         12    1    1    2    0    0  0.55636550641E+01  0.39669617682E+02  0.20602927257E+02  0.45045681660E+02  0.00000000000E+00 0. -1.
         11    1    3    3    0    0 -0.25473694541E+01 -0.10820589906E+02 -0.10312091867E+02  0.15162898667E+02  0.51100000000E-03 0. -1.
        -11    1    3    3    0    0 -0.13361168721E+01 -0.23726947032E+02 -0.75701324902E+01  0.24941133293E+02  0.51100000000E-03 0.  1.
         12    1    3    3    0    0 -0.16801687378E+01 -0.51220807435E+01 -0.27207028998E+01  0.60382863794E+01  0.00000000000E+00 0. -1.
</event>
<event>
 7    1  0.1541902E-008  0.4614232E+02  0.7816164E-02  0.1320468E+00
        -11   -1    0    0    0    0  0.00000000000E+00  0.00000000000E+00  0.45593999997E+02  0.45594000000E+02  0.51100000000E-03 0. -1.
         11   -1    0    0    0    0 -0.00000000000E+00 -0.00000000000E+00 -0.45593999997E+02  0.45594000000E+02  0.51100000000E-03 0.  1.
    9900012    2    1    2    0    0  0.43198763066E+02 -0.83948379501E+01 -0.96180421455E+01  0.46142321302E+02  0.10000032289E+02 0.  0.
         12    1    1    2    0    0 -0.43198763066E+02  0.83948379501E+01  0.96180421455E+01  0.45045678698E+02  0.00000000000E+00 0. -1.
         11    1    3    3    0    0  0.41633291829E+01 -0.28345023473E+01  0.56859801426E+00  0.50686307228E+01  0.51100000000E-03 0. -1.
        -11    1    3    3    0    0  0.14787956694E+02 -0.34087705531E+01 -0.15954139674E+01  0.15259381569E+02  0.51100000000E-03 0.  1.
        -12    1    3    3    0    0  0.24247477189E+02 -0.21515650497E+01 -0.85912261924E+01  0.25814309010E+02  0.00000000000E+00 0.  1.
</event>
<event>
 7    1  0.1541902E-008  0.4614232E+02  0.7816164E-02  0.1320468E+00
        -11   -1    0    0    0    0  0.00000000000E+00  0.00000000000E+00  0.45593999997E+02  0.45594000000E+02  0.51100000000E-03 0. -1.
         11   -1    0    0    0    0 -0.00000000000E+00 -0.00000000000E+00 -0.45593999997E+02  0.45594000000E+02  0.51100000000E-03 0.  1.
    9900012    2    1    2    0    0 -0.44522772287E+02 -0.14182939098E+01 -0.66951262453E+01  0.46142317353E+02  0.99999962741E+01 0.  0.
         12    1    1    2    0    0  0.44522772287E+02  0.14182939098E+01  0.66951262453E+01  0.45045682647E+02  0.00000000000E+00 0. -1.
         11    1    3    3    0    0 -0.11408304126E+02 -0.20850506396E+01  0.59474506815E+00  0.11612517434E+02  0.51100000000E-03 0. -1.
        -11    1    3    3    0    0 -0.16821203917E+02  0.33990642676E+01 -0.48215426165E+01  0.17825650411E+02  0.51100000000E-03 0.  1.
        -12    1    3    3    0    0 -0.16293264244E+02 -0.27323075378E+01 -0.24683286970E+01  0.16704149507E+02  0.00000000000E+00 0.  1.
</event>
<event>
 7    1  0.1541902E-008  0.4614232E+02  0.7816164E-02  0.1320468E+00
        -11   -1    0    0    0    0  0.00000000000E+00  0.00000000000E+00  0.45593999997E+02  0.45594000000E+02  0.51100000000E-03 0.  1.
         11   -1    0    0    0    0 -0.00000000000E+00 -0.00000000000E+00 -0.45593999997E+02  0.45594000000E+02  0.51100000000E-03 0. -1.
    9900012    2    1    2    0    0 -0.29885429304E+02  0.32225413279E+01  0.33549811327E+02  0.46142317661E+02  0.99999990909E+01 0.  0.
         12    1    1    2    0    0  0.29885429304E+02 -0.32225413279E+01 -0.33549811327E+02  0.45045682339E+02  0.00000000000E+00 0. -1.
         11    1    3    3    0    0 -0.17053289153E+02  0.38067957607E+01  0.23023140406E+02  0.28902791549E+02  0.51100000000E-03 0.  1.
        -11    1    3    3    0    0 -0.13133160629E+02 -0.16236562335E+00  0.10117655224E+02  0.16579300896E+02  0.51100000000E-03 0. -1.
        -12    1    3    3    0    0  0.30102047871E+00 -0.42188880943E+00  0.40901569692E+00  0.66022521646E+00  0.00000000000E+00 0.  1.
</event>
<event>
 7    1  0.1541902E-008  0.4614232E+02  0.7816164E-02  0.1320468E+00
        -11   -1    0    0    0    0  0.00000000000E+00  0.00000000000E+00  0.45593999997E+02  0.45594000000E+02  0.51100000000E-03 0.  1.
         11   -1    0    0    0    0 -0.00000000000E+00 -0.00000000000E+00 -0.45593999997E+02  0.45594000000E+02  0.51100000000E-03 0. -1.
    9900012    2    1    2    0    0  0.18341776956E+02  0.33621879850E+02  0.23712062898E+02  0.46142317483E+02  0.99999974600E+01 0.  0.
         12    1    1    2    0    0 -0.18341776956E+02 -0.33621879850E+02 -0.23712062898E+02  0.45045682517E+02  0.00000000000E+00 0. -1.
         11    1    3    3    0    0  0.23135044059E+01  0.73931864473E+01  0.78628397462E+00  0.77865108509E+01  0.51100000000E-03 0. -1.
        -11    1    3    3    0    0  0.12715555235E+02  0.21172040822E+02  0.18063980083E+02  0.30598170439E+02  0.51100000000E-03 0.  1.
         12    1    3    3    0    0  0.33127173153E+01  0.50566525808E+01  0.48617988405E+01  0.77576361928E+01  0.00000000000E+00 0. -1.
</event>
<event>
 7    1  0.1541902E-008  0.4614232E+02  0.7816164E-02  0.1320468E+00
        -11   -1    0    0    0    0  0.00000000000E+00  0.00000000000E+00  0.45593999997E+02  0.45594000000E+02  0.51100000000E-03 0.  1.
         11   -1    0    0    0    0 -0.00000000000E+00 -0.00000000000E+00 -0.45593999997E+02  0.45594000000E+02  0.51100000000E-03 0. -1.
    9900012    2    1    2    0    0 -0.18581611691E+02 -0.38545210003E+02  0.14074939021E+02  0.46142318569E+02  0.10000007362E+02 0.  0.
         12    1    1    2    0    0  0.18581611691E+02  0.38545210003E+02 -0.14074939021E+02  0.45045681431E+02  0.00000000000E+00 0. -1.
         11    1    3    3    0    0 -0.24957355497E+01 -0.26094745644E+01  0.19991810198E+01  0.41273209770E+01  0.51100000000E-03 0. -1.
        -11    1    3    3    0    0 -0.15017548384E+02 -0.25191757402E+02  0.73897860778E+01  0.30245005191E+02  0.51100000000E-03 0.  1.
        -12    1    3    3    0    0 -0.10683277571E+01 -0.10743978036E+02  0.46859719234E+01  0.11769992400E+02  0.00000000000E+00 0.  1.
</event>
<event>
 7    1  0.1541902E-008  0.4614232E+02  0.7816164E-02  0.1320468E+00
        -11   -1    0    0    0    0  0.00000000000E+00  0.00000000000E+00  0.45593999997E+02  0.45594000000E+02  0.51100000000E-03 0.  1.
         11   -1    0    0    0    0 -0.00000000000E+00 -0.00000000000E+00 -0.45593999997E+02  0.45594000000E+02  0.51100000000E-03 0. -1.
    9900012    2    1    2    0    0 -0.25243933644E+02  0.46673595200E+01  0.37014499813E+02  0.46142316220E+02  0.99999859511E+01 0.  0.
         12    1    1    2    0    0  0.25243933644E+02 -0.46673595200E+01 -0.37014499813E+02  0.45045683780E+02  0.00000000000E+00 0. -1.
         11    1    3    3    0    0 -0.58958377697E+01  0.14113903824E+01  0.14351194619E+02  0.15579143529E+02  0.51100000000E-03 0. -1.
        -11    1    3    3    0    0 -0.19789233387E+02  0.30663977984E+01  0.22116855045E+02  0.29835747533E+02  0.51100000000E-03 0.  1.
        -12    1    3    3    0    0  0.44113751191E+00  0.18957133921E+00  0.54645014906E+00  0.72742515936E+00  0.00000000000E+00 0.  1.
</event>
<event>
 7    1  0.1541902E-008  0.4614232E+02  0.7816164E-02  0.1320468E+00
        -11   -1    0    0    0    0  0.00000000000E+00  0.00000000000E+00  0.45593999997E+02  0.45594000000E+02  0.51100000000E-03 0.  1.
         11   -1    0    0    0    0 -0.00000000000E+00 -0.00000000000E+00 -0.45593999997E+02  0.45594000000E+02  0.51100000000E-03 0. -1.
    9900012    2    1    2    0    0  0.41411604200E+02  0.17716738818E+02 -0.55650331009E+00  0.46142317713E+02  0.99999995624E+01 0.  0.
         12    1    1    2    0    0 -0.41411604200E+02 -0.17716738818E+02  0.55650331009E+00  0.45045682287E+02  0.00000000000E+00 0. -1.
         11    1    3    3    0    0  0.10340826475E+02  0.32260622927E+01 -0.18859818765E+01  0.10995321641E+02  0.51100000000E-03 0. -1.
        -11    1    3    3    0    0  0.52253292094E+01  0.55038741975E+01  0.17165986425E+01  0.77809644446E+01  0.51100000000E-03 0.  1.
        -12    1    3    3    0    0  0.25845448516E+02  0.89868023277E+01 -0.38712007612E+00  0.27366031627E+02  0.00000000000E+00 0.  1.
</event>
<event>
 7    1  0.1541902E-008  0.4614232E+02  0.7816164E-02  0.1320468E+00
        -11   -1    0    0    0    0  0.00000000000E+00  0.00000000000E+00  0.45593999997E+02  0.45594000000E+02  0.51100000000E-03 0.  1.
         11   -1    0    0    0    0 -0.00000000000E+00 -0.00000000000E+00 -0.45593999997E+02  0.45594000000E+02  0.51100000000E-03 0. -1.
    9900012    2    1    2    0    0  0.44800678052E+02 -0.44007041999E+01 -0.16268155324E+01  0.46142317853E+02  0.10000000835E+02 0.  0.
         12    1    1    2    0    0 -0.44800678052E+02  0.44007041999E+01  0.16268155324E+01  0.45045682147E+02  0.00000000000E+00 0. -1.
         11    1    3    3    0    0  0.18194909701E+02  0.51586106958E+00 -0.23981931782E+01  0.18359525659E+02  0.51100000000E-03 0.  1.
        -11    1    3    3    0    0  0.14978493325E+02 -0.11166666763E+01 -0.22372983224E+01  0.15185773303E+02  0.51100000000E-03 0. -1.
         12    1    3    3    0    0  0.11627275026E+02 -0.37998985932E+01  0.30086759682E+01  0.12597018891E+02  0.00000000000E+00 0. -1.
</event>
<event>
 7    1  0.1541902E-008  0.4614232E+02  0.7816164E-02  0.1320468E+00
        -11   -1    0    0    0    0  0.00000000000E+00  0.00000000000E+00  0.45593999997E+02  0.45594000000E+02  0.51100000000E-03 0.  1.
         11   -1    0    0    0    0 -0.00000000000E+00 -0.00000000000E+00 -0.45593999997E+02  0.45594000000E+02  0.51100000000E-03 0. -1.
    9900012    2    1    2    0    0  0.29609906394E+02 -0.30186986990E+01  0.33812045453E+02  0.46142317452E+02  0.99999971822E+01 0.  0.
         12    1    1    2    0    0 -0.29609906394E+02  0.30186986990E+01 -0.33812045453E+02  0.45045682548E+02  0.00000000000E+00 0. -1.
         11    1    3    3    0    0  0.21734902190E+02 -0.20710941344E+01  0.25799159912E+02  0.33797811417E+02  0.51100000000E-03 0. -1.
        -11    1    3    3    0    0  0.77418147148E+01 -0.12568333400E+00  0.49958038559E+01  0.92146376926E+01  0.51100000000E-03 0.  1.
         12    1    3    3    0    0  0.13318948899E+00 -0.82192123063E+00  0.30170816849E+01  0.31298683427E+01  0.00000000000E+00 0. -1.
</event>
<event>
 7    1  0.1541902E-008  0.4614232E+02  0.7816164E-02  0.1320468E+00
        -11   -1    0    0    0    0  0.00000000000E+00  0.00000000000E+00  0.45593999997E+02  0.45594000000E+02  0.51100000000E-03 0. -1.
         11   -1    0    0    0    0 -0.00000000000E+00 -0.00000000000E+00 -0.45593999997E+02  0.45594000000E+02  0.51100000000E-03 0.  1.
    9900012    2    1    2    0    0 -0.87699611013E+01 -0.33769678688E+02 -0.28492281394E+02  0.46142317461E+02  0.99999972612E+01 0.  0.
         12    1    1    2    0    0  0.87699611013E+01  0.33769678688E+02  0.28492281394E+02  0.45045682539E+02  0.00000000000E+00 0. -1.
         11    1    3    3    0    0  0.63620047997E-01 -0.83848102024E+01 -0.35317419458E+01  0.90984774041E+01  0.51100000000E-03 0. -1.
        -11    1    3    3    0    0 -0.62605264100E+01 -0.22949881329E+02 -0.22378049712E+02  0.32659889055E+02  0.51100000000E-03 0.  1.
         12    1    3    3    0    0 -0.25730547393E+01 -0.24349871565E+01 -0.25824897364E+01  0.43839510013E+01  0.00000000000E+00 0. -1.
</event>
<event>
 7    1  0.1541902E-008  0.4614232E+02  0.7816164E-02  0.1320468E+00
        -11   -1    0    0    0    0  0.00000000000E+00  0.00000000000E+00  0.45593999997E+02  0.45594000000E+02  0.51100000000E-03 0.  1.
         11   -1    0    0    0    0 -0.00000000000E+00 -0.00000000000E+00 -0.45593999997E+02  0.45594000000E+02  0.51100000000E-03 0. -1.
    9900012    2    1    2    0    0  0.74434751589E+01  0.23891727953E+02  0.37455221078E+02  0.46142316821E+02  0.99999914314E+01 0.  0.
         12    1    1    2    0    0 -0.74434751589E+01 -0.23891727953E+02 -0.37455221078E+02  0.45045683179E+02  0.00000000000E+00 0. -1.
         11    1    3    3    0    0  0.69290805687E+00  0.73160069375E+01  0.10647683707E+02  0.12937435901E+02  0.51100000000E-03 0.  1.
        -11    1    3    3    0    0  0.84956121401E+01  0.15005753190E+02  0.23411665354E+02  0.29076693921E+02  0.51100000000E-03 0. -1.
         12    1    3    3    0    0 -0.17450450380E+01  0.15699678251E+01  0.33958720165E+01  0.41281870002E+01  0.00000000000E+00 0. -1.
</event>
<event>
 7    1  0.1541902E-008  0.4614232E+02  0.7816164E-02  0.1320468E+00
        -11   -1    0    0    0    0  0.00000000000E+00  0.00000000000E+00  0.45593999997E+02  0.45594000000E+02  0.51100000000E-03 0.  1.
         11   -1    0    0    0    0 -0.00000000000E+00 -0.00000000000E+00 -0.45593999997E+02  0.45594000000E+02  0.51100000000E-03 0. -1.
    9900012    2    1    2    0    0  0.14849781207E+02 -0.42526981335E+02  0.23104575100E+00  0.46142317349E+02  0.99999962394E+01 0.  0.
         12    1    1    2    0    0 -0.14849781207E+02  0.42526981335E+02 -0.23104575100E+00  0.45045682651E+02  0.00000000000E+00 0. -1.
         11    1    3    3    0    0  0.54844088204E+01 -0.19262740868E+02  0.44992357497E+01  0.20527421866E+02  0.51100000000E-03 0. -1.
        -11    1    3    3    0    0  0.73739629755E+01 -0.19537192538E+02 -0.45761285461E+01  0.21377983416E+02  0.51100000000E-03 0.  1.
        -12    1    3    3    0    0  0.19914094112E+01 -0.37270479290E+01  0.30793854744E+00  0.42369120663E+01  0.00000000000E+00 0.  1.
</event>
<event>
 7    1  0.1541902E-008  0.4614232E+02  0.7816164E-02  0.1320468E+00
        -11   -1    0    0    0    0  0.00000000000E+00  0.00000000000E+00  0.45593999997E+02  0.45594000000E+02  0.51100000000E-03 0.  1.
         11   -1    0    0    0    0 -0.00000000000E+00 -0.00000000000E+00 -0.45593999997E+02  0.45594000000E+02  0.51100000000E-03 0. -1.
    9900012    2    1    2    0    0 -0.32550911863E+02 -0.30866116724E+02  0.41029429765E+01  0.46142321342E+02  0.10000032649E+02 0.  0.
         12    1    1    2    0    0  0.32550911863E+02  0.30866116724E+02 -0.41029429765E+01  0.45045678658E+02  0.00000000000E+00 0. -1.
         11    1    3    3    0    0 -0.28317051954E+02 -0.27292102906E+02  0.23726814781E+01  0.39399796066E+02  0.51100000000E-03 0.  1.
        -11    1    3    3    0    0 -0.43357005712E+01 -0.28587082371E+01  0.24326776401E+01  0.57348437633E+01  0.51100000000E-03 0. -1.
         12    1    3    3    0    0  0.10184066176E+00 -0.71530558070E+00 -0.70241614167E+00  0.10076815123E+01  0.00000000000E+00 0. -1.
</event>
<event>
 7    1  0.1541902E-008  0.4614232E+02  0.7816164E-02  0.1320468E+00
        -11   -1    0    0    0    0  0.00000000000E+00  0.00000000000E+00  0.45593999997E+02  0.45594000000E+02  0.51100000000E-03 0.  1.
         11   -1    0    0    0    0 -0.00000000000E+00 -0.00000000000E+00 -0.45593999997E+02  0.45594000000E+02  0.51100000000E-03 0. -1.
    9900012    2    1    2    0    0 -0.15720707052E+02  0.38939559539E+02  0.16299802158E+02  0.46142317880E+02  0.10000001082E+02 0.  0.
         12    1    1    2    0    0  0.15720707052E+02 -0.38939559539E+02 -0.16299802158E+02  0.45045682120E+02  0.00000000000E+00 0. -1.
         11    1    3    3    0    0 -0.25148800943E+01  0.31772340224E+01 -0.46718924444E-01  0.40523599101E+01  0.51100000000E-03 0. -1.
        -11    1    3    3    0    0 -0.41618461011E+01  0.21491322421E+02  0.92468058770E+01  0.23763445070E+02  0.51100000000E-03 0.  1.
        -12    1    3    3    0    0 -0.90439808570E+01  0.14271003095E+02  0.70997152056E+01  0.18326512900E+02  0.00000000000E+00 0.  1.
</event>
<event>
 7    1  0.1541902E-008  0.4614232E+02  0.7816164E-02  0.1320468E+00
        -11   -1    0    0    0    0  0.00000000000E+00  0.00000000000E+00  0.45593999997E+02  0.45594000000E+02  0.51100000000E-03 0.  1.
         11   -1    0    0    0    0 -0.00000000000E+00 -0.00000000000E+00 -0.45593999997E+02  0.45594000000E+02  0.51100000000E-03 0. -1.
    9900012    2    1    2    0    0 -0.18598298927E+02  0.21495474444E+02  0.34945118403E+02  0.46142318246E+02  0.10000004418E+02 0.  0.
         12    1    1    2    0    0  0.18598298927E+02 -0.21495474444E+02 -0.34945118403E+02  0.45045681754E+02  0.00000000000E+00 0. -1.
         11    1    3    3    0    0 -0.30618203186E+01  0.46915944215E+01  0.11737007374E+02  0.13005504382E+02  0.51100000000E-03 0. -1.
        -11    1    3    3    0    0 -0.14038900406E+02  0.16328499102E+02  0.23071694309E+02  0.31559684505E+02  0.51100000000E-03 0.  1.
        -12    1    3    3    0    0 -0.14975782024E+01  0.47538092054E+00  0.13641672037E+00  0.15771293585E+01  0.00000000000E+00 0.  1.
</event>
<event>
 7    1  0.1541902E-008  0.4614232E+02  0.7816164E-02  0.1320468E+00
        -11   -1    0    0    0    0  0.00000000000E+00  0.00000000000E+00  0.45593999997E+02  0.45594000000E+02  0.51100000000E-03 0.  1.
         11   -1    0    0    0    0 -0.00000000000E+00 -0.00000000000E+00 -0.45593999997E+02  0.45594000000E+02  0.51100000000E-03 0. -1.
    9900012    2    1    2    0    0 -0.22486714129E+02 -0.39004940190E+02  0.14407650537E+01  0.46142317904E+02  0.10000001302E+02 0.  0.
         12    1    1    2    0    0  0.22486714129E+02  0.39004940190E+02 -0.14407650537E+01  0.45045682096E+02  0.00000000000E+00 0. -1.
         11    1    3    3    0    0 -0.43179151793E+01 -0.46369290194E+01 -0.28621445149E+01  0.69525084475E+01  0.51100000000E-03 0. -1.
        -11    1    3    3    0    0 -0.12262145179E+02 -0.20636991373E+02  0.27123463177E+01  0.24157864975E+02  0.51100000000E-03 0.  1.
         12    1    3    3    0    0 -0.59066537706E+01 -0.13731019797E+02  0.15905632508E+01  0.15031944481E+02  0.00000000000E+00 0. -1.
</event>
<event>
 7    1  0.1541902E-008  0.4614232E+02  0.7816164E-02  0.1320468E+00
        -11   -1    0    0    0    0  0.00000000000E+00  0.00000000000E+00  0.45593999997E+02  0.45594000000E+02  0.51100000000E-03 0.  1.
         11   -1    0    0    0    0 -0.00000000000E+00 -0.00000000000E+00 -0.45593999997E+02  0.45594000000E+02  0.51100000000E-03 0. -1.
    9900012    2    1    2    0    0  0.23259924509E+02 -0.33457788445E+02  0.19200667763E+02  0.46142319426E+02  0.10000015182E+02 0.  0.
         12    1    1    2    0    0 -0.23259924509E+02  0.33457788445E+02 -0.19200667763E+02  0.45045680574E+02  0.00000000000E+00 0. -1.
         11    1    3    3    0    0  0.14319922095E+01 -0.17424458650E+01 -0.34676954560E+00  0.22818783183E+01  0.51100000000E-03 0. -1.
        -11    1    3    3    0    0  0.10190581821E+02 -0.88708583284E+01  0.83597608545E+01  0.15887910094E+02  0.51100000000E-03 0.  1.
         12    1    3    3    0    0  0.11637350479E+02 -0.22844484252E+02  0.11187676454E+02  0.27972531014E+02  0.00000000000E+00 0. -1.
</event>
<event>
 7    1  0.1541902E-008  0.4614232E+02  0.7816164E-02  0.1320468E+00
        -11   -1    0    0    0    0  0.00000000000E+00  0.00000000000E+00  0.45593999997E+02  0.45594000000E+02  0.51100000000E-03 0. -1.
         11   -1    0    0    0    0 -0.00000000000E+00 -0.00000000000E+00 -0.45593999997E+02  0.45594000000E+02  0.51100000000E-03 0.  1.
    9900012    2    1    2    0    0  0.25070373525E+02 -0.30445967248E+02 -0.21763103588E+02  0.46142320650E+02  0.10000026340E+02 0.  0.
         12    1    1    2    0    0 -0.25070373525E+02  0.30445967248E+02  0.21763103588E+02  0.45045679350E+02  0.00000000000E+00 0. -1.
         11    1    3    3    0    0  0.38559202779E+01 -0.92747867075E+01 -0.31709323165E+01  0.10533024337E+02  0.51100000000E-03 0. -1.
        -11    1    3    3    0    0  0.15083844822E+02 -0.16696058475E+02 -0.11718957254E+02  0.25369562523E+02  0.51100000000E-03 0.  1.
        -12    1    3    3    0    0  0.61306084249E+01 -0.44751220655E+01 -0.68732140180E+01  0.10239733790E+02  0.00000000000E+00 0.  1.
</event>
<event>
 7    1  0.1541902E-008  0.4614232E+02  0.7816164E-02  0.1320468E+00
        -11   -1    0    0    0    0  0.00000000000E+00  0.00000000000E+00  0.45593999997E+02  0.45594000000E+02  0.51100000000E-03 0.  1.
         11   -1    0    0    0    0 -0.00000000000E+00 -0.00000000000E+00 -0.45593999997E+02  0.45594000000E+02  0.51100000000E-03 0. -1.
    9900012    2    1    2    0    0  0.79904484347E+01  0.43195478232E+02  0.99708017667E+01  0.46142317701E+02  0.99999994555E+01 0.  0.
         12    1    1    2    0    0 -0.79904484347E+01 -0.43195478232E+02 -0.99708017667E+01  0.45045682299E+02  0.00000000000E+00 0. -1.
         11    1    3    3    0    0  0.31228755355E+01  0.38826369486E+01  0.16023241939E+01  0.52339912465E+01  0.51100000000E-03 0. -1.
        -11    1    3    3    0    0  0.53681115260E+01  0.37765152761E+02  0.69980931002E+01  0.38781396206E+02  0.51100000000E-03 0.  1.
         12    1    3    3    0    0 -0.50053862683E+00  0.15476885225E+01  0.13703844727E+01  0.21269302487E+01  0.00000000000E+00 0. -1.
</event>
<event>
 7    1  0.1541902E-008  0.4614232E+02  0.7816164E-02  0.1320468E+00
        -11   -1    0    0    0    0  0.00000000000E+00  0.00000000000E+00  0.45593999997E+02  0.45594000000E+02  0.51100000000E-03 0.  1.
         11   -1    0    0    0    0 -0.00000000000E+00 -0.00000000000E+00 -0.45593999997E+02  0.45594000000E+02  0.51100000000E-03 0. -1.
    9900012    2    1    2    0    0 -0.93586984740E+01 -0.16022202005E+02  0.41046526804E+02  0.46142317001E+02  0.99999930660E+01 0.  0.
         12    1    1    2    0    0  0.93586984740E+01  0.16022202005E+02 -0.41046526804E+02  0.45045682999E+02  0.00000000000E+00 0. -1.
         11    1    3    3    0    0  0.29752470321E+00  0.66280178408E+00  0.13466579058E+00  0.73889261079E+00  0.51100000000E-03 0. -1.
        -11    1    3    3    0    0 -0.28570299763E+01 -0.43140818314E+01  0.73021508480E+01  0.89495994102E+01  0.51100000000E-03 0.  1.
        -12    1    3    3    0    0 -0.67991932009E+01 -0.12370921958E+02  0.33609710165E+02  0.36453824980E+02  0.00000000000E+00 0.  1.
</event>
<event>
 7    1  0.1541902E-008  0.4614232E+02  0.7816164E-02  0.1320468E+00
        -11   -1    0    0    0    0  0.00000000000E+00  0.00000000000E+00  0.45593999997E+02  0.45594000000E+02  0.51100000000E-03 0.  1.
         11   -1    0    0    0    0 -0.00000000000E+00 -0.00000000000E+00 -0.45593999997E+02  0.45594000000E+02  0.51100000000E-03 0. -1.
    9900012    2    1    2    0    0 -0.80591629306E+01 -0.53138630167E+00  0.44315695229E+02  0.46142319605E+02  0.10000016818E+02 0.  0.
         12    1    1    2    0    0  0.80591629306E+01  0.53138630167E+00 -0.44315695229E+02  0.45045680395E+02  0.00000000000E+00 0. -1.
         11    1    3    3    0    0 -0.25394041553E+01 -0.13942672347E+01  0.17174596614E+02  0.17417213431E+02  0.51100000000E-03 0. -1.
        -11    1    3    3    0    0 -0.38487290046E+01 -0.30417388608E+01  0.17803430975E+02  0.18466917583E+02  0.51100000000E-03 0.  1.
        -12    1    3    3    0    0 -0.16710297707E+01  0.39046197937E+01  0.93376676400E+01  0.10258188592E+02  0.00000000000E+00 0.  1.
</event>
<event>
 7    1  0.1541902E-008  0.4614232E+02  0.7816164E-02  0.1320468E+00
        -11   -1    0    0    0    0  0.00000000000E+00  0.00000000000E+00  0.45593999997E+02  0.45594000000E+02  0.51100000000E-03 0.  1.
         11   -1    0    0    0    0 -0.00000000000E+00 -0.00000000000E+00 -0.45593999997E+02  0.45594000000E+02  0.51100000000E-03 0. -1.
    9900012    2    1    2    0    0  0.43533053355E+02 -0.98075236814E+01 -0.61481098444E+01  0.46142317523E+02  0.99999978309E+01 0.  0.
         12    1    1    2    0    0 -0.43533053355E+02  0.98075236814E+01  0.61481098444E+01  0.45045682477E+02  0.00000000000E+00 0. -1.
         11    1    3    3    0    0  0.78382298809E+01 -0.33477643916E+01  0.16729606533E+01  0.86858604465E+01  0.51100000000E-03 0. -1.
        -11    1    3    3    0    0  0.33050349575E+02 -0.72540989209E+01 -0.76429968885E+01  0.34689522336E+02  0.51100000000E-03 0.  1.
        -12    1    3    3    0    0  0.26444738990E+01  0.79433963111E+00 -0.17807360918E+00  0.27669347412E+01  0.00000000000E+00 0.  1.
</event>
<event>
 7    1  0.1541902E-008  0.4614232E+02  0.7816164E-02  0.1320468E+00
        -11   -1    0    0    0    0  0.00000000000E+00  0.00000000000E+00  0.45593999997E+02  0.45594000000E+02  0.51100000000E-03 0. -1.
         11   -1    0    0    0    0 -0.00000000000E+00 -0.00000000000E+00 -0.45593999997E+02  0.45594000000E+02  0.51100000000E-03 0.  1.
    9900012    2    1    2    0    0  0.39718252258E+02 -0.20423898684E+02  0.58684055678E+01  0.46142318922E+02  0.10000010586E+02 0.  0.
         12    1    1    2    0    0 -0.39718252258E+02  0.20423898684E+02 -0.58684055678E+01  0.45045681078E+02  0.00000000000E+00 0. -1.
         11    1    3    3    0    0  0.46354972582E+01  0.77952843178E+00  0.95576380670E+00  0.47967680913E+01  0.51100000000E-03 0. -1.
        -11    1    3    3    0    0  0.24301126316E+02 -0.15185071829E+02  0.43635137381E+01  0.28985710257E+02  0.51100000000E-03 0.  1.
         12    1    3    3    0    0  0.10781628684E+02 -0.60183552869E+01  0.54912802303E+00  0.12359840574E+02  0.00000000000E+00 0. -1.
</event>
<event>
 7    1  0.1541902E-008  0.4614232E+02  0.7816164E-02  0.1320468E+00
        -11   -1    0    0    0    0  0.00000000000E+00  0.00000000000E+00  0.45593999997E+02  0.45594000000E+02  0.51100000000E-03 0.  1.
         11   -1    0    0    0    0 -0.00000000000E+00 -0.00000000000E+00 -0.45593999997E+02  0.45594000000E+02  0.51100000000E-03 0. -1.
    9900012    2    1    2    0    0  0.41889731142E+02 -0.14355145543E+02  0.82640018162E+01  0.46142317579E+02  0.99999983390E+01 0.  0.
         12    1    1    2    0    0 -0.41889731142E+02  0.14355145543E+02 -0.82640018162E+01  0.45045682421E+02  0.00000000000E+00 0. -1.
         11    1    3    3    0    0  0.72588328387E+01 -0.36081651765E+00  0.32564206637E+01  0.79639888585E+01  0.51100000000E-03 0. -1.
        -11    1    3    3    0    0  0.16535259718E+02 -0.39754749911E+01  0.39957600510E+01  0.17469553915E+02  0.51100000000E-03 0.  1.
         12    1    3    3    0    0  0.18095638586E+02 -0.10018854035E+02  0.10118211015E+01  0.20708774805E+02  0.00000000000E+00 0. -1.
</event>
<event>
 7    1  0.1541902E-008  0.4614231E+02  0.7816164E-02  0.1320468E+00
        -11   -1    0    0    0    0  0.00000000000E+00  0.00000000000E+00  0.45593999997E+02  0.45594000000E+02  0.51100000000E-03 0. -1.
         11   -1    0    0    0    0 -0.00000000000E+00 -0.00000000000E+00 -0.45593999997E+02  0.45594000000E+02  0.51100000000E-03 0.  1.
    9900012    2    1    2    0    0 -0.65938759180E+00  0.40686432955E+02 -0.19320808145E+02  0.46142309352E+02  0.99999233200E+01 0.  0.
         12    1    1    2    0    0  0.65938759180E+00 -0.40686432955E+02  0.19320808145E+02  0.45045690648E+02  0.00000000000E+00 0. -1.
         11    1    3    3    0    0 -0.33536401519E+01  0.14766715041E+02 -0.96351710493E+01  0.17948239378E+02  0.51100000000E-03 0. -1.
        -11    1    3    3    0    0  0.93433280119E+00  0.19264839151E+02 -0.89763376305E+01  0.21273966316E+02  0.51100000000E-03 0.  1.
         12    1    3    3    0    0  0.17599197589E+01  0.66548787625E+01 -0.70929946507E+00  0.69201036576E+01  0.00000000000E+00 0. -1.
</event>
<event>
 7    1  0.1541902E-008  0.4614232E+02  0.7816164E-02  0.1320468E+00
        -11   -1    0    0    0    0  0.00000000000E+00  0.00000000000E+00  0.45593999997E+02  0.45594000000E+02  0.51100000000E-03 0.  1.
         11   -1    0    0    0    0 -0.00000000000E+00 -0.00000000000E+00 -0.45593999997E+02  0.45594000000E+02  0.51100000000E-03 0. -1.
    9900012    2    1    2    0    0 -0.26284000986E+02  0.24773126231E+02  0.26917595552E+02  0.46142318282E+02  0.10000004754E+02 0.  0.
         12    1    1    2    0    0  0.26284000986E+02 -0.24773126231E+02 -0.26917595552E+02  0.45045681718E+02  0.00000000000E+00 0. -1.
         11    1    3    3    0    0 -0.21201958907E+01  0.22112640975E+01  0.36301295690E+00  0.30849146167E+01  0.51100000000E-03 0. -1.
        -11    1    3    3    0    0 -0.15083711544E+01 -0.13892370830E+00  0.16402246293E+00  0.15236098470E+01  0.51100000000E-03 0.  1.
        -12    1    3    3    0    0 -0.22655433941E+02  0.22700785842E+02  0.26390560132E+02  0.41533793819E+02  0.00000000000E+00 0.  1.
</event>
<event>
 7    1  0.1541902E-008  0.4614232E+02  0.7816164E-02  0.1320468E+00
        -11   -1    0    0    0    0  0.00000000000E+00  0.00000000000E+00  0.45593999997E+02  0.45594000000E+02  0.51100000000E-03 0.  1.
         11   -1    0    0    0    0 -0.00000000000E+00 -0.00000000000E+00 -0.45593999997E+02  0.45594000000E+02  0.51100000000E-03 0. -1.
    9900012    2    1    2    0    0  0.24843767322E+02 -0.37448572134E+02  0.30830550683E+01  0.46142316986E+02  0.99999929364E+01 0.  0.
         12    1    1    2    0    0 -0.24843767322E+02  0.37448572134E+02 -0.30830550683E+01  0.45045683014E+02  0.00000000000E+00 0. -1.
         11    1    3    3    0    0  0.75865937856E+01 -0.15436684429E+02 -0.10204350522E+01  0.17230464862E+02  0.51100000000E-03 0. -1.
        -11    1    3    3    0    0  0.53253707068E+01 -0.98146857762E+01 -0.69252931056E+00  0.11187816014E+02  0.51100000000E-03 0.  1.
         12    1    3    3    0    0  0.11931802830E+02 -0.12197201929E+02  0.47960194310E+01  0.17724036110E+02  0.00000000000E+00 0. -1.
</event>
<event>
 7    1  0.1541902E-008  0.4614232E+02  0.7816164E-02  0.1320468E+00
        -11   -1    0    0    0    0  0.00000000000E+00  0.00000000000E+00  0.45593999997E+02  0.45594000000E+02  0.51100000000E-03 0.  1.
         11   -1    0    0    0    0 -0.00000000000E+00 -0.00000000000E+00 -0.45593999997E+02  0.45594000000E+02  0.51100000000E-03 0. -1.
    9900012    2    1    2    0    0 -0.31813377418E+01  0.19520034377E+02  0.40471728551E+02  0.46142318033E+02  0.10000002482E+02 0.  0.
         12    1    1    2    0    0  0.31813377418E+01 -0.19520034377E+02 -0.40471728551E+02  0.45045681967E+02  0.00000000000E+00 0. -1.
         11    1    3    3    0    0  0.12900107945E+01  0.78374111626E+00  0.34608123162E+01  0.37756589009E+01  0.51100000000E-03 0. -1.
        -11    1    3    3    0    0  0.20170253231E+01  0.54175716704E+01  0.11297390828E+02  0.12690528505E+02  0.51100000000E-03 0.  1.
        -12    1    3    3    0    0 -0.64883738594E+01  0.13318721590E+02  0.25713525408E+02  0.29676130628E+02  0.00000000000E+00 0.  1.
</event>
<event>
 7    1  0.1541902E-008  0.4614232E+02  0.7816164E-02  0.1320468E+00
        -11   -1    0    0    0    0  0.00000000000E+00  0.00000000000E+00  0.45593999997E+02  0.45594000000E+02  0.51100000000E-03 0.  1.
         11   -1    0    0    0    0 -0.00000000000E+00 -0.00000000000E+00 -0.45593999997E+02  0.45594000000E+02  0.51100000000E-03 0. -1.
    9900012    2    1    2    0    0  0.40249015743E+02 -0.19977109475E+02  0.31694407609E+01  0.46142317344E+02  0.99999961935E+01 0.  0.
         12    1    1    2    0    0 -0.40249015743E+02  0.19977109475E+02 -0.31694407609E+01  0.45045682656E+02  0.00000000000E+00 0. -1.
         11    1    3    3    0    0  0.16972295781E+02 -0.62014938268E+01  0.27819132458E+01  0.18282680092E+02  0.51100000000E-03 0. -1.
        -11    1    3    3    0    0  0.26857681329E+01 -0.45658118772E+01 -0.86895447352E-01  0.52978806746E+01  0.51100000000E-03 0.  1.
        -12    1    3    3    0    0  0.20590951829E+02 -0.92098037710E+01  0.47442296244E+00  0.22561756577E+02  0.00000000000E+00 0.  1.
</event>
<event>
 7    1  0.1541902E-008  0.4614232E+02  0.7816164E-02  0.1320468E+00
        -11   -1    0    0    0    0  0.00000000000E+00  0.00000000000E+00  0.45593999997E+02  0.45594000000E+02  0.51100000000E-03 0.  1.
         11   -1    0    0    0    0 -0.00000000000E+00 -0.00000000000E+00 -0.45593999997E+02  0.45594000000E+02  0.51100000000E-03 0. -1.
    9900012    2    1    2    0    0  0.34983079934E+01  0.72986598851E+01  0.44312580515E+02  0.46142318888E+02  0.10000010280E+02 0.  0.
         12    1    1    2    0    0 -0.34983079934E+01 -0.72986598851E+01 -0.44312580515E+02  0.45045681112E+02  0.00000000000E+00 0. -1.
         11    1    3    3    0    0 -0.90933554636E+00 -0.43730582766E+00  0.19528136730E+02  0.19554187580E+02  0.51100000000E-03 0. -1.
        -11    1    3    3    0    0  0.85996497700E+00  0.36506380542E+01  0.63385354569E+01  0.73650342812E+01  0.51100000000E-03 0.  1.
         12    1    3    3    0    0  0.35476785628E+01  0.40853276586E+01  0.18445908328E+02  0.19223097027E+02  0.00000000000E+00 0. -1.
</event>
<event>
 7    1  0.1541902E-008  0.4614232E+02  0.7816164E-02  0.1320468E+00
        -11   -1    0    0    0    0  0.00000000000E+00  0.00000000000E+00  0.45593999997E+02  0.45594000000E+02  0.51100000000E-03 0.  1.
         11   -1    0    0    0    0 -0.00000000000E+00 -0.00000000000E+00 -0.45593999997E+02  0.45594000000E+02  0.51100000000E-03 0. -1.
    9900012    2    1    2    0    0  0.43879798049E+02 -0.35129554567E+01  0.95569968132E+01  0.46142315180E+02  0.99999764628E+01 0.  0.
         12    1    1    2    0    0 -0.43879798049E+02  0.35129554567E+01 -0.95569968132E+01  0.45045684820E+02  0.00000000000E+00 0. -1.
         11    1    3    3    0    0  0.11147904285E+02 -0.20945723141E+01  0.59383866138E+01  0.12803415129E+02  0.51100000000E-03 0. -1.
        -11    1    3    3    0    0  0.31762830022E+02 -0.18103683208E+01  0.42813671081E+01  0.32101166786E+02  0.51100000000E-03 0.  1.
         12    1    3    3    0    0  0.96906374194E+00  0.39198517813E+00 -0.66275690864E+00  0.12377332652E+01  0.00000000000E+00 0. -1.
</event>
<event>
 7    1  0.1541902E-008  0.4614232E+02  0.7816164E-02  0.1320468E+00
        -11   -1    0    0    0    0  0.00000000000E+00  0.00000000000E+00  0.45593999997E+02  0.45594000000E+02  0.51100000000E-03 0.  1.
         11   -1    0    0    0    0 -0.00000000000E+00 -0.00000000000E+00 -0.45593999997E+02  0.45594000000E+02  0.51100000000E-03 0. -1.
    9900012    2    1    2    0    0 -0.34144925344E+02 -0.20244605046E+02  0.21293037954E+02  0.46142318459E+02  0.10000006360E+02 0.  0.
         12    1    1    2    0    0  0.34144925344E+02  0.20244605046E+02 -0.21293037954E+02  0.45045681541E+02  0.00000000000E+00 0. -1.
         11    1    3    3    0    0 -0.11049411917E+01 -0.18387556796E+01  0.32937812342E+00  0.21703473675E+01  0.51100000000E-03 0. -1.
        -11    1    3    3    0    0 -0.29235915317E+01 -0.76206154372E-02 -0.40217896801E-04  0.29236015085E+01  0.51100000000E-03 0.  1.
        -12    1    3    3    0    0 -0.30116392621E+02 -0.18398228751E+02  0.20963700048E+02  0.41048369582E+02  0.00000000000E+00 0.  1.
</event>
<event>
 7    1  0.1541902E-008  0.4614232E+02  0.7816164E-02  0.1320468E+00
        -11   -1    0    0    0    0  0.00000000000E+00  0.00000000000E+00  0.45593999997E+02  0.45594000000E+02  0.51100000000E-03 0.  1.
         11   -1    0    0    0    0 -0.00000000000E+00 -0.00000000000E+00 -0.45593999997E+02  0.45594000000E+02  0.51100000000E-03 0. -1.
    9900012    2    1    2    0    0  0.32588845951E+02  0.19817181490E+02  0.23965807832E+02  0.46142317547E+02  0.99999980478E+01 0.  0.
         12    1    1    2    0    0 -0.32588845951E+02 -0.19817181490E+02 -0.23965807832E+02  0.45045682453E+02  0.00000000000E+00 0. -1.
         11    1    3    3    0    0  0.97930198769E+01  0.37591452993E+01  0.24968112044E+01  0.10782786196E+02  0.51100000000E-03 0. -1.
        -11    1    3    3    0    0  0.10613816187E+02  0.64406583005E+01  0.11427034423E+02  0.16873419611E+02  0.51100000000E-03 0.  1.
         12    1    3    3    0    0  0.12182009887E+02  0.96173778902E+01  0.10041962204E+02  0.18486111740E+02  0.00000000000E+00 0. -1.
</event>
<event>
 7    1  0.1541902E-008  0.4614232E+02  0.7816164E-02  0.1320468E+00
        -11   -1    0    0    0    0  0.00000000000E+00  0.00000000000E+00  0.45593999997E+02  0.45594000000E+02  0.51100000000E-03 0. -1.
         11   -1    0    0    0    0 -0.00000000000E+00 -0.00000000000E+00 -0.45593999997E+02  0.45594000000E+02  0.51100000000E-03 0.  1.
    9900012    2    1    2    0    0  0.50657447936E+01 -0.12250612773E+02 -0.43050832898E+02  0.46142317667E+02  0.99999991410E+01 0.  0.
         12    1    1    2    0    0 -0.50657447936E+01  0.12250612773E+02  0.43050832898E+02  0.45045682333E+02  0.00000000000E+00 0. -1.
         11    1    3    3    0    0  0.11995446756E+01 -0.31614804297E+01 -0.51074545960E+01  0.61253537569E+01  0.51100000000E-03 0.  1.
        -11    1    3    3    0    0 -0.18196474780E+01 -0.62739828106E+00 -0.26144263366E+01  0.32465321311E+01  0.51100000000E-03 0. -1.
        -12    1    3    3    0    0  0.56858475960E+01 -0.84617340623E+01 -0.35328951965E+02  0.36770431779E+02  0.00000000000E+00 0.  1.
</event>
<event>
 7    1  0.1541902E-008  0.4614232E+02  0.7816164E-02  0.1320468E+00
        -11   -1    0    0    0    0  0.00000000000E+00  0.00000000000E+00  0.45593999997E+02  0.45594000000E+02  0.51100000000E-03 0.  1.
         11   -1    0    0    0    0 -0.00000000000E+00 -0.00000000000E+00 -0.45593999997E+02  0.45594000000E+02  0.51100000000E-03 0. -1.
    9900012    2    1    2    0    0 -0.30433305207E+01 -0.30425473879E+01  0.44839652897E+02  0.46142318440E+02  0.10000006189E+02 0.  0.
         12    1    1    2    0    0  0.30433305207E+01  0.30425473879E+01 -0.44839652897E+02  0.45045681560E+02  0.00000000000E+00 0. -1.
         11    1    3    3    0    0  0.76118609810E+00  0.18628105069E+00  0.32097910529E+02  0.32107475227E+02  0.51100000000E-03 0.  1.
        -11    1    3    3    0    0 -0.13673695237E+01 -0.75701448581E+00  0.80401732818E+01  0.81906750033E+01  0.51100000000E-03 0. -1.
         12    1    3    3    0    0 -0.24371470951E+01 -0.24718139528E+01  0.47015690867E+01  0.58441682092E+01  0.00000000000E+00 0. -1.
</event>
<event>
 7    1  0.1541902E-008  0.4614232E+02  0.7816164E-02  0.1320468E+00
        -11   -1    0    0    0    0  0.00000000000E+00  0.00000000000E+00  0.45593999997E+02  0.45594000000E+02  0.51100000000E-03 0. -1.
         11   -1    0    0    0    0 -0.00000000000E+00 -0.00000000000E+00 -0.45593999997E+02  0.45594000000E+02  0.51100000000E-03 0.  1.
    9900012    2    1    2    0    0 -0.43796809061E+02  0.10520473911E+02  0.52221460017E+00  0.46142316929E+02  0.99999924082E+01 0.  0.
         12    1    1    2    0    0  0.43796809061E+02 -0.10520473911E+02 -0.52221460017E+00  0.45045683071E+02  0.00000000000E+00 0. -1.
         11    1    3    3    0    0  0.42323672413E+00  0.52227721678E+00 -0.40514196617E-02  0.67224957489E+00  0.51100000000E-03 0. -1.
        -11    1    3    3    0    0 -0.42782285504E+02  0.92442878781E+01  0.99292662585E+00  0.43780894405E+02  0.51100000000E-03 0.  1.
        -12    1    3    3    0    0 -0.14377602814E+01  0.75390881642E+00 -0.46666060602E+00  0.16891729490E+01  0.00000000000E+00 0.  1.
</event>
<event>
 7    1  0.1541902E-008  0.4614232E+02  0.7816164E-02  0.1320468E+00
        -11   -1    0    0    0    0  0.00000000000E+00  0.00000000000E+00  0.45593999997E+02  0.45594000000E+02  0.51100000000E-03 0.  1.
         11   -1    0    0    0    0 -0.00000000000E+00 -0.00000000000E+00 -0.45593999997E+02  0.45594000000E+02  0.51100000000E-03 0. -1.
    9900012    2    1    2    0    0  0.33998728465E+02 -0.27483625596E+02 -0.10855885080E+02  0.46142318142E+02  0.10000003475E+02 0.  0.
         12    1    1    2    0    0 -0.33998728465E+02  0.27483625596E+02  0.10855885080E+02  0.45045681858E+02  0.00000000000E+00 0. -1.
         11    1    3    3    0    0  0.22581284362E+01 -0.35635960302E+01 -0.10489383029E+01  0.43472557465E+01  0.51100000000E-03 0. -1.
        -11    1    3    3    0    0  0.79693181765E+01 -0.10953227326E+02 -0.29699903585E+01  0.13867374086E+02  0.51100000000E-03 0.  1.
        -12    1    3    3    0    0  0.23771281853E+02 -0.12966802239E+02 -0.68369564184E+01  0.27927688309E+02  0.00000000000E+00 0.  1.
</event>
<event>
 7    1  0.1541902E-008  0.4614232E+02  0.7816164E-02  0.1320468E+00
        -11   -1    0    0    0    0  0.00000000000E+00  0.00000000000E+00  0.45593999997E+02  0.45594000000E+02  0.51100000000E-03 0. -1.
         11   -1    0    0    0    0 -0.00000000000E+00 -0.00000000000E+00 -0.45593999997E+02  0.45594000000E+02  0.51100000000E-03 0.  1.
    9900012    2    1    2    0    0 -0.30956475304E+02  0.20137516398E+02  0.25793225987E+02  0.46142318334E+02  0.10000005226E+02 0.  0.
         12    1    1    2    0    0  0.30956475304E+02 -0.20137516398E+02 -0.25793225987E+02  0.45045681666E+02  0.00000000000E+00 0. -1.
         11    1    3    3    0    0 -0.31016355081E+01  0.25203454248E+01  0.17783770915E+01  0.43743467200E+01  0.51100000000E-03 0. -1.
        -11    1    3    3    0    0 -0.24885741161E+02  0.13528452055E+02  0.16713442400E+02  0.32888573779E+02  0.51100000000E-03 0.  1.
        -12    1    3    3    0    0 -0.29690986350E+01  0.40887189182E+01  0.73014064954E+01  0.88793978347E+01  0.00000000000E+00 0.  1.
</event>
<event>
 7    1  0.1541902E-008  0.4614232E+02  0.7816164E-02  0.1320468E+00
        -11   -1    0    0    0    0  0.00000000000E+00  0.00000000000E+00  0.45593999997E+02  0.45594000000E+02  0.51100000000E-03 0. -1.
         11   -1    0    0    0    0 -0.00000000000E+00 -0.00000000000E+00 -0.45593999997E+02  0.45594000000E+02  0.51100000000E-03 0.  1.
    9900012    2    1    2    0    0 -0.41968473527E+02 -0.87822521919E+01 -0.13806985072E+02  0.46142316960E+02  0.99999926973E+01 0.  0.
         12    1    1    2    0    0  0.41968473527E+02  0.87822521919E+01  0.13806985072E+02  0.45045683040E+02  0.00000000000E+00 0. -1.
         11    1    3    3    0    0 -0.27001749373E+01 -0.60559194923E+00 -0.30923270600E+01  0.41497196542E+01  0.51100000000E-03 0.  1.
        -11    1    3    3    0    0 -0.20359222958E+02 -0.73116829015E+01 -0.47674320034E+01  0.22151457615E+02  0.51100000000E-03 0. -1.
         12    1    3    3    0    0 -0.18909075632E+02 -0.86497734119E+00 -0.59472260089E+01  0.19841139691E+02  0.00000000000E+00 0. -1.
</event>
<event>
 7    1  0.1541902E-008  0.4614232E+02  0.7816164E-02  0.1320468E+00
        -11   -1    0    0    0    0  0.00000000000E+00  0.00000000000E+00  0.45593999997E+02  0.45594000000E+02  0.51100000000E-03 0. -1.
         11   -1    0    0    0    0 -0.00000000000E+00 -0.00000000000E+00 -0.45593999997E+02  0.45594000000E+02  0.51100000000E-03 0.  1.
    9900012    2    1    2    0    0 -0.43078790155E+02  0.40711841502E+01 -0.12520252249E+02  0.46142318542E+02  0.10000007124E+02 0.  0.
         12    1    1    2    0    0  0.43078790155E+02 -0.40711841502E+01  0.12520252249E+02  0.45045681458E+02  0.00000000000E+00 0. -1.
         11    1    3    3    0    0 -0.47656925481E+01  0.28450263024E+01 -0.26958108926E+01  0.61703643940E+01  0.51100000000E-03 0. -1.
        -11    1    3    3    0    0 -0.34102548523E+02  0.85836189396E+00 -0.10497782828E+02  0.35692072586E+02  0.51100000000E-03 0.  1.
        -12    1    3    3    0    0 -0.42105490836E+01  0.36779595377E+00  0.67334147202E+00  0.42798815622E+01  0.00000000000E+00 0.  1.
</event>
<event>
 7    1  0.1541902E-008  0.4614232E+02  0.7816164E-02  0.1320468E+00
        -11   -1    0    0    0    0  0.00000000000E+00  0.00000000000E+00  0.45593999997E+02  0.45594000000E+02  0.51100000000E-03 0.  1.
         11   -1    0    0    0    0 -0.00000000000E+00 -0.00000000000E+00 -0.45593999997E+02  0.45594000000E+02  0.51100000000E-03 0. -1.
    9900012    2    1    2    0    0 -0.12572672117E+02 -0.36147678830E+02  0.23756815249E+02  0.46142322741E+02  0.10000045407E+02 0.  0.
         12    1    1    2    0    0  0.12572672117E+02  0.36147678830E+02 -0.23756815249E+02  0.45045677259E+02  0.00000000000E+00 0. -1.
         11    1    3    3    0    0  0.93764673722E-01 -0.51921499035E-01  0.19771570225E+00  0.22489867971E+00  0.51100000000E-03 0. -1.
        -11    1    3    3    0    0 -0.78512224770E+01 -0.96007130787E+01  0.60738301690E+01  0.13809663254E+02  0.51100000000E-03 0.  1.
        -12    1    3    3    0    0 -0.48152143142E+01 -0.26495044252E+02  0.17485269378E+02  0.32107760807E+02  0.00000000000E+00 0.  1.
</event>
<event>
 7    1  0.1541902E-008  0.4614232E+02  0.7816164E-02  0.1320468E+00
        -11   -1    0    0    0    0  0.00000000000E+00  0.00000000000E+00  0.45593999997E+02  0.45594000000E+02  0.51100000000E-03 0.  1.
         11   -1    0    0    0    0 -0.00000000000E+00 -0.00000000000E+00 -0.45593999997E+02  0.45594000000E+02  0.51100000000E-03 0. -1.
    9900012    2    1    2    0    0 -0.18515510791E+02 -0.20446456646E+02  0.35612242250E+02  0.46142317329E+02  0.99999960633E+01 0.  0.
         12    1    1    2    0    0  0.18515510791E+02  0.20446456646E+02 -0.35612242250E+02  0.45045682671E+02  0.00000000000E+00 0. -1.
         11    1    3    3    0    0 -0.45610734884E+01 -0.30724048999E+01  0.12049894441E+02  0.13245490536E+02  0.51100000000E-03 0. -1.
        -11    1    3    3    0    0 -0.97417435674E+01 -0.79589515427E+01  0.11731959990E+02  0.17201318637E+02  0.51100000000E-03 0.  1.
        -12    1    3    3    0    0 -0.42126937350E+01 -0.94151002034E+01  0.11830387818E+02  0.15695508156E+02  0.00000000000E+00 0.  1.
</event>
<event>
 7    1  0.1541902E-008  0.4614232E+02  0.7816164E-02  0.1320468E+00
        -11   -1    0    0    0    0  0.00000000000E+00  0.00000000000E+00  0.45593999997E+02  0.45594000000E+02  0.51100000000E-03 0.  1.
         11   -1    0    0    0    0 -0.00000000000E+00 -0.00000000000E+00 -0.45593999997E+02  0.45594000000E+02  0.51100000000E-03 0. -1.
    9900012    2    1    2    0    0  0.33314264856E+02 -0.12814173746E+02  0.27478539148E+02  0.46142318682E+02  0.10000008400E+02 0.  0.
         12    1    1    2    0    0 -0.33314264856E+02  0.12814173746E+02 -0.27478539148E+02  0.45045681318E+02  0.00000000000E+00 0. -1.
         11    1    3    3    0    0  0.26375232548E+01 -0.16390930035E+01  0.12082796467E+00  0.31076927860E+01  0.51100000000E-03 0. -1.
        -11    1    3    3    0    0  0.23817459604E+02 -0.84249491528E+01  0.24246568772E+02  0.35016385417E+02  0.51100000000E-03 0.  1.
        -12    1    3    3    0    0  0.68592819969E+01 -0.27501315899E+01  0.31111424113E+01  0.80182404789E+01  0.00000000000E+00 0.  1.
</event>
<event>
 7    1  0.1541902E-008  0.4614232E+02  0.7816164E-02  0.1320468E+00
        -11   -1    0    0    0    0  0.00000000000E+00  0.00000000000E+00  0.45593999997E+02  0.45594000000E+02  0.51100000000E-03 0.  1.
         11   -1    0    0    0    0 -0.00000000000E+00 -0.00000000000E+00 -0.45593999997E+02  0.45594000000E+02  0.51100000000E-03 0. -1.
    9900012    2    1    2    0    0 -0.17192134752E+02 -0.41634752445E+02 -0.30225100218E+00  0.46142318030E+02  0.10000002448E+02 0.  0.
         12    1    1    2    0    0  0.17192134752E+02  0.41634752445E+02  0.30225100218E+00  0.45045681970E+02  0.00000000000E+00 0. -1.
         11    1    3    3    0    0 -0.26358149189E+01 -0.14269869243E+02  0.83260680459E+00  0.14535127205E+02  0.51100000000E-03 0.  1.
        -11    1    3    3    0    0 -0.10237995396E+02 -0.12827224733E+02 -0.97353457570E+00  0.16440864148E+02  0.51100000000E-03 0. -1.
         12    1    3    3    0    0 -0.43183244366E+01 -0.14537658469E+02 -0.16132323108E+00  0.15166326677E+02  0.00000000000E+00 0. -1.
</event>
<event>
 7    1  0.1541902E-008  0.4614232E+02  0.7816164E-02  0.1320468E+00
        -11   -1    0    0    0    0  0.00000000000E+00  0.00000000000E+00  0.45593999997E+02  0.45594000000E+02  0.51100000000E-03 0.  1.
         11   -1    0    0    0    0 -0.00000000000E+00 -0.00000000000E+00 -0.45593999997E+02  0.45594000000E+02  0.51100000000E-03 0. -1.
    9900012    2    1    2    0    0  0.42057919785E+02  0.12258588010E+02  0.10486748457E+02  0.46142317745E+02  0.99999998486E+01 0.  0.
         12    1    1    2    0    0 -0.42057919785E+02 -0.12258588010E+02 -0.10486748457E+02  0.45045682255E+02  0.00000000000E+00 0. -1.
         11    1    3    3    0    0  0.24288176062E+01  0.39792558101E+00  0.25256458712E+01  0.35265262030E+01  0.51100000000E-03 0. -1.
        -11    1    3    3    0    0  0.20686446305E+02  0.33448687419E+01  0.22468606744E+01  0.21075236435E+02  0.51100000000E-03 0.  1.
        -12    1    3    3    0    0  0.18942655874E+02  0.85157936876E+01  0.57142419110E+01  0.21540555107E+02  0.00000000000E+00 0.  1.
</event>
<event>
 7    1  0.1541902E-008  0.4614232E+02  0.7816164E-02  0.1320468E+00
        -11   -1    0    0    0    0  0.00000000000E+00  0.00000000000E+00  0.45593999997E+02  0.45594000000E+02  0.51100000000E-03 0.  1.
         11   -1    0    0    0    0 -0.00000000000E+00 -0.00000000000E+00 -0.45593999997E+02  0.45594000000E+02  0.51100000000E-03 0. -1.
    9900012    2    1    2    0    0 -0.38008123537E+02  0.19832699083E+02  0.13826062127E+02  0.46142318723E+02  0.10000008775E+02 0.  0.
         12    1    1    2    0    0  0.38008123537E+02 -0.19832699083E+02 -0.13826062127E+02  0.45045681277E+02  0.00000000000E+00 0. -1.
         11    1    3    3    0    0 -0.10160403969E+02  0.13408873683E+01  0.44143381817E+01  0.11158770971E+02  0.51100000000E-03 0. -1.
        -11    1    3    3    0    0 -0.86993978147E+01  0.78301507392E+01  0.43794786884E+01  0.12496824268E+02  0.51100000000E-03 0.  1.
         12    1    3    3    0    0 -0.19148321754E+02  0.10661660975E+02  0.50322452564E+01  0.22486723484E+02  0.00000000000E+00 0. -1.
</event>
<event>
 7    1  0.1541902E-008  0.4614232E+02  0.7816164E-02  0.1320468E+00
        -11   -1    0    0    0    0  0.00000000000E+00  0.00000000000E+00  0.45593999997E+02  0.45594000000E+02  0.51100000000E-03 0. -1.
         11   -1    0    0    0    0 -0.00000000000E+00 -0.00000000000E+00 -0.45593999997E+02  0.45594000000E+02  0.51100000000E-03 0.  1.
    9900012    2    1    2    0    0  0.21389410666E+01  0.22397912158E+02 -0.39023984493E+02  0.46142324251E+02  0.10000059183E+02 0.  0.
         12    1    1    2    0    0 -0.21389410666E+01 -0.22397912158E+02  0.39023984493E+02  0.45045675749E+02  0.00000000000E+00 0. -1.
         11    1    3    3    0    0 -0.20293387164E+01  0.11653334304E+02 -0.13200798758E+02  0.17725109425E+02  0.51100000000E-03 0. -1.
        -11    1    3    3    0    0  0.44821920486E+01  0.98374107637E+01 -0.22570413460E+02  0.25025751939E+02  0.51100000000E-03 0.  1.
        -12    1    3    3    0    0 -0.31391226556E+00  0.90716709011E+00 -0.32527722754E+01  0.33914628872E+01  0.00000000000E+00 0.  1.
</event>
<event>
 7    1  0.1541902E-008  0.4614232E+02  0.7816164E-02  0.1320468E+00
        -11   -1    0    0    0    0  0.00000000000E+00  0.00000000000E+00  0.45593999997E+02  0.45594000000E+02  0.51100000000E-03 0.  1.
         11   -1    0    0    0    0 -0.00000000000E+00 -0.00000000000E+00 -0.45593999997E+02  0.45594000000E+02  0.51100000000E-03 0. -1.
    9900012    2    1    2    0    0 -0.10553692605E+02 -0.20457622559E+02  0.38719746260E+02  0.46142317645E+02  0.99999989408E+01 0.  0.
         12    1    1    2    0    0  0.10553692605E+02  0.20457622559E+02 -0.38719746260E+02  0.45045682355E+02  0.00000000000E+00 0. -1.
         11    1    3    3    0    0 -0.71069952392E+01 -0.17260981716E+02  0.25491562617E+02  0.31595421124E+02  0.51100000000E-03 0.  1.
        -11    1    3    3    0    0 -0.19539646663E+01 -0.24286451334E+00  0.18667487970E+01  0.27132475783E+01  0.51100000000E-03 0. -1.
        -12    1    3    3    0    0 -0.14927326997E+01 -0.29537763303E+01  0.11361434846E+02  0.11833648942E+02  0.00000000000E+00 0.  1.
</event>
<event>
 7    1  0.1541902E-008  0.4614232E+02  0.7816164E-02  0.1320468E+00
        -11   -1    0    0    0    0  0.00000000000E+00  0.00000000000E+00  0.45593999997E+02  0.45594000000E+02  0.51100000000E-03 0.  1.
         11   -1    0    0    0    0 -0.00000000000E+00 -0.00000000000E+00 -0.45593999997E+02  0.45594000000E+02  0.51100000000E-03 0. -1.
    9900012    2    1    2    0    0 -0.63233472939E+01  0.33281839950E+02  0.29689188268E+02  0.46142317727E+02  0.99999996890E+01 0.  0.
         12    1    1    2    0    0  0.63233472939E+01 -0.33281839950E+02 -0.29689188268E+02  0.45045682273E+02  0.00000000000E+00 0. -1.
         11    1    3    3    0    0 -0.17661642398E+00  0.21578549405E+01  0.60196316994E+01  0.63971475958E+01  0.51100000000E-03 0. -1.
        -11    1    3    3    0    0 -0.54107390773E+01  0.27590969337E+02  0.22295708074E+02  0.35883649272E+02  0.51100000000E-03 0.  1.
        -12    1    3    3    0    0 -0.73599179253E+00  0.35330156721E+01  0.13738484949E+01  0.38615208591E+01  0.00000000000E+00 0.  1.
</event>
<event>
 7    1  0.1541902E-008  0.4614232E+02  0.7816164E-02  0.1320468E+00
        -11   -1    0    0    0    0  0.00000000000E+00  0.00000000000E+00  0.45593999997E+02  0.45594000000E+02  0.51100000000E-03 0.  1.
         11   -1    0    0    0    0 -0.00000000000E+00 -0.00000000000E+00 -0.45593999997E+02  0.45594000000E+02  0.51100000000E-03 0. -1.
    9900012    2    1    2    0    0 -0.39927647976E+02  0.18541788922E+02  0.95445388184E+01  0.46142320623E+02  0.10000026096E+02 0.  0.
         12    1    1    2    0    0  0.39927647976E+02 -0.18541788922E+02 -0.95445388184E+01  0.45045679377E+02  0.00000000000E+00 0. -1.
         11    1    3    3    0    0 -0.29454925212E+02  0.14274994823E+02  0.50860558332E+01  0.33124553743E+02  0.51100000000E-03 0. -1.
        -11    1    3    3    0    0 -0.51316711588E+01  0.45746740606E+01  0.23076636769E+01  0.72516897030E+01  0.51100000000E-03 0.  1.
        -12    1    3    3    0    0 -0.53410516043E+01 -0.30787996227E+00  0.21508193083E+01  0.57660771768E+01  0.00000000000E+00 0.  1.
</event>
<event>
 7    1  0.1541902E-008  0.4614232E+02  0.7816164E-02  0.1320468E+00
        -11   -1    0    0    0    0  0.00000000000E+00  0.00000000000E+00  0.45593999997E+02  0.45594000000E+02  0.51100000000E-03 0. -1.
         11   -1    0    0    0    0 -0.00000000000E+00 -0.00000000000E+00 -0.45593999997E+02  0.45594000000E+02  0.51100000000E-03 0.  1.
    9900012    2    1    2    0    0  0.40391569763E+02  0.23504657325E+01 -0.19801768247E+02  0.46142316269E+02  0.99999863983E+01 0.  0.
         12    1    1    2    0    0 -0.40391569763E+02 -0.23504657325E+01  0.19801768247E+02  0.45045683731E+02  0.00000000000E+00 0. -1.
         11    1    3    3    0    0  0.20959133404E+02 -0.29708751491E+00 -0.73189414892E+01  0.22202262020E+02  0.51100000000E-03 0. -1.
        -11    1    3    3    0    0  0.15338969201E+02  0.51890786066E+00 -0.72821100474E+01  0.16987712280E+02  0.51100000000E-03 0.  1.
         12    1    3    3    0    0  0.40934671581E+01  0.21286453868E+01 -0.52007167101E+01  0.69523419691E+01  0.00000000000E+00 0. -1.
</event>
<event>
 7    1  0.1541902E-008  0.4614232E+02  0.7816164E-02  0.1320468E+00
        -11   -1    0    0    0    0  0.00000000000E+00  0.00000000000E+00  0.45593999997E+02  0.45594000000E+02  0.51100000000E-03 0.  1.
         11   -1    0    0    0    0 -0.00000000000E+00 -0.00000000000E+00 -0.45593999997E+02  0.45594000000E+02  0.51100000000E-03 0. -1.
    9900012    2    1    2    0    0 -0.37031710756E+01  0.31270244650E+02  0.32211361755E+02  0.46142317603E+02  0.99999985606E+01 0.  0.
         12    1    1    2    0    0  0.37031710756E+01 -0.31270244650E+02 -0.32211361755E+02  0.45045682397E+02  0.00000000000E+00 0. -1.
         11    1    3    3    0    0 -0.12831622020E+01  0.24386424699E+02  0.23730625400E+02  0.34051237819E+02  0.51100000000E-03 0. -1.
        -11    1    3    3    0    0 -0.10411190576E+01  0.62918413851E+01  0.84547303875E+01  0.10590262655E+02  0.51100000000E-03 0.  1.
         12    1    3    3    0    0 -0.13788898161E+01  0.59197856632E+00  0.26005966979E-01  0.15008171302E+01  0.00000000000E+00 0. -1.
</event>
<event>
 7    1  0.1541902E-008  0.4614232E+02  0.7816164E-02  0.1320468E+00
        -11   -1    0    0    0    0  0.00000000000E+00  0.00000000000E+00  0.45593999997E+02  0.45594000000E+02  0.51100000000E-03 0.  1.
         11   -1    0    0    0    0 -0.00000000000E+00 -0.00000000000E+00 -0.45593999997E+02  0.45594000000E+02  0.51100000000E-03 0. -1.
    9900012    2    1    2    0    0  0.72630902046E+01 -0.16221783367E+02  0.41390998466E+02  0.46142317755E+02  0.99999999468E+01 0.  0.
         12    1    1    2    0    0 -0.72630902046E+01  0.16221783367E+02 -0.41390998466E+02  0.45045682245E+02  0.00000000000E+00 0. -1.
         11    1    3    3    0    0  0.21145351532E+01 -0.10120681582E+01  0.20599763650E+01  0.31207441030E+01  0.51100000000E-03 0. -1.
        -11    1    3    3    0    0  0.65903788230E+01 -0.11076594060E+02  0.31768328104E+02  0.34283388102E+02  0.51100000000E-03 0.  1.
         12    1    3    3    0    0 -0.14418237717E+01 -0.41331211483E+01  0.75626939968E+01  0.87381855499E+01  0.00000000000E+00 0. -1.
</event>
<event>
 7    1  0.1541902E-008  0.4614232E+02  0.7816164E-02  0.1320468E+00
        -11   -1    0    0    0    0  0.00000000000E+00  0.00000000000E+00  0.45593999997E+02  0.45594000000E+02  0.51100000000E-03 0.  1.
         11   -1    0    0    0    0 -0.00000000000E+00 -0.00000000000E+00 -0.45593999997E+02  0.45594000000E+02  0.51100000000E-03 0. -1.
    9900012    2    1    2    0    0  0.25751737996E+02  0.27073013639E+02  0.25159756457E+02  0.46142318495E+02  0.10000006690E+02 0.  0.
         12    1    1    2    0    0 -0.25751737996E+02 -0.27073013639E+02 -0.25159756457E+02  0.45045681505E+02  0.00000000000E+00 0. -1.
         11    1    3    3    0    0  0.20003279186E+01 -0.29754196156E+00  0.79290357855E+00  0.21722199122E+01  0.51100000000E-03 0. -1.
        -11    1    3    3    0    0  0.12135914834E+02  0.17715587471E+02  0.13536660448E+02  0.25384318873E+02  0.51100000000E-03 0.  1.
        -12    1    3    3    0    0  0.11615495243E+02  0.96549681293E+01  0.10830192430E+02  0.18585779709E+02  0.00000000000E+00 0.  1.
</event>
<event>
 7    1  0.1541902E-008  0.4614232E+02  0.7816164E-02  0.1320468E+00
        -11   -1    0    0    0    0  0.00000000000E+00  0.00000000000E+00  0.45593999997E+02  0.45594000000E+02  0.51100000000E-03 0.  1.
         11   -1    0    0    0    0 -0.00000000000E+00 -0.00000000000E+00 -0.45593999997E+02  0.45594000000E+02  0.51100000000E-03 0. -1.
    9900012    2    1    2    0    0  0.76860596534E+01  0.14730229999E+02  0.41869538732E+02  0.46142318048E+02  0.10000002620E+02 0.  0.
         12    1    1    2    0    0 -0.76860596534E+01 -0.14730229999E+02 -0.41869538732E+02  0.45045681952E+02  0.00000000000E+00 0. -1.
         11    1    3    3    0    0  0.42864663474E+01  0.12369266248E+02  0.24120122646E+02  0.27443630554E+02  0.51100000000E-03 0. -1.
        -11    1    3    3    0    0  0.40083304524E+01  0.12753893704E+01  0.16051345676E+02  0.16593342922E+02  0.51100000000E-03 0.  1.
         12    1    3    3    0    0 -0.60873714644E+00  0.10855743803E+01  0.16980704101E+01  0.21053445719E+01  0.00000000000E+00 0. -1.
</event>
<event>
 7    1  0.1541902E-008  0.4614232E+02  0.7816164E-02  0.1320468E+00
        -11   -1    0    0    0    0  0.00000000000E+00  0.00000000000E+00  0.45593999997E+02  0.45594000000E+02  0.51100000000E-03 0.  1.
         11   -1    0    0    0    0 -0.00000000000E+00 -0.00000000000E+00 -0.45593999997E+02  0.45594000000E+02  0.51100000000E-03 0. -1.
    9900012    2    1    2    0    0 -0.16375779229E-01  0.25640236763E+02  0.37036353703E+02  0.46142317576E+02  0.99999983118E+01 0.  0.
         12    1    1    2    0    0  0.16375779229E-01 -0.25640236763E+02 -0.37036353703E+02  0.45045682424E+02  0.00000000000E+00 0. -1.
         11    1    3    3    0    0 -0.20875866257E+01  0.43213050230E+00  0.26341196507E+01  0.33887079081E+01  0.51100000000E-03 0. -1.
        -11    1    3    3    0    0  0.91498929117E+00  0.19067939308E+02  0.24774820804E+02  0.31276432997E+02  0.51100000000E-03 0.  1.
         12    1    3    3    0    0  0.11562215553E+01  0.61401669531E+01  0.96274132480E+01  0.11477176671E+02  0.00000000000E+00 0. -1.
</event>
<event>
 7    1  0.1541902E-008  0.4614232E+02  0.7816164E-02  0.1320468E+00
        -11   -1    0    0    0    0  0.00000000000E+00  0.00000000000E+00  0.45593999997E+02  0.45594000000E+02  0.51100000000E-03 0.  1.
         11   -1    0    0    0    0 -0.00000000000E+00 -0.00000000000E+00 -0.45593999997E+02  0.45594000000E+02  0.51100000000E-03 0. -1.
    9900012    2    1    2    0    0  0.18494214490E+02  0.35535515661E+02  0.20598657228E+02  0.46142317382E+02  0.99999965438E+01 0.  0.
         12    1    1    2    0    0 -0.18494214490E+02 -0.35535515661E+02 -0.20598657228E+02  0.45045682618E+02  0.00000000000E+00 0. -1.
         11    1    3    3    0    0  0.56861302172E+01  0.42507281359E+01  0.26649202420E+01  0.75830446846E+01  0.51100000000E-03 0. -1.
        -11    1    3    3    0    0  0.91598243513E+01  0.22123333158E+02  0.10197346712E+02  0.26025566898E+02  0.51100000000E-03 0.  1.
         12    1    3    3    0    0  0.36482599217E+01  0.91614543676E+01  0.77363902740E+01  0.12533705799E+02  0.00000000000E+00 0. -1.
</event>
<event>
 7    1  0.1541902E-008  0.4614232E+02  0.7816164E-02  0.1320468E+00
        -11   -1    0    0    0    0  0.00000000000E+00  0.00000000000E+00  0.45593999997E+02  0.45594000000E+02  0.51100000000E-03 0.  1.
         11   -1    0    0    0    0 -0.00000000000E+00 -0.00000000000E+00 -0.45593999997E+02  0.45594000000E+02  0.51100000000E-03 0. -1.
    9900012    2    1    2    0    0  0.21464409270E+02 -0.50296407562E+01  0.39282251608E+02  0.46142318267E+02  0.10000004610E+02 0.  0.
         12    1    1    2    0    0 -0.21464409270E+02  0.50296407562E+01 -0.39282251608E+02  0.45045681733E+02  0.00000000000E+00 0. -1.
         11    1    3    3    0    0  0.16510480110E+02 -0.27302753365E+01  0.22477780642E+02  0.28023222151E+02  0.51100000000E-03 0. -1.
        -11    1    3    3    0    0  0.13945735066E+01 -0.23402242342E+01  0.10804782114E+02  0.11142926076E+02  0.51100000000E-03 0.  1.
         12    1    3    3    0    0  0.35593556538E+01  0.40858814471E-01  0.59996888508E+01  0.69761700395E+01  0.00000000000E+00 0. -1.
</event>
<event>
 7    1  0.1541902E-008  0.4614232E+02  0.7816164E-02  0.1320468E+00
        -11   -1    0    0    0    0  0.00000000000E+00  0.00000000000E+00  0.45593999997E+02  0.45594000000E+02  0.51100000000E-03 0. -1.
         11   -1    0    0    0    0 -0.00000000000E+00 -0.00000000000E+00 -0.45593999997E+02  0.45594000000E+02  0.51100000000E-03 0.  1.
    9900012    2    1    2    0    0  0.58454693890E+01 -0.43506202478E+02  0.10107139745E+02  0.46142318295E+02  0.10000004872E+02 0.  0.
         12    1    1    2    0    0 -0.58454693890E+01  0.43506202478E+02 -0.10107139745E+02  0.45045681705E+02  0.00000000000E+00 0. -1.
         11    1    3    3    0    0 -0.11440106063E+01 -0.23302909613E+01  0.21194322928E+01  0.33512698692E+01  0.51100000000E-03 0. -1.
        -11    1    3    3    0    0  0.47414067355E+01 -0.16577555961E+02  0.47073025421E+01  0.17873304030E+02  0.51100000000E-03 0.  1.
        -12    1    3    3    0    0  0.22480732598E+01 -0.24598355555E+02  0.32804049099E+01  0.24917744396E+02  0.00000000000E+00 0.  1.
</event>
<event>
 7    1  0.1541902E-008  0.4614232E+02  0.7816164E-02  0.1320468E+00
        -11   -1    0    0    0    0  0.00000000000E+00  0.00000000000E+00  0.45593999997E+02  0.45594000000E+02  0.51100000000E-03 0.  1.
         11   -1    0    0    0    0 -0.00000000000E+00 -0.00000000000E+00 -0.45593999997E+02  0.45594000000E+02  0.51100000000E-03 0. -1.
    9900012    2    1    2    0    0  0.37978856363E+02 -0.13277973391E+02  0.20258709817E+02  0.46142318393E+02  0.10000005758E+02 0.  0.
         12    1    1    2    0    0 -0.37978856363E+02  0.13277973391E+02 -0.20258709817E+02  0.45045681607E+02  0.00000000000E+00 0. -1.
         11    1    3    3    0    0  0.14249667034E+01 -0.12023093339E+01  0.58974375932E+00  0.19554732938E+01  0.51100000000E-03 0. -1.
        -11    1    3    3    0    0  0.24006414717E+02 -0.11310532992E+02  0.16406873892E+02  0.31199705372E+02  0.51100000000E-03 0.  1.
        -12    1    3    3    0    0  0.12547474943E+02 -0.76513106521E+00  0.32620921658E+01  0.12987139727E+02  0.00000000000E+00 0.  1.
</event>
<event>
 7    1  0.1541902E-008  0.4614232E+02  0.7816164E-02  0.1320468E+00
        -11   -1    0    0    0    0  0.00000000000E+00  0.00000000000E+00  0.45593999997E+02  0.45594000000E+02  0.51100000000E-03 0.  1.
         11   -1    0    0    0    0 -0.00000000000E+00 -0.00000000000E+00 -0.45593999997E+02  0.45594000000E+02  0.51100000000E-03 0. -1.
    9900012    2    1    2    0    0  0.21471910033E+02  0.13280601217E+02  0.37305443645E+02  0.46142318579E+02  0.10000007455E+02 0.  0.
         12    1    1    2    0    0 -0.21471910033E+02 -0.13280601217E+02 -0.37305443645E+02  0.45045681421E+02  0.00000000000E+00 0. -1.
         11    1    3    3    0    0  0.14313691438E+00  0.18247575232E+01  0.96257651517E+00  0.20680382016E+01  0.51100000000E-03 0. -1.
        -11    1    3    3    0    0  0.10736282595E+02  0.44943024940E+01  0.22315792007E+02  0.25168652965E+02  0.51100000000E-03 0.  1.
         12    1    3    3    0    0  0.10592490524E+02  0.69615411997E+01  0.14027075122E+02  0.18905627413E+02  0.00000000000E+00 0. -1.
</event>
<event>
 7    1  0.1541902E-008  0.4614232E+02  0.7816164E-02  0.1320468E+00
        -11   -1    0    0    0    0  0.00000000000E+00  0.00000000000E+00  0.45593999997E+02  0.45594000000E+02  0.51100000000E-03 0.  1.
         11   -1    0    0    0    0 -0.00000000000E+00 -0.00000000000E+00 -0.45593999997E+02  0.45594000000E+02  0.51100000000E-03 0. -1.
    9900012    2    1    2    0    0 -0.42167168472E+02 -0.59777216348E+01  0.14673439438E+02  0.46142322318E+02  0.10000041551E+02 0.  0.
         12    1    1    2    0    0  0.42167168472E+02  0.59777216348E+01 -0.14673439438E+02  0.45045677682E+02  0.00000000000E+00 0. -1.
         11    1    3    3    0    0 -0.22811276937E+02 -0.53439019819E+01  0.11348693796E+02  0.26032758114E+02  0.51100000000E-03 0. -1.
        -11    1    3    3    0    0 -0.15906890889E+02 -0.47304196947E+00  0.99634381096E+00  0.15945082242E+02  0.51100000000E-03 0.  1.
        -12    1    3    3    0    0 -0.34490006458E+01 -0.16077768345E+00  0.23284018310E+01  0.41644819612E+01  0.00000000000E+00 0.  1.
</event>
<event>
 7    1  0.1541902E-008  0.4614232E+02  0.7816164E-02  0.1320468E+00
        -11   -1    0    0    0    0  0.00000000000E+00  0.00000000000E+00  0.45593999997E+02  0.45594000000E+02  0.51100000000E-03 0.  1.
         11   -1    0    0    0    0 -0.00000000000E+00 -0.00000000000E+00 -0.45593999997E+02  0.45594000000E+02  0.51100000000E-03 0. -1.
    9900012    2    1    2    0    0 -0.94693955592E+01 -0.42285036627E+02 -0.12305271297E+02  0.46142317893E+02  0.10000001203E+02 0.  0.
         12    1    1    2    0    0  0.94693955592E+01  0.42285036627E+02  0.12305271297E+02  0.45045682107E+02  0.00000000000E+00 0. -1.
         11    1    3    3    0    0  0.40577022824E+00 -0.45401828095E+01  0.17288015575E+00  0.45615564483E+01  0.51100000000E-03 0. -1.
        -11    1    3    3    0    0 -0.73560149463E+01 -0.24218376053E+02 -0.11459093202E+02  0.27784015401E+02  0.51100000000E-03 0.  1.
        -12    1    3    3    0    0 -0.25191508411E+01 -0.13526477765E+02 -0.10190582499E+01  0.13796746044E+02  0.00000000000E+00 0.  1.
</event>
<event>
 7    1  0.1541902E-008  0.4614232E+02  0.7816164E-02  0.1320468E+00
        -11   -1    0    0    0    0  0.00000000000E+00  0.00000000000E+00  0.45593999997E+02  0.45594000000E+02  0.51100000000E-03 0. -1.
         11   -1    0    0    0    0 -0.00000000000E+00 -0.00000000000E+00 -0.45593999997E+02  0.45594000000E+02  0.51100000000E-03 0.  1.
    9900012    2    1    2    0    0  0.14927041983E+02 -0.23479736030E+02 -0.35425962134E+02  0.46142318970E+02  0.10000011021E+02 0.  0.
         12    1    1    2    0    0 -0.14927041983E+02  0.23479736030E+02  0.35425962134E+02  0.45045681030E+02  0.00000000000E+00 0. -1.
         11    1    3    3    0    0  0.88274174696E+01 -0.10201587971E+02 -0.17991560896E+02  0.22487595693E+02  0.51100000000E-03 0. -1.
        -11    1    3    3    0    0  0.19185570763E+01 -0.58304390448E+01 -0.12146425763E+02  0.13609207905E+02  0.51100000000E-03 0.  1.
         12    1    3    3    0    0  0.41810674369E+01 -0.74477090143E+01 -0.52879754739E+01  0.10045515372E+02  0.00000000000E+00 0. -1.
</event>
<event>
 7    1  0.1541902E-008  0.4614232E+02  0.7816164E-02  0.1320468E+00
        -11   -1    0    0    0    0  0.00000000000E+00  0.00000000000E+00  0.45593999997E+02  0.45594000000E+02  0.51100000000E-03 0.  1.
         11   -1    0    0    0    0 -0.00000000000E+00 -0.00000000000E+00 -0.45593999997E+02  0.45594000000E+02  0.51100000000E-03 0. -1.
    9900012    2    1    2    0    0  0.44857601849E+02  0.58746669708E+00  0.40698724789E+01  0.46142318489E+02  0.10000006641E+02 0.  0.
         12    1    1    2    0    0 -0.44857601849E+02 -0.58746669708E+00 -0.40698724789E+01  0.45045681511E+02  0.00000000000E+00 0. -1.
         11    1    3    3    0    0  0.19668126242E+02 -0.29450448299E+01  0.19169644458E+01  0.19979570363E+02  0.51100000000E-03 0. -1.
        -11    1    3    3    0    0  0.16150958388E+02  0.39975609929E+01 -0.75825401326E+00  0.16655596662E+02  0.51100000000E-03 0.  1.
         12    1    3    3    0    0  0.90385172184E+01 -0.46504946588E+00  0.29111620463E+01  0.95071514648E+01  0.00000000000E+00 0. -1.
</event>
<event>
 7    1  0.1541902E-008  0.4614232E+02  0.7816164E-02  0.1320468E+00
        -11   -1    0    0    0    0  0.00000000000E+00  0.00000000000E+00  0.45593999997E+02  0.45594000000E+02  0.51100000000E-03 0. -1.
         11   -1    0    0    0    0 -0.00000000000E+00 -0.00000000000E+00 -0.45593999997E+02  0.45594000000E+02  0.51100000000E-03 0.  1.
    9900012    2    1    2    0    0 -0.42625112410E+02 -0.11870865109E+02 -0.84436838273E+01  0.46142318265E+02  0.10000004596E+02 0.  0.
         12    1    1    2    0    0  0.42625112410E+02  0.11870865109E+02  0.84436838273E+01  0.45045681735E+02  0.00000000000E+00 0. -1.
         11    1    3    3    0    0 -0.36219451989E+02 -0.87856567175E+01 -0.58805899207E+01  0.37730860107E+02  0.51100000000E-03 0.  1.
        -11    1    3    3    0    0 -0.49806990636E+01 -0.38136561348E+01 -0.26475290985E+01  0.68088726574E+01  0.51100000000E-03 0. -1.
         12    1    3    3    0    0 -0.14249613573E+01  0.72844774363E+00  0.84435191956E-01  0.16025855005E+01  0.00000000000E+00 0. -1.
</event>
<event>
 7    1  0.1541902E-008  0.4614232E+02  0.7816164E-02  0.1320468E+00
        -11   -1    0    0    0    0  0.00000000000E+00  0.00000000000E+00  0.45593999997E+02  0.45594000000E+02  0.51100000000E-03 0.  1.
         11   -1    0    0    0    0 -0.00000000000E+00 -0.00000000000E+00 -0.45593999997E+02  0.45594000000E+02  0.51100000000E-03 0. -1.
    9900012    2    1    2    0    0  0.96590956660E+01  0.22101274324E+02  0.38044040517E+02  0.46142317913E+02  0.10000001389E+02 0.  0.
         12    1    1    2    0    0 -0.96590956660E+01 -0.22101274324E+02 -0.38044040517E+02  0.45045682087E+02  0.00000000000E+00 0. -1.
         11    1    3    3    0    0 -0.19651039794E+00  0.23895084004E-01  0.76048639916E+00  0.78582894829E+00  0.51100000000E-03 0. -1.
        -11    1    3    3    0    0  0.91483897282E+01  0.22224130317E+02  0.37553391712E+02  0.44585448660E+02  0.51100000000E-03 0.  1.
        -12    1    3    3    0    0  0.70721633579E+00 -0.14675107695E+00 -0.26983759409E+00  0.77104030464E+00  0.00000000000E+00 0.  1.
</event>
<event>
 7    1  0.1541902E-008  0.4614232E+02  0.7816164E-02  0.1320468E+00
        -11   -1    0    0    0    0  0.00000000000E+00  0.00000000000E+00  0.45593999997E+02  0.45594000000E+02  0.51100000000E-03 0. -1.
         11   -1    0    0    0    0 -0.00000000000E+00 -0.00000000000E+00 -0.45593999997E+02  0.45594000000E+02  0.51100000000E-03 0.  1.
    9900012    2    1    2    0    0 -0.11150947129E+02  0.43380875864E+02 -0.47822173908E+01  0.46142316347E+02  0.99999871018E+01 0.  0.
         12    1    1    2    0    0  0.11150947129E+02 -0.43380875864E+02  0.47822173908E+01  0.45045683653E+02  0.00000000000E+00 0. -1.
         11    1    3    3    0    0 -0.24757000298E+01  0.12541963164E+02  0.27260969227E+01  0.13071401430E+02  0.51100000000E-03 0. -1.
        -11    1    3    3    0    0 -0.21667487975E+01  0.12228182519E+02 -0.18242468869E+01  0.12551937103E+02  0.51100000000E-03 0.  1.
         12    1    3    3    0    0 -0.65084983013E+01  0.18610730182E+02 -0.56840674266E+01  0.20518977815E+02  0.00000000000E+00 0. -1.
</event>
<event>
 7    1  0.1541902E-008  0.4614232E+02  0.7816164E-02  0.1320468E+00
        -11   -1    0    0    0    0  0.00000000000E+00  0.00000000000E+00  0.45593999997E+02  0.45594000000E+02  0.51100000000E-03 0. -1.
         11   -1    0    0    0    0 -0.00000000000E+00 -0.00000000000E+00 -0.45593999997E+02  0.45594000000E+02  0.51100000000E-03 0.  1.
    9900012    2    1    2    0    0  0.17767527977E+02  0.21145870008E+02  0.35584836858E+02  0.46142317820E+02  0.10000000535E+02 0.  0.
         12    1    1    2    0    0 -0.17767527977E+02 -0.21145870008E+02 -0.35584836858E+02  0.45045682180E+02  0.00000000000E+00 0. -1.
         11    1    3    3    0    0  0.75069441600E+01  0.93914644553E+01  0.20536619808E+02  0.23797196655E+02  0.51100000000E-03 0. -1.
        -11    1    3    3    0    0  0.10032879957E+02  0.10631088593E+02  0.11448569880E+02  0.18567403627E+02  0.51100000000E-03 0.  1.
        -12    1    3    3    0    0  0.22770386026E+00  0.11233169606E+01  0.35996471703E+01  0.37777175375E+01  0.00000000000E+00 0.  1.
</event>
<event>
 7    1  0.1541902E-008  0.4614232E+02  0.7816164E-02  0.1320468E+00
        -11   -1    0    0    0    0  0.00000000000E+00  0.00000000000E+00  0.45593999997E+02  0.45594000000E+02  0.51100000000E-03 0.  1.
         11   -1    0    0    0    0 -0.00000000000E+00 -0.00000000000E+00 -0.45593999997E+02  0.45594000000E+02  0.51100000000E-03 0. -1.
    9900012    2    1    2    0    0 -0.30170480901E+02 -0.33134231706E+02  0.45802096510E+01  0.46142317088E+02  0.99999938631E+01 0.  0.
         12    1    1    2    0    0  0.30170480901E+02  0.33134231706E+02 -0.45802096510E+01  0.45045682912E+02  0.00000000000E+00 0. -1.
         11    1    3    3    0    0 -0.14658286000E+01 -0.34115018435E+01  0.22371222581E+01  0.43349411267E+01  0.51100000000E-03 0. -1.
        -11    1    3    3    0    0 -0.39467777160E+01 -0.73564862430E+01 -0.14993071717E+00  0.83496960222E+01  0.51100000000E-03 0.  1.
        -12    1    3    3    0    0 -0.24757874585E+02 -0.22366243620E+02  0.24930181101E+01  0.33457679939E+02  0.00000000000E+00 0.  1.
</event>
<event>
 7    1  0.1541902E-008  0.4614232E+02  0.7816164E-02  0.1320468E+00
        -11   -1    0    0    0    0  0.00000000000E+00  0.00000000000E+00  0.45593999997E+02  0.45594000000E+02  0.51100000000E-03 0.  1.
         11   -1    0    0    0    0 -0.00000000000E+00 -0.00000000000E+00 -0.45593999997E+02  0.45594000000E+02  0.51100000000E-03 0. -1.
    9900012    2    1    2    0    0 -0.32348813826E+02  0.80110458888E+00  0.31337291916E+02  0.46142318863E+02  0.10000010045E+02 0.  0.
         12    1    1    2    0    0  0.32348813826E+02 -0.80110458888E+00 -0.31337291916E+02  0.45045681137E+02  0.00000000000E+00 0. -1.
         11    1    3    3    0    0  0.18014961421E+00 -0.52708634219E+00  0.15422364942E+00  0.57797845183E+00  0.51100000000E-03 0. -1.
        -11    1    3    3    0    0 -0.23714892254E+02  0.18181113849E+01  0.26362967121E+02  0.35506445602E+02  0.51100000000E-03 0.  1.
         12    1    3    3    0    0 -0.88140711864E+01 -0.48992045381E+00  0.48201011455E+01  0.10057894809E+02  0.00000000000E+00 0. -1.
</event>
<event>
 7    1  0.1541902E-008  0.4614232E+02  0.7816164E-02  0.1320468E+00
        -11   -1    0    0    0    0  0.00000000000E+00  0.00000000000E+00  0.45593999997E+02  0.45594000000E+02  0.51100000000E-03 0.  1.
         11   -1    0    0    0    0 -0.00000000000E+00 -0.00000000000E+00 -0.45593999997E+02  0.45594000000E+02  0.51100000000E-03 0. -1.
    9900012    2    1    2    0    0 -0.39288092455E+02  0.20189829875E+02  0.88278010203E+01  0.46142317521E+02  0.99999978095E+01 0.  0.
         12    1    1    2    0    0  0.39288092455E+02 -0.20189829875E+02 -0.88278010203E+01  0.45045682479E+02  0.00000000000E+00 0. -1.
         11    1    3    3    0    0 -0.23049033704E+01  0.85140906185E+00  0.25317613503E+01  0.35280720987E+01  0.51100000000E-03 0. -1.
        -11    1    3    3    0    0 -0.33579728320E+02  0.17993908145E+02  0.73640614271E+01  0.38802168565E+02  0.51100000000E-03 0.  1.
        -12    1    3    3    0    0 -0.34034607643E+01  0.13445126687E+01 -0.10680217571E+01  0.38120768571E+01  0.00000000000E+00 0.  1.
</event>
<event>
 7    1  0.1541902E-008  0.4614232E+02  0.7816164E-02  0.1320468E+00
        -11   -1    0    0    0    0  0.00000000000E+00  0.00000000000E+00  0.45593999997E+02  0.45594000000E+02  0.51100000000E-03 0.  1.
         11   -1    0    0    0    0 -0.00000000000E+00 -0.00000000000E+00 -0.45593999997E+02  0.45594000000E+02  0.51100000000E-03 0. -1.
    9900012    2    1    2    0    0 -0.37916463634E+02 -0.38261820206E+01  0.24016982867E+02  0.46142319304E+02  0.10000014067E+02 0.  0.
         12    1    1    2    0    0  0.37916463634E+02  0.38261820206E+01 -0.24016982867E+02  0.45045680696E+02  0.00000000000E+00 0. -1.
         11    1    3    3    0    0 -0.11253820407E+02 -0.17049107591E+01  0.49026696513E+01  0.12393198313E+02  0.51100000000E-03 0. -1.
        -11    1    3    3    0    0 -0.17278968355E+02 -0.48758936101E+01  0.11126725514E+02  0.21122052619E+02  0.51100000000E-03 0.  1.
         12    1    3    3    0    0 -0.93836748727E+01  0.27546223485E+01  0.79875877008E+01  0.12627068372E+02  0.00000000000E+00 0. -1.
</event>
<event>
 7    1  0.1541902E-008  0.4614232E+02  0.7816164E-02  0.1320468E+00
        -11   -1    0    0    0    0  0.00000000000E+00  0.00000000000E+00  0.45593999997E+02  0.45594000000E+02  0.51100000000E-03 0.  1.
         11   -1    0    0    0    0 -0.00000000000E+00 -0.00000000000E+00 -0.45593999997E+02  0.45594000000E+02  0.51100000000E-03 0. -1.
    9900012    2    1    2    0    0 -0.36853937152E+02  0.17108877490E+02  0.19447035661E+02  0.46142316871E+02  0.99999918840E+01 0.  0.
         12    1    1    2    0    0  0.36853937152E+02 -0.17108877490E+02 -0.19447035661E+02  0.45045683129E+02  0.00000000000E+00 0. -1.
         11    1    3    3    0    0 -0.72455731169E+01  0.71252424175E+01  0.76315375620E+01  0.12708570932E+02  0.51100000000E-03 0. -1.
        -11    1    3    3    0    0 -0.22576936942E+02  0.70096108299E+01  0.87784936083E+01  0.25217348710E+02  0.51100000000E-03 0.  1.
         12    1    3    3    0    0 -0.70314270934E+01  0.29740242425E+01  0.30370044905E+01  0.82163972300E+01  0.00000000000E+00 0. -1.
</event>
<event>
 7    1  0.1541902E-008  0.4614232E+02  0.7816164E-02  0.1320468E+00
        -11   -1    0    0    0    0  0.00000000000E+00  0.00000000000E+00  0.45593999997E+02  0.45594000000E+02  0.51100000000E-03 0.  1.
         11   -1    0    0    0    0 -0.00000000000E+00 -0.00000000000E+00 -0.45593999997E+02  0.45594000000E+02  0.51100000000E-03 0. -1.
    9900012    2    1    2    0    0 -0.46160630923E+01  0.16336893423E+02  0.41724228716E+02  0.46142318885E+02  0.10000010244E+02 0.  0.
         12    1    1    2    0    0  0.46160630923E+01 -0.16336893423E+02 -0.41724228716E+02  0.45045681115E+02  0.00000000000E+00 0. -1.
         11    1    3    3    0    0 -0.70650716305E+01  0.96815218808E+01  0.26219308796E+02  0.28828792154E+02  0.51100000000E-03 0. -1.
        -11    1    3    3    0    0  0.70325127500E+00  0.49777098752E+01  0.12369861129E+02  0.13352363932E+02  0.51100000000E-03 0.  1.
         12    1    3    3    0    0  0.17457572632E+01  0.16776616669E+01  0.31350587916E+01  0.39611627987E+01  0.00000000000E+00 0. -1.
</event>
<event>
 7    1  0.1541902E-008  0.4614232E+02  0.7816164E-02  0.1320468E+00
        -11   -1    0    0    0    0  0.00000000000E+00  0.00000000000E+00  0.45593999997E+02  0.45594000000E+02  0.51100000000E-03 0.  1.
         11   -1    0    0    0    0 -0.00000000000E+00 -0.00000000000E+00 -0.45593999997E+02  0.45594000000E+02  0.51100000000E-03 0. -1.
    9900012    2    1    2    0    0  0.37106596958E+02 -0.65380923725E+01  0.24687391376E+02  0.46142317825E+02  0.10000000584E+02 0.  0.
         12    1    1    2    0    0 -0.37106596958E+02  0.65380923725E+01 -0.24687391376E+02  0.45045682175E+02  0.00000000000E+00 0. -1.
         11    1    3    3    0    0  0.15304568431E+02 -0.49139263105E+01  0.12265790946E+02  0.20219448915E+02  0.51100000000E-03 0. -1.
        -11    1    3    3    0    0  0.19163080971E+02 -0.31284507493E+01  0.91702111951E+01  0.21473324149E+02  0.51100000000E-03 0.  1.
         12    1    3    3    0    0  0.26389475558E+01  0.15042846873E+01  0.32513892352E+01  0.44495447611E+01  0.00000000000E+00 0. -1.
</event>
<event>
 7    1  0.1541902E-008  0.4614232E+02  0.7816164E-02  0.1320468E+00
        -11   -1    0    0    0    0  0.00000000000E+00  0.00000000000E+00  0.45593999997E+02  0.45594000000E+02  0.51100000000E-03 0.  1.
         11   -1    0    0    0    0 -0.00000000000E+00 -0.00000000000E+00 -0.45593999997E+02  0.45594000000E+02  0.51100000000E-03 0. -1.
    9900012    2    1    2    0    0  0.26640065156E+02 -0.29272221175E+02  0.21507149637E+02  0.46142317748E+02  0.99999998802E+01 0.  0.
         12    1    1    2    0    0 -0.26640065156E+02  0.29272221175E+02 -0.21507149637E+02  0.45045682252E+02  0.00000000000E+00 0. -1.
         11    1    3    3    0    0  0.83700229537E+01 -0.50072491238E+01  0.34780409469E+01  0.10355027625E+02  0.51100000000E-03 0. -1.
        -11    1    3    3    0    0  0.17953745102E+02 -0.21908078368E+02  0.15393972200E+02  0.32237792129E+02  0.51100000000E-03 0.  1.
        -12    1    3    3    0    0  0.31629710107E+00 -0.23568936823E+01  0.26351364905E+01  0.35494979940E+01  0.00000000000E+00 0.  1.
</event>
<event>
 7    1  0.1541902E-008  0.4614232E+02  0.7816164E-02  0.1320468E+00
        -11   -1    0    0    0    0  0.00000000000E+00  0.00000000000E+00  0.45593999997E+02  0.45594000000E+02  0.51100000000E-03 0. -1.
         11   -1    0    0    0    0 -0.00000000000E+00 -0.00000000000E+00 -0.45593999997E+02  0.45594000000E+02  0.51100000000E-03 0.  1.
    9900012    2    1    2    0    0  0.44025771040E+02 -0.62745729053E+01 -0.71745907527E+01  0.46142317263E+02  0.99999954580E+01 0.  0.
         12    1    1    2    0    0 -0.44025771040E+02  0.62745729053E+01  0.71745907527E+01  0.45045682737E+02  0.00000000000E+00 0. -1.
         11    1    3    3    0    0  0.67713841735E+01  0.16926856015E+01  0.89598298197E+00  0.70370174034E+01  0.51100000000E-03 0. -1.
        -11    1    3    3    0    0  0.24703230169E+02 -0.61596639443E+01 -0.68562933365E+01  0.26366641790E+02  0.51100000000E-03 0.  1.
         12    1    3    3    0    0  0.12551156697E+02 -0.18075945625E+01 -0.12142803981E+01  0.12738658070E+02  0.00000000000E+00 0. -1.
</event>
<event>
 7    1  0.1541902E-008  0.4614232E+02  0.7816164E-02  0.1320468E+00
        -11   -1    0    0    0    0  0.00000000000E+00  0.00000000000E+00  0.45593999997E+02  0.45594000000E+02  0.51100000000E-03 0.  1.
         11   -1    0    0    0    0 -0.00000000000E+00 -0.00000000000E+00 -0.45593999997E+02  0.45594000000E+02  0.51100000000E-03 0. -1.
    9900012    2    1    2    0    0 -0.28912744535E+02 -0.34416502766E+02  0.29446000623E+01  0.46142321753E+02  0.10000036401E+02 0.  0.
         12    1    1    2    0    0  0.28912744535E+02  0.34416502766E+02 -0.29446000623E+01  0.45045678247E+02  0.00000000000E+00 0. -1.
         11    1    3    3    0    0 -0.63902386840E+01 -0.50359111027E+01 -0.67634193900E+00  0.81641282298E+01  0.51100000000E-03 0. -1.
        -11    1    3    3    0    0 -0.22847284616E+02 -0.27225515045E+02  0.28100605087E+01  0.35652819301E+02  0.51100000000E-03 0.  1.
        -12    1    3    3    0    0  0.32477876495E+00 -0.21550766188E+01  0.81088149255E+00  0.23253742224E+01  0.00000000000E+00 0.  1.
</event>
<event>
 7    1  0.1541902E-008  0.4614232E+02  0.7816164E-02  0.1320468E+00
        -11   -1    0    0    0    0  0.00000000000E+00  0.00000000000E+00  0.45593999997E+02  0.45594000000E+02  0.51100000000E-03 0. -1.
         11   -1    0    0    0    0 -0.00000000000E+00 -0.00000000000E+00 -0.45593999997E+02  0.45594000000E+02  0.51100000000E-03 0.  1.
    9900012    2    1    2    0    0 -0.32089420698E+02  0.25535361462E+02 -0.18636735224E+02  0.46142317571E+02  0.99999982628E+01 0.  0.
         12    1    1    2    0    0  0.32089420698E+02 -0.25535361462E+02  0.18636735224E+02  0.45045682429E+02  0.00000000000E+00 0. -1.
         11    1    3    3    0    0 -0.11074836535E+02  0.88631101883E+01 -0.94593064252E+01  0.17049492801E+02  0.51100000000E-03 0. -1.
        -11    1    3    3    0    0 -0.18793927087E+01  0.42423758345E+01 -0.27212119760E+01  0.53791137331E+01  0.51100000000E-03 0.  1.
        -12    1    3    3    0    0 -0.19135191455E+02  0.12429875439E+02 -0.64562168227E+01  0.23713711036E+02  0.00000000000E+00 0.  1.
</event>
<event>
 7    1  0.1541902E-008  0.4614232E+02  0.7816164E-02  0.1320468E+00
        -11   -1    0    0    0    0  0.00000000000E+00  0.00000000000E+00  0.45593999997E+02  0.45594000000E+02  0.51100000000E-03 0. -1.
         11   -1    0    0    0    0 -0.00000000000E+00 -0.00000000000E+00 -0.45593999997E+02  0.45594000000E+02  0.51100000000E-03 0.  1.
    9900012    2    1    2    0    0 -0.89128275746E+01  0.38170716610E+02 -0.22196202358E+02  0.46142317620E+02  0.99999987150E+01 0.  0.
         12    1    1    2    0    0  0.89128275746E+01 -0.38170716610E+02  0.22196202358E+02  0.45045682380E+02  0.00000000000E+00 0. -1.
         11    1    3    3    0    0 -0.49207079366E+00  0.10108537885E+02 -0.94577153686E+01  0.13851824865E+02  0.51100000000E-03 0.  1.
        -11    1    3    3    0    0 -0.62195574653E+01  0.15647256974E+02 -0.92347686750E+01  0.19204179197E+02  0.51100000000E-03 0. -1.
         12    1    3    3    0    0 -0.22011993157E+01  0.12414921752E+02 -0.35037183148E+01  0.13086313559E+02  0.00000000000E+00 0. -1.
</event>
<event>
 7    1  0.1541902E-008  0.4614232E+02  0.7816164E-02  0.1320468E+00
        -11   -1    0    0    0    0  0.00000000000E+00  0.00000000000E+00  0.45593999997E+02  0.45594000000E+02  0.51100000000E-03 0. -1.
         11   -1    0    0    0    0 -0.00000000000E+00 -0.00000000000E+00 -0.45593999997E+02  0.45594000000E+02  0.51100000000E-03 0.  1.
    9900012    2    1    2    0    0  0.17561218583E+02  0.34583801950E+01 -0.41337109681E+02  0.46142318426E+02  0.10000006066E+02 0.  0.
         12    1    1    2    0    0 -0.17561218583E+02 -0.34583801950E+01  0.41337109681E+02  0.45045681574E+02  0.00000000000E+00 0. -1.
         11    1    3    3    0    0  0.54614396946E+01 -0.15299353477E+01 -0.15095912877E+02  0.16126208840E+02  0.51100000000E-03 0. -1.
        -11    1    3    3    0    0  0.11505674210E+02  0.37503918270E+01 -0.25920188893E+02  0.28605981375E+02  0.51100000000E-03 0.  1.
        -12    1    3    3    0    0  0.59410467887E+00  0.12379237157E+01 -0.32100791060E+00  0.14101282119E+01  0.00000000000E+00 0.  1.
</event>
<event>
 7    1  0.1541902E-008  0.4614232E+02  0.7816164E-02  0.1320468E+00
        -11   -1    0    0    0    0  0.00000000000E+00  0.00000000000E+00  0.45593999997E+02  0.45594000000E+02  0.51100000000E-03 0.  1.
         11   -1    0    0    0    0 -0.00000000000E+00 -0.00000000000E+00 -0.45593999997E+02  0.45594000000E+02  0.51100000000E-03 0. -1.
    9900012    2    1    2    0    0  0.27970133504E+02 -0.21418818326E+02  0.28071681443E+02  0.46142318234E+02  0.10000004316E+02 0.  0.
         12    1    1    2    0    0 -0.27970133504E+02  0.21418818326E+02 -0.28071681443E+02  0.45045681766E+02  0.00000000000E+00 0. -1.
         11    1    3    3    0    0  0.11819215547E+02 -0.14850437297E+02  0.13270301817E+02  0.23158805121E+02  0.51100000000E-03 0. -1.
        -11    1    3    3    0    0  0.19921320773E+01 -0.14822802225E+01  0.27673869774E+01  0.37180876556E+01  0.51100000000E-03 0.  1.
         12    1    3    3    0    0  0.14158785880E+02 -0.50861008059E+01  0.12033992649E+02  0.19265425458E+02  0.00000000000E+00 0. -1.
</event>
<event>
 7    1  0.1541902E-008  0.4614232E+02  0.7816164E-02  0.1320468E+00
        -11   -1    0    0    0    0  0.00000000000E+00  0.00000000000E+00  0.45593999997E+02  0.45594000000E+02  0.51100000000E-03 0.  1.
         11   -1    0    0    0    0 -0.00000000000E+00 -0.00000000000E+00 -0.45593999997E+02  0.45594000000E+02  0.51100000000E-03 0. -1.
    9900012    2    1    2    0    0  0.14590345247E+02  0.36672254392E+02  0.21711308147E+02  0.46142319651E+02  0.10000017235E+02 0.  0.
         12    1    1    2    0    0 -0.14590345247E+02 -0.36672254392E+02 -0.21711308147E+02  0.45045680349E+02  0.00000000000E+00 0. -1.
         11    1    3    3    0    0  0.37171694512E+01  0.31339752633E+01  0.47891680353E+01  0.68246084438E+01  0.51100000000E-03 0. -1.
        -11    1    3    3    0    0  0.36660383786E+01  0.17785507380E+02  0.90556153614E+01  0.20292074315E+02  0.51100000000E-03 0.  1.
         12    1    3    3    0    0  0.72071374174E+01  0.15752771749E+02  0.78665247500E+01  0.19025636892E+02  0.00000000000E+00 0. -1.
</event>
<event>
 7    1  0.1541902E-008  0.4614232E+02  0.7816164E-02  0.1320468E+00
        -11   -1    0    0    0    0  0.00000000000E+00  0.00000000000E+00  0.45593999997E+02  0.45594000000E+02  0.51100000000E-03 0.  1.
         11   -1    0    0    0    0 -0.00000000000E+00 -0.00000000000E+00 -0.45593999997E+02  0.45594000000E+02  0.51100000000E-03 0. -1.
    9900012    2    1    2    0    0  0.29221843251E+02  0.32615572979E+02  0.10555651158E+02  0.46142317686E+02  0.99999993120E+01 0.  0.
         12    1    1    2    0    0 -0.29221843251E+02 -0.32615572979E+02 -0.10555651158E+02  0.45045682314E+02  0.00000000000E+00 0. -1.
         11    1    3    3    0    0  0.86983638521E+01  0.52454783198E+01  0.37067003467E+01  0.10812779672E+02  0.51100000000E-03 0.  1.
        -11    1    3    3    0    0  0.78468211032E+01  0.13066221976E+02  0.53697184783E+01  0.16159598849E+02  0.51100000000E-03 0. -1.
         12    1    3    3    0    0  0.12676658296E+02  0.14303872684E+02  0.14792323333E+01  0.19169939165E+02  0.00000000000E+00 0. -1.
</event>
<event>
 7    1  0.1541902E-008  0.4614232E+02  0.7816164E-02  0.1320468E+00
        -11   -1    0    0    0    0  0.00000000000E+00  0.00000000000E+00  0.45593999997E+02  0.45594000000E+02  0.51100000000E-03 0. -1.
         11   -1    0    0    0    0 -0.00000000000E+00 -0.00000000000E+00 -0.45593999997E+02  0.45594000000E+02  0.51100000000E-03 0.  1.
    9900012    2    1    2    0    0 -0.24550334989E+02  0.29489459824E+02 -0.23595896013E+02  0.46142317660E+02  0.99999990816E+01 0.  0.
         12    1    1    2    0    0  0.24550334989E+02 -0.29489459824E+02  0.23595896013E+02  0.45045682340E+02  0.00000000000E+00 0. -1.
         11    1    3    3    0    0 -0.42816807678E+01  0.40356809379E+01 -0.83384168559E+00  0.59426259387E+01  0.51100000000E-03 0. -1.
        -11    1    3    3    0    0 -0.11206607008E+02  0.96805893062E+01 -0.12025421565E+02  0.19076493756E+02  0.51100000000E-03 0.  1.
        -12    1    3    3    0    0 -0.90620472128E+01  0.15773189580E+02 -0.10736632763E+02  0.21123197965E+02  0.00000000000E+00 0.  1.
</event>
<event>
 7    1  0.1541902E-008  0.4614232E+02  0.7816164E-02  0.1320468E+00
        -11   -1    0    0    0    0  0.00000000000E+00  0.00000000000E+00  0.45593999997E+02  0.45594000000E+02  0.51100000000E-03 0.  1.
         11   -1    0    0    0    0 -0.00000000000E+00 -0.00000000000E+00 -0.45593999997E+02  0.45594000000E+02  0.51100000000E-03 0. -1.
    9900012    2    1    2    0    0 -0.22085256738E+02  0.90315497829E+01  0.38207146654E+02  0.46142317498E+02  0.99999976000E+01 0.  0.
         12    1    1    2    0    0  0.22085256738E+02 -0.90315497829E+01 -0.38207146654E+02  0.45045682502E+02  0.00000000000E+00 0. -1.
         11    1    3    3    0    0 -0.85778779857E+01  0.22759625604E-01  0.16891966638E+02  0.18945158904E+02  0.51100000000E-03 0. -1.
        -11    1    3    3    0    0 -0.49704900896E+01  0.58919643117E+01  0.11232655643E+02  0.13623273037E+02  0.51100000000E-03 0.  1.
        -12    1    3    3    0    0 -0.85368886624E+01  0.31168258456E+01  0.10082524373E+02  0.13573885557E+02  0.00000000000E+00 0.  1.
</event>
<event>
 7    1  0.1541902E-008  0.4614232E+02  0.7816164E-02  0.1320468E+00
        -11   -1    0    0    0    0  0.00000000000E+00  0.00000000000E+00  0.45593999997E+02  0.45594000000E+02  0.51100000000E-03 0.  1.
         11   -1    0    0    0    0 -0.00000000000E+00 -0.00000000000E+00 -0.45593999997E+02  0.45594000000E+02  0.51100000000E-03 0. -1.
    9900012    2    1    2    0    0 -0.17252516254E+02  0.14000310614E+02  0.39184889329E+02  0.46142316899E+02  0.99999921347E+01 0.  0.
         12    1    1    2    0    0  0.17252516254E+02 -0.14000310614E+02 -0.39184889329E+02  0.45045683101E+02  0.00000000000E+00 0. -1.
         11    1    3    3    0    0 -0.53383339514E+01  0.27504358175E+01  0.17655472591E+02  0.18648818173E+02  0.51100000000E-03 0. -1.
        -11    1    3    3    0    0 -0.87266468918E+01  0.10004584885E+02  0.19241658615E+02  0.23377072341E+02  0.51100000000E-03 0.  1.
        -12    1    3    3    0    0 -0.31875354105E+01  0.12452899109E+01  0.22877581221E+01  0.41164263847E+01  0.00000000000E+00 0.  1.
</event>
<event>
 7    1  0.1541902E-008  0.4614232E+02  0.7816164E-02  0.1320468E+00
        -11   -1    0    0    0    0  0.00000000000E+00  0.00000000000E+00  0.45593999997E+02  0.45594000000E+02  0.51100000000E-03 0.  1.
         11   -1    0    0    0    0 -0.00000000000E+00 -0.00000000000E+00 -0.45593999997E+02  0.45594000000E+02  0.51100000000E-03 0. -1.
    9900012    2    1    2    0    0 -0.96812388333E+01  0.67598012419E+01  0.43470590143E+02  0.46142317570E+02  0.99999982589E+01 0.  0.
         12    1    1    2    0    0  0.96812388333E+01 -0.67598012419E+01 -0.43470590143E+02  0.45045682430E+02  0.00000000000E+00 0. -1.
         11    1    3    3    0    0 -0.48165888075E+01  0.26171470465E+01  0.73228827476E+01  0.91473273911E+01  0.51100000000E-03 0. -1.
        -11    1    3    3    0    0 -0.22402760977E+01  0.45585563159E+01  0.20283454738E+02  0.20909753921E+02  0.51100000000E-03 0.  1.
        -12    1    3    3    0    0 -0.26243739281E+01 -0.41590212044E+00  0.15864252657E+02  0.16085236258E+02  0.00000000000E+00 0.  1.
</event>
<event>
 7    1  0.1541902E-008  0.4614232E+02  0.7816164E-02  0.1320468E+00
        -11   -1    0    0    0    0  0.00000000000E+00  0.00000000000E+00  0.45593999997E+02  0.45594000000E+02  0.51100000000E-03 0. -1.
         11   -1    0    0    0    0 -0.00000000000E+00 -0.00000000000E+00 -0.45593999997E+02  0.45594000000E+02  0.51100000000E-03 0.  1.
    9900012    2    1    2    0    0  0.34130538214E+02  0.25793970196E+02 -0.14102872074E+02  0.46142317210E+02  0.99999949766E+01 0.  0.
         12    1    1    2    0    0 -0.34130538214E+02 -0.25793970196E+02  0.14102872074E+02  0.45045682790E+02  0.00000000000E+00 0. -1.
         11    1    3    3    0    0  0.17800875114E+02  0.93376495071E+01 -0.49711197998E+01  0.20706880148E+02  0.51100000000E-03 0. -1.
        -11    1    3    3    0    0  0.15760220909E+02  0.16817565050E+02 -0.90278290796E+01  0.24753116076E+02  0.51100000000E-03 0.  1.
        -12    1    3    3    0    0  0.56944219060E+00 -0.36124436139E+00 -0.10392319410E+00  0.68232098557E+00  0.00000000000E+00 0.  1.
</event>
<event>
 7    1  0.1541902E-008  0.4614232E+02  0.7816164E-02  0.1320468E+00
        -11   -1    0    0    0    0  0.00000000000E+00  0.00000000000E+00  0.45593999997E+02  0.45594000000E+02  0.51100000000E-03 0. -1.
         11   -1    0    0    0    0 -0.00000000000E+00 -0.00000000000E+00 -0.45593999997E+02  0.45594000000E+02  0.51100000000E-03 0.  1.
    9900012    2    1    2    0    0 -0.37741520722E+02 -0.22714743622E+02 -0.94197397509E+01  0.46142318062E+02  0.10000002747E+02 0.  0.
         12    1    1    2    0    0  0.37741520722E+02  0.22714743622E+02  0.94197397509E+01  0.45045681938E+02  0.00000000000E+00 0. -1.
         11    1    3    3    0    0 -0.76520226790E+01 -0.64230803528E+01 -0.37303829019E+00  0.99974281756E+01  0.51100000000E-03 0. -1.
        -11    1    3    3    0    0 -0.13400333584E+02 -0.31927307897E+01 -0.38005177699E+01  0.14290080673E+02  0.51100000000E-03 0.  1.
        -12    1    3    3    0    0 -0.16689164459E+02 -0.13098932480E+02 -0.52461836909E+01  0.21854809214E+02  0.00000000000E+00 0.  1.
</event>
<event>
 7    1  0.1541902E-008  0.4614232E+02  0.7816164E-02  0.1320468E+00
        -11   -1    0    0    0    0  0.00000000000E+00  0.00000000000E+00  0.45593999997E+02  0.45594000000E+02  0.51100000000E-03 0.  1.
         11   -1    0    0    0    0 -0.00000000000E+00 -0.00000000000E+00 -0.45593999997E+02  0.45594000000E+02  0.51100000000E-03 0. -1.
    9900012    2    1    2    0    0 -0.29975019752E+02  0.18749296151E+02  0.27911929597E+02  0.46142315089E+02  0.99999756334E+01 0.  0.
         12    1    1    2    0    0  0.29975019752E+02 -0.18749296151E+02 -0.27911929597E+02  0.45045684911E+02  0.00000000000E+00 0. -1.
         11    1    3    3    0    0 -0.14705608912E+01  0.39076885496E+01  0.14549751945E+01  0.44214852949E+01  0.51100000000E-03 0. -1.
        -11    1    3    3    0    0 -0.10925458403E+02  0.62302477576E+01  0.87089765000E+01  0.15297970466E+02  0.51100000000E-03 0.  1.
         12    1    3    3    0    0 -0.17579000457E+02  0.86113598433E+01  0.17747977903E+02  0.26422859328E+02  0.00000000000E+00 0. -1.
</event>
<event>
 7    1  0.1541902E-008  0.4614232E+02  0.7816164E-02  0.1320468E+00
        -11   -1    0    0    0    0  0.00000000000E+00  0.00000000000E+00  0.45593999997E+02  0.45594000000E+02  0.51100000000E-03 0.  1.
         11   -1    0    0    0    0 -0.00000000000E+00 -0.00000000000E+00 -0.45593999997E+02  0.45594000000E+02  0.51100000000E-03 0. -1.
    9900012    2    1    2    0    0  0.34356220832E+02 -0.18430042262E+02  0.22563180506E+02  0.46142317830E+02  0.10000000630E+02 0.  0.
         12    1    1    2    0    0 -0.34356220832E+02  0.18430042262E+02 -0.22563180506E+02  0.45045682170E+02  0.00000000000E+00 0. -1.
         11    1    3    3    0    0  0.20269537616E+01 -0.15896945697E+01  0.32459844553E+01  0.41439215390E+01  0.51100000000E-03 0. -1.
        -11    1    3    3    0    0  0.20480168601E+02 -0.80257700530E+01  0.80515210346E+01  0.23423861383E+02  0.51100000000E-03 0.  1.
        -12    1    3    3    0    0  0.11849098469E+02 -0.88145776393E+01  0.11265675016E+02  0.18574534908E+02  0.00000000000E+00 0.  1.
</event>
<event>
 7    1  0.1541902E-008  0.4614232E+02  0.7816164E-02  0.1320468E+00
        -11   -1    0    0    0    0  0.00000000000E+00  0.00000000000E+00  0.45593999997E+02  0.45594000000E+02  0.51100000000E-03 0.  1.
         11   -1    0    0    0    0 -0.00000000000E+00 -0.00000000000E+00 -0.45593999997E+02  0.45594000000E+02  0.51100000000E-03 0. -1.
    9900012    2    1    2    0    0  0.10659826917E+02  0.15877710780E+02  0.40784556751E+02  0.46142315646E+02  0.99999807144E+01 0.  0.
         12    1    1    2    0    0 -0.10659826917E+02 -0.15877710780E+02 -0.40784556751E+02  0.45045684354E+02  0.00000000000E+00 0. -1.
         11    1    3    3    0    0 -0.11713320510E+01  0.34939556570E+01  0.52931153357E+01  0.64495592969E+01  0.51100000000E-03 0. -1.
        -11    1    3    3    0    0  0.86987540348E+01  0.65985721294E+01  0.18634580595E+02  0.21597617232E+02  0.51100000000E-03 0.  1.
         12    1    3    3    0    0  0.31324049332E+01  0.57851829932E+01  0.16856860821E+02  0.18095139117E+02  0.00000000000E+00 0. -1.
</event>
<event>
 7    1  0.1541902E-008  0.4614232E+02  0.7816164E-02  0.1320468E+00
        -11   -1    0    0    0    0  0.00000000000E+00  0.00000000000E+00  0.45593999997E+02  0.45594000000E+02  0.51100000000E-03 0. -1.
         11   -1    0    0    0    0 -0.00000000000E+00 -0.00000000000E+00 -0.45593999997E+02  0.45594000000E+02  0.51100000000E-03 0.  1.
    9900012    2    1    2    0    0 -0.28371170096E+02  0.18620267022E+02 -0.29622218109E+02  0.46142318273E+02  0.10000004666E+02 0.  0.
         12    1    1    2    0    0  0.28371170096E+02 -0.18620267022E+02  0.29622218109E+02  0.45045681727E+02  0.00000000000E+00 0. -1.
         11    1    3    3    0    0 -0.17167910101E+02  0.81601577720E+01 -0.14044577607E+02  0.23634201331E+02  0.51100000000E-03 0. -1.
        -11    1    3    3    0    0 -0.75335951178E+01  0.33558559280E+01 -0.81370158816E+01  0.11585674436E+02  0.51100000000E-03 0.  1.
         12    1    3    3    0    0 -0.36696648767E+01  0.71042533223E+01 -0.74406246200E+01  0.10922442507E+02  0.00000000000E+00 0. -1.
</event>
<event>
 7    1  0.1541902E-008  0.4614232E+02  0.7816164E-02  0.1320468E+00
        -11   -1    0    0    0    0  0.00000000000E+00  0.00000000000E+00  0.45593999997E+02  0.45594000000E+02  0.51100000000E-03 0. -1.
         11   -1    0    0    0    0 -0.00000000000E+00 -0.00000000000E+00 -0.45593999997E+02  0.45594000000E+02  0.51100000000E-03 0.  1.
    9900012    2    1    2    0    0  0.34740192752E+01 -0.12164372564E+02 -0.43232774328E+02  0.46142317123E+02  0.99999941824E+01 0.  0.
         12    1    1    2    0    0 -0.34740192752E+01  0.12164372564E+02  0.43232774328E+02  0.45045682877E+02  0.00000000000E+00 0. -1.
         11    1    3    3    0    0 -0.18258020592E+01 -0.44143988008E+00 -0.73895584439E+01  0.76245653374E+01  0.51100000000E-03 0. -1.
        -11    1    3    3    0    0  0.28072382076E+01 -0.10463755637E+02 -0.23718880563E+02  0.26075967170E+02  0.51100000000E-03 0.  1.
        -12    1    3    3    0    0  0.24925831267E+01 -0.12591770464E+01 -0.12124335320E+02  0.12441784616E+02  0.00000000000E+00 0.  1.
</event>
<event>
 7    1  0.1541902E-008  0.4614232E+02  0.7816164E-02  0.1320468E+00
        -11   -1    0    0    0    0  0.00000000000E+00  0.00000000000E+00  0.45593999997E+02  0.45594000000E+02  0.51100000000E-03 0.  1.
         11   -1    0    0    0    0 -0.00000000000E+00 -0.00000000000E+00 -0.45593999997E+02  0.45594000000E+02  0.51100000000E-03 0. -1.
    9900012    2    1    2    0    0  0.17888277383E+02  0.21417985049E+02  0.35360895618E+02  0.46142317740E+02  0.99999998111E+01 0.  0.
         12    1    1    2    0    0 -0.17888277383E+02 -0.21417985049E+02 -0.35360895618E+02  0.45045682260E+02  0.00000000000E+00 0. -1.
         11    1    3    3    0    0  0.78915108690E+01  0.43742784665E+01  0.71534501396E+01  0.11514430297E+02  0.51100000000E-03 0. -1.
        -11    1    3    3    0    0  0.83354406511E+01  0.16022818241E+02  0.24486104883E+02  0.30426626626E+02  0.51100000000E-03 0.  1.
        -12    1    3    3    0    0  0.16613258626E+01  0.10208883419E+01  0.37213405958E+01  0.42012608177E+01  0.00000000000E+00 0.  1.
</event>
<event>
 7    1  0.1541902E-008  0.4614232E+02  0.7816164E-02  0.1320468E+00
        -11   -1    0    0    0    0  0.00000000000E+00  0.00000000000E+00  0.45593999997E+02  0.45594000000E+02  0.51100000000E-03 0.  1.
         11   -1    0    0    0    0 -0.00000000000E+00 -0.00000000000E+00 -0.45593999997E+02  0.45594000000E+02  0.51100000000E-03 0. -1.
    9900012    2    1    2    0    0  0.20228876110E+02  0.52339362367E+01  0.39906289726E+02  0.46142317889E+02  0.10000001164E+02 0.  0.
         12    1    1    2    0    0 -0.20228876110E+02 -0.52339362367E+01 -0.39906289726E+02  0.45045682111E+02  0.00000000000E+00 0. -1.
         11    1    3    3    0    0  0.15098602283E+01  0.31917205166E+01  0.97190492688E+01  0.10340535611E+02  0.51100000000E-03 0. -1.
        -11    1    3    3    0    0  0.16627064377E+02  0.20188655764E+01  0.28717636908E+02  0.33245116301E+02  0.51100000000E-03 0.  1.
         12    1    3    3    0    0  0.20919515053E+01  0.23350143606E-01  0.14696035485E+01  0.25566659773E+01  0.00000000000E+00 0. -1.
</event>
<event>
 7    1  0.1541902E-008  0.4614232E+02  0.7816164E-02  0.1320468E+00
        -11   -1    0    0    0    0  0.00000000000E+00  0.00000000000E+00  0.45593999997E+02  0.45594000000E+02  0.51100000000E-03 0.  1.
         11   -1    0    0    0    0 -0.00000000000E+00 -0.00000000000E+00 -0.45593999997E+02  0.45594000000E+02  0.51100000000E-03 0. -1.
    9900012    2    1    2    0    0  0.13187308121E+02 -0.17902921525E+02  0.39175168885E+02  0.46142317057E+02  0.99999935793E+01 0.  0.
         12    1    1    2    0    0 -0.13187308121E+02  0.17902921525E+02 -0.39175168885E+02  0.45045682943E+02  0.00000000000E+00 0. -1.
         11    1    3    3    0    0 -0.16640199052E+00 -0.17724845561E+01  0.58610658300E+01  0.61254782711E+01  0.51100000000E-03 0. -1.
        -11    1    3    3    0    0  0.65553211527E+01 -0.72840819918E+01  0.91755909807E+01  0.13424662230E+02  0.51100000000E-03 0.  1.
        -12    1    3    3    0    0  0.67983889589E+01 -0.88463549769E+01  0.24138512075E+02  0.26592176556E+02  0.00000000000E+00 0.  1.
</event>
<event>
 7    1  0.1541902E-008  0.4614232E+02  0.7816164E-02  0.1320468E+00
        -11   -1    0    0    0    0  0.00000000000E+00  0.00000000000E+00  0.45593999997E+02  0.45594000000E+02  0.51100000000E-03 0.  1.
         11   -1    0    0    0    0 -0.00000000000E+00 -0.00000000000E+00 -0.45593999997E+02  0.45594000000E+02  0.51100000000E-03 0. -1.
    9900012    2    1    2    0    0 -0.42975868939E+02  0.61147273511E+01  0.12033213208E+02  0.46142318500E+02  0.10000006742E+02 0.  0.
         12    1    1    2    0    0  0.42975868939E+02 -0.61147273511E+01 -0.12033213208E+02  0.45045681500E+02  0.00000000000E+00 0. -1.
         11    1    3    3    0    0 -0.49702822112E+01 -0.21698971643E+00 -0.15241454359E+01  0.52032498851E+01  0.51100000000E-03 0. -1.
        -11    1    3    3    0    0 -0.33600794972E+02  0.46817308399E+01  0.11909252074E+02  0.35955003986E+02  0.51100000000E-03 0.  1.
         12    1    3    3    0    0 -0.44047917555E+01  0.16499862277E+01  0.16481065696E+01  0.49840646290E+01  0.00000000000E+00 0. -1.
</event>
<event>
 7    1  0.1541902E-008  0.4614232E+02  0.7816164E-02  0.1320468E+00
        -11   -1    0    0    0    0  0.00000000000E+00  0.00000000000E+00  0.45593999997E+02  0.45594000000E+02  0.51100000000E-03 0. -1.
         11   -1    0    0    0    0 -0.00000000000E+00 -0.00000000000E+00 -0.45593999997E+02  0.45594000000E+02  0.51100000000E-03 0.  1.
    9900012    2    1    2    0    0 -0.44067949402E+02 -0.86064675572E+01 -0.36135630515E+01  0.46142320005E+02  0.10000020457E+02 0.  0.
         12    1    1    2    0    0  0.44067949402E+02  0.86064675572E+01  0.36135630515E+01  0.45045679995E+02  0.00000000000E+00 0. -1.
         11    1    3    3    0    0 -0.20366466636E+02 -0.78158068650E+01  0.38574899094E+00  0.21818079721E+02  0.51100000000E-03 0. -1.
        -11    1    3    3    0    0 -0.62924950928E+01  0.71739272323E+00 -0.24161361783E+01  0.67784851631E+01  0.51100000000E-03 0.  1.
         12    1    3    3    0    0 -0.17408987673E+02 -0.15080534155E+01 -0.15831758642E+01  0.17545755120E+02  0.00000000000E+00 0. -1.
</event>
<event>
 7    1  0.1541902E-008  0.4614232E+02  0.7816164E-02  0.1320468E+00
        -11   -1    0    0    0    0  0.00000000000E+00  0.00000000000E+00  0.45593999997E+02  0.45594000000E+02  0.51100000000E-03 0. -1.
         11   -1    0    0    0    0 -0.00000000000E+00 -0.00000000000E+00 -0.45593999997E+02  0.45594000000E+02  0.51100000000E-03 0.  1.
    9900012    2    1    2    0    0  0.21833688726E+02  0.15652593532E+02 -0.36157984173E+02  0.46142317997E+02  0.10000002149E+02 0.  0.
         12    1    1    2    0    0 -0.21833688726E+02 -0.15652593532E+02  0.36157984173E+02  0.45045682003E+02  0.00000000000E+00 0. -1.
         11    1    3    3    0    0  0.17787676302E+02  0.10414994168E+02 -0.27049948839E+02  0.34008429311E+02  0.51100000000E-03 0.  1.
        -11    1    3    3    0    0  0.14128458476E+01  0.12813011197E+00 -0.66881654583E-01  0.14202197476E+01  0.51100000000E-03 0. -1.
        -12    1    3    3    0    0  0.26331665762E+01  0.51094692525E+01 -0.90411536795E+01  0.10713668938E+02  0.00000000000E+00 0.  1.
</event>
<event>
 7    1  0.1541902E-008  0.4614232E+02  0.7816164E-02  0.1320468E+00
        -11   -1    0    0    0    0  0.00000000000E+00  0.00000000000E+00  0.45593999997E+02  0.45594000000E+02  0.51100000000E-03 0.  1.
         11   -1    0    0    0    0 -0.00000000000E+00 -0.00000000000E+00 -0.45593999997E+02  0.45594000000E+02  0.51100000000E-03 0. -1.
    9900012    2    1    2    0    0 -0.57568112714E+01 -0.13637458430E+02  0.42544001357E+02  0.46142320963E+02  0.10000029198E+02 0.  0.
         12    1    1    2    0    0  0.57568112714E+01  0.13637458430E+02 -0.42544001357E+02  0.45045679037E+02  0.00000000000E+00 0. -1.
         11    1    3    3    0    0 -0.49654396409E+01 -0.44994186262E+01  0.18260788871E+02  0.19451395047E+02  0.51100000000E-03 0. -1.
        -11    1    3    3    0    0 -0.31145564170E+01 -0.62263748361E+01  0.18927208267E+02  0.20166988331E+02  0.51100000000E-03 0.  1.
        -12    1    3    3    0    0  0.23231847865E+01 -0.29116649675E+01  0.53560042185E+01  0.65239375858E+01  0.00000000000E+00 0.  1.
</event>
<event>
 7    1  0.1541902E-008  0.4614232E+02  0.7816164E-02  0.1320468E+00
        -11   -1    0    0    0    0  0.00000000000E+00  0.00000000000E+00  0.45593999997E+02  0.45594000000E+02  0.51100000000E-03 0. -1.
         11   -1    0    0    0    0 -0.00000000000E+00 -0.00000000000E+00 -0.45593999997E+02  0.45594000000E+02  0.51100000000E-03 0.  1.
    9900012    2    1    2    0    0 -0.33640041311E+02  0.21472946451E+02 -0.20889558667E+02  0.46142317965E+02  0.10000001858E+02 0.  0.
         12    1    1    2    0    0  0.33640041311E+02 -0.21472946451E+02  0.20889558667E+02  0.45045682035E+02  0.00000000000E+00 0. -1.
         11    1    3    3    0    0 -0.14751503109E+02  0.44865511599E+01 -0.73132764906E+01  0.17065169163E+02  0.51100000000E-03 0. -1.
        -11    1    3    3    0    0 -0.77522316378E+01  0.62580411154E+01 -0.74677068878E+01  0.12450976684E+02  0.51100000000E-03 0.  1.
        -12    1    3    3    0    0 -0.11136306565E+02  0.10728354176E+02 -0.61085752882E+01  0.16626172118E+02  0.00000000000E+00 0.  1.
</event>
<event>
 7    1  0.1541902E-008  0.4614232E+02  0.7816164E-02  0.1320468E+00
        -11   -1    0    0    0    0  0.00000000000E+00  0.00000000000E+00  0.45593999997E+02  0.45594000000E+02  0.51100000000E-03 0.  1.
         11   -1    0    0    0    0 -0.00000000000E+00 -0.00000000000E+00 -0.45593999997E+02  0.45594000000E+02  0.51100000000E-03 0. -1.
    9900012    2    1    2    0    0 -0.22698188350E+02  0.35531216440E+02  0.15856808248E+02  0.46142318033E+02  0.10000002480E+02 0.  0.
         12    1    1    2    0    0  0.22698188350E+02 -0.35531216440E+02 -0.15856808248E+02  0.45045681967E+02  0.00000000000E+00 0. -1.
         11    1    3    3    0    0 -0.16842060680E+00 -0.65589998865E+00  0.31035175593E+00  0.74490856448E+00  0.51100000000E-03 0. -1.
        -11    1    3    3    0    0 -0.85470800455E+01  0.12499800160E+02  0.52441812444E+01  0.16024949876E+02  0.51100000000E-03 0.  1.
         12    1    3    3    0    0 -0.13982687698E+02  0.23687316268E+02  0.10302275247E+02  0.29372459592E+02  0.00000000000E+00 0. -1.
</event>
<event>
 7    1  0.1541902E-008  0.4614232E+02  0.7816164E-02  0.1320468E+00
        -11   -1    0    0    0    0  0.00000000000E+00  0.00000000000E+00  0.45593999997E+02  0.45594000000E+02  0.51100000000E-03 0.  1.
         11   -1    0    0    0    0 -0.00000000000E+00 -0.00000000000E+00 -0.45593999997E+02  0.45594000000E+02  0.51100000000E-03 0. -1.
    9900012    2    1    2    0    0  0.23455557069E+02  0.25775448609E+02  0.28540791027E+02  0.46142315846E+02  0.99999825398E+01 0.  0.
         12    1    1    2    0    0 -0.23455557069E+02 -0.25775448609E+02 -0.28540791027E+02  0.45045684154E+02  0.00000000000E+00 0. -1.
         11    1    3    3    0    0  0.13337762259E+02  0.12700132806E+02  0.13904494870E+02  0.23076487021E+02  0.51100000000E-03 0. -1.
        -11    1    3    3    0    0  0.25182516157E+01  0.75545978011E+01  0.41220796253E+01  0.89668879683E+01  0.51100000000E-03 0.  1.
         12    1    3    3    0    0  0.75995431943E+01  0.55207180015E+01  0.10514216532E+02  0.14098940857E+02  0.00000000000E+00 0. -1.
</event>
<event>
 7    1  0.1541902E-008  0.4614232E+02  0.7816164E-02  0.1320468E+00
        -11   -1    0    0    0    0  0.00000000000E+00  0.00000000000E+00  0.45593999997E+02  0.45594000000E+02  0.51100000000E-03 0.  1.
         11   -1    0    0    0    0 -0.00000000000E+00 -0.00000000000E+00 -0.45593999997E+02  0.45594000000E+02  0.51100000000E-03 0. -1.
    9900012    2    1    2    0    0 -0.31347003139E+02  0.18296001067E+02  0.26678364144E+02  0.46142319028E+02  0.10000011555E+02 0.  0.
         12    1    1    2    0    0  0.31347003139E+02 -0.18296001067E+02 -0.26678364144E+02  0.45045680972E+02  0.00000000000E+00 0. -1.
         11    1    3    3    0    0 -0.21132012590E+02  0.14705566676E+02  0.20940916278E+02  0.33186407190E+02  0.51100000000E-03 0.  1.
        -11    1    3    3    0    0  0.19855309801E+00  0.49799203275E-01 -0.33453518931E+00  0.39219554738E+00  0.51100000000E-03 0. -1.
         12    1    3    3    0    0 -0.10413543646E+02  0.35406351873E+01  0.60719830553E+01  0.12563716290E+02  0.00000000000E+00 0. -1.
</event>
<event>
 7    1  0.1541902E-008  0.4614232E+02  0.7816164E-02  0.1320468E+00
        -11   -1    0    0    0    0  0.00000000000E+00  0.00000000000E+00  0.45593999997E+02  0.45594000000E+02  0.51100000000E-03 0.  1.
         11   -1    0    0    0    0 -0.00000000000E+00 -0.00000000000E+00 -0.45593999997E+02  0.45594000000E+02  0.51100000000E-03 0. -1.
    9900012    2    1    2    0    0 -0.16947272644E+01  0.11756123124E+01  0.44998435476E+02  0.46142319185E+02  0.10000012983E+02 0.  0.
         12    1    1    2    0    0  0.16947272644E+01 -0.11756123124E+01 -0.44998435476E+02  0.45045680815E+02  0.00000000000E+00 0. -1.
         11    1    3    3    0    0  0.18917870605E+01  0.75556757714E+00  0.35700982725E+01  0.41103944558E+01  0.51100000000E-03 0. -1.
        -11    1    3    3    0    0 -0.14628674502E+01  0.24229190850E+01  0.32825929088E+02  0.32947718264E+02  0.51100000000E-03 0.  1.
        -12    1    3    3    0    0 -0.21236468747E+01 -0.20028743497E+01  0.86024081159E+01  0.90842064652E+01  0.00000000000E+00 0.  1.
</event>
<event>
 7    1  0.1541902E-008  0.4614232E+02  0.7816164E-02  0.1320468E+00
        -11   -1    0    0    0    0  0.00000000000E+00  0.00000000000E+00  0.45593999997E+02  0.45594000000E+02  0.51100000000E-03 0.  1.
         11   -1    0    0    0    0 -0.00000000000E+00 -0.00000000000E+00 -0.45593999997E+02  0.45594000000E+02  0.51100000000E-03 0. -1.
    9900012    2    1    2    0    0 -0.42703013850E+01 -0.90205115223E+01  0.43926169076E+02  0.46142318389E+02  0.10000005729E+02 0.  0.
         12    1    1    2    0    0  0.42703013850E+01  0.90205115223E+01 -0.43926169076E+02  0.45045681611E+02  0.00000000000E+00 0. -1.
         11    1    3    3    0    0 -0.24818054731E+01  0.68837344425E+00  0.28095796891E+01  0.38114242345E+01  0.51100000000E-03 0. -1.
        -11    1    3    3    0    0 -0.17718268566E+01 -0.75330867054E+01  0.28695896613E+02  0.29721057323E+02  0.51100000000E-03 0.  1.
        -12    1    3    3    0    0 -0.16669055296E-01 -0.21757982611E+01  0.12420692774E+02  0.12609836831E+02  0.00000000000E+00 0.  1.
</event>
<event>
 7    1  0.1541902E-008  0.4614232E+02  0.7816164E-02  0.1320468E+00
        -11   -1    0    0    0    0  0.00000000000E+00  0.00000000000E+00  0.45593999997E+02  0.45594000000E+02  0.51100000000E-03 0.  1.
         11   -1    0    0    0    0 -0.00000000000E+00 -0.00000000000E+00 -0.45593999997E+02  0.45594000000E+02  0.51100000000E-03 0. -1.
    9900012    2    1    2    0    0  0.29640230761E+02 -0.33400948397E+02 -0.59115735091E+01  0.46142319467E+02  0.10000015551E+02 0.  0.
         12    1    1    2    0    0 -0.29640230761E+02  0.33400948397E+02  0.59115735091E+01  0.45045680533E+02  0.00000000000E+00 0. -1.
         11    1    3    3    0    0  0.21246803235E+02 -0.19293888336E+02 -0.31310327103E+01  0.28870125405E+02  0.51100000000E-03 0. -1.
        -11    1    3    3    0    0  0.38484341725E+01 -0.27314383324E+01 -0.39968091918E-01  0.47194065997E+01  0.51100000000E-03 0.  1.
         12    1    3    3    0    0  0.45449933539E+01 -0.11375621729E+02 -0.27405727068E+01  0.12552787462E+02  0.00000000000E+00 0. -1.
</event>
<event>
 7    1  0.1541902E-008  0.4614232E+02  0.7816164E-02  0.1320468E+00
        -11   -1    0    0    0    0  0.00000000000E+00  0.00000000000E+00  0.45593999997E+02  0.45594000000E+02  0.51100000000E-03 0.  1.
         11   -1    0    0    0    0 -0.00000000000E+00 -0.00000000000E+00 -0.45593999997E+02  0.45594000000E+02  0.51100000000E-03 0. -1.
    9900012    2    1    2    0    0  0.25958745727E+02  0.19465767918E+02  0.31246453846E+02  0.46142317873E+02  0.10000001017E+02 0.  0.
         12    1    1    2    0    0 -0.25958745727E+02 -0.19465767918E+02 -0.31246453846E+02  0.45045682127E+02  0.00000000000E+00 0. -1.
         11    1    3    3    0    0 -0.32894753552E-02 -0.27628325156E-01  0.28988075165E+01  0.28989410867E+01  0.51100000000E-03 0. -1.
        -11    1    3    3    0    0  0.25286752498E+02  0.19331097032E+02  0.28218449779E+02  0.42536949498E+02  0.51100000000E-03 0.  1.
        -12    1    3    3    0    0  0.67528270443E+00  0.16229921042E+00  0.12919655026E+00  0.70642728798E+00  0.00000000000E+00 0.  1.
</event>
<event>
 7    1  0.1541902E-008  0.4614232E+02  0.7816164E-02  0.1320468E+00
        -11   -1    0    0    0    0  0.00000000000E+00  0.00000000000E+00  0.45593999997E+02  0.45594000000E+02  0.51100000000E-03 0.  1.
         11   -1    0    0    0    0 -0.00000000000E+00 -0.00000000000E+00 -0.45593999997E+02  0.45594000000E+02  0.51100000000E-03 0. -1.
    9900012    2    1    2    0    0 -0.36467972414E+02 -0.91311984070E+01  0.24815758495E+02  0.46142315789E+02  0.99999820196E+01 0.  0.
         12    1    1    2    0    0  0.36467972414E+02  0.91311984070E+01 -0.24815758495E+02  0.45045684211E+02  0.00000000000E+00 0. -1.
         11    1    3    3    0    0 -0.23739545447E+02 -0.57640973726E+01  0.17397916068E+02  0.29991304078E+02  0.51100000000E-03 0. -1.
        -11    1    3    3    0    0 -0.12152320165E+02 -0.22003165305E+01  0.80113368285E+01  0.14720794689E+02  0.51100000000E-03 0.  1.
         12    1    3    3    0    0 -0.57610680200E+00 -0.11667845038E+01 -0.59349440172E+00  0.14302170222E+01  0.00000000000E+00 0. -1.
</event>
<event>
 7    1  0.1541902E-008  0.4614232E+02  0.7816164E-02  0.1320468E+00
        -11   -1    0    0    0    0  0.00000000000E+00  0.00000000000E+00  0.45593999997E+02  0.45594000000E+02  0.51100000000E-03 0. -1.
         11   -1    0    0    0    0 -0.00000000000E+00 -0.00000000000E+00 -0.45593999997E+02  0.45594000000E+02  0.51100000000E-03 0.  1.
    9900012    2    1    2    0    0  0.26305146724E+02 -0.27221413851E+02 -0.24416132681E+02  0.46142315952E+02  0.99999835067E+01 0.  0.
         12    1    1    2    0    0 -0.26305146724E+02  0.27221413851E+02  0.24416132681E+02  0.45045684048E+02  0.00000000000E+00 0. -1.
         11    1    3    3    0    0  0.75019483041E+00 -0.26505862230E+01 -0.21886342112E+01  0.35183120357E+01  0.51100000000E-03 0. -1.
        -11    1    3    3    0    0  0.17313149109E+02 -0.20219774378E+02 -0.13461705019E+02  0.29829547603E+02  0.51100000000E-03 0.  1.
        -12    1    3    3    0    0  0.82418027851E+01 -0.43510532506E+01 -0.87657934505E+01  0.12794456313E+02  0.00000000000E+00 0.  1.
</event>
<event>
 7    1  0.1541902E-008  0.4614232E+02  0.7816164E-02  0.1320468E+00
        -11   -1    0    0    0    0  0.00000000000E+00  0.00000000000E+00  0.45593999997E+02  0.45594000000E+02  0.51100000000E-03 0.  1.
         11   -1    0    0    0    0 -0.00000000000E+00 -0.00000000000E+00 -0.45593999997E+02  0.45594000000E+02  0.51100000000E-03 0. -1.
    9900012    2    1    2    0    0  0.14824765551E+02 -0.39445517241E+02  0.15918263403E+02  0.46142316368E+02  0.99999873004E+01 0.  0.
         12    1    1    2    0    0 -0.14824765551E+02  0.39445517241E+02 -0.15918263403E+02  0.45045683632E+02  0.00000000000E+00 0. -1.
         11    1    3    3    0    0  0.11495939159E+02 -0.27745690501E+02  0.11864240664E+02  0.32291487506E+02  0.51100000000E-03 0. -1.
        -11    1    3    3    0    0  0.40531515559E+00 -0.62030148693E+01  0.43991122196E+01  0.76153701437E+01  0.51100000000E-03 0.  1.
         12    1    3    3    0    0  0.29235112362E+01 -0.54968118705E+01 -0.34508947986E+00  0.62354587190E+01  0.00000000000E+00 0. -1.
</event>
<event>
 7    1  0.1541902E-008  0.4614232E+02  0.7816164E-02  0.1320468E+00
        -11   -1    0    0    0    0  0.00000000000E+00  0.00000000000E+00  0.45593999997E+02  0.45594000000E+02  0.51100000000E-03 0. -1.
         11   -1    0    0    0    0 -0.00000000000E+00 -0.00000000000E+00 -0.45593999997E+02  0.45594000000E+02  0.51100000000E-03 0.  1.
    9900012    2    1    2    0    0  0.12532709153E+02 -0.28564287463E+02 -0.32498093227E+02  0.46142318960E+02  0.10000010932E+02 0.  0.
         12    1    1    2    0    0 -0.12532709153E+02  0.28564287463E+02  0.32498093227E+02  0.45045681040E+02  0.00000000000E+00 0. -1.
         11    1    3    3    0    0  0.49148736863E+01 -0.48924550526E+01 -0.30536759258E+01  0.75774030324E+01  0.51100000000E-03 0. -1.
        -11    1    3    3    0    0  0.57084988934E+01 -0.17822172724E+02 -0.23054573007E+02  0.29693941083E+02  0.51100000000E-03 0.  1.
         12    1    3    3    0    0  0.19093365728E+01 -0.58496596862E+01 -0.63898442938E+01  0.88709748445E+01  0.00000000000E+00 0. -1.
</event>
<event>
 7    1  0.1541902E-008  0.4614232E+02  0.7816164E-02  0.1320468E+00
        -11   -1    0    0    0    0  0.00000000000E+00  0.00000000000E+00  0.45593999997E+02  0.45594000000E+02  0.51100000000E-03 0. -1.
         11   -1    0    0    0    0 -0.00000000000E+00 -0.00000000000E+00 -0.45593999997E+02  0.45594000000E+02  0.51100000000E-03 0.  1.
    9900012    2    1    2    0    0 -0.41025265779E+02 -0.36933555116E+01 -0.18231845552E+02  0.46142317639E+02  0.99999988831E+01 0.  0.
         12    1    1    2    0    0  0.41025265779E+02  0.36933555116E+01  0.18231845552E+02  0.45045682361E+02  0.00000000000E+00 0. -1.
         11    1    3    3    0    0 -0.50514983512E+01  0.11079294021E+01 -0.22477942823E+01  0.56389469362E+01  0.51100000000E-03 0. -1.
        -11    1    3    3    0    0 -0.20902328078E+01 -0.35569945864E+00  0.99702055113E+00  0.23429992608E+01  0.51100000000E-03 0.  1.
        -12    1    3    3    0    0 -0.33883534620E+02 -0.44455854551E+01 -0.16981071821E+02  0.38160371442E+02  0.00000000000E+00 0.  1.
</event>
<event>
 7    1  0.1541902E-008  0.4614232E+02  0.7816164E-02  0.1320468E+00
        -11   -1    0    0    0    0  0.00000000000E+00  0.00000000000E+00  0.45593999997E+02  0.45594000000E+02  0.51100000000E-03 0.  1.
         11   -1    0    0    0    0 -0.00000000000E+00 -0.00000000000E+00 -0.45593999997E+02  0.45594000000E+02  0.51100000000E-03 0. -1.
    9900012    2    1    2    0    0 -0.29903107136E+02 -0.10820363006E+02  0.31903564813E+02  0.46142317413E+02  0.99999968246E+01 0.  0.
         12    1    1    2    0    0  0.29903107136E+02  0.10820363006E+02 -0.31903564813E+02  0.45045682587E+02  0.00000000000E+00 0. -1.
         11    1    3    3    0    0 -0.17214149856E+01 -0.93219478308E-01  0.48245123311E+01  0.51232683823E+01  0.51100000000E-03 0. -1.
        -11    1    3    3    0    0 -0.21574907382E+02 -0.55306601148E+01  0.21303543992E+02  0.30820542123E+02  0.51100000000E-03 0.  1.
        -12    1    3    3    0    0 -0.66067847683E+01 -0.51964834127E+01  0.57755084896E+01  0.10198506908E+02  0.00000000000E+00 0.  1.
</event>
<event>
 7    1  0.1541902E-008  0.4614232E+02  0.7816164E-02  0.1320468E+00
        -11   -1    0    0    0    0  0.00000000000E+00  0.00000000000E+00  0.45593999997E+02  0.45594000000E+02  0.51100000000E-03 0. -1.
         11   -1    0    0    0    0 -0.00000000000E+00 -0.00000000000E+00 -0.45593999997E+02  0.45594000000E+02  0.51100000000E-03 0.  1.
    9900012    2    1    2    0    0 -0.40778905942E+02  0.97420457408E+01  0.16470787849E+02  0.46142317882E+02  0.10000001106E+02 0.  0.
         12    1    1    2    0    0  0.40778905942E+02 -0.97420457408E+01 -0.16470787849E+02  0.45045682118E+02  0.00000000000E+00 0. -1.
         11    1    3    3    0    0 -0.22362173932E+02  0.82283626581E+01  0.10297107239E+02  0.25957719329E+02  0.51100000000E-03 0.  1.
        -11    1    3    3    0    0 -0.29633167349E+01 -0.17236093619E+01  0.10592627696E+01  0.35880514461E+01  0.51100000000E-03 0. -1.
        -12    1    3    3    0    0 -0.15453415275E+02  0.32372924446E+01  0.51144178401E+01  0.16596547107E+02  0.00000000000E+00 0.  1.
</event>
<event>
 7    1  0.1541902E-008  0.4614232E+02  0.7816164E-02  0.1320468E+00
        -11   -1    0    0    0    0  0.00000000000E+00  0.00000000000E+00  0.45593999997E+02  0.45594000000E+02  0.51100000000E-03 0. -1.
         11   -1    0    0    0    0 -0.00000000000E+00 -0.00000000000E+00 -0.45593999997E+02  0.45594000000E+02  0.51100000000E-03 0.  1.
    9900012    2    1    2    0    0 -0.25650828982E+02  0.26524471594E+02 -0.25837970066E+02  0.46142319653E+02  0.10000017250E+02 0.  0.
         12    1    1    2    0    0  0.25650828982E+02 -0.26524471594E+02  0.25837970066E+02  0.45045680347E+02  0.00000000000E+00 0. -1.
         11    1    3    3    0    0 -0.72129154975E+01  0.27711990005E+01 -0.29758094629E+01  0.82801652215E+01  0.51100000000E-03 0. -1.
        -11    1    3    3    0    0 -0.49339577251E+01  0.50995622568E+01 -0.63880434549E+01  0.95475951677E+01  0.51100000000E-03 0.  1.
         12    1    3    3    0    0 -0.13503955760E+02  0.18653710337E+02 -0.16474117148E+02  0.28314559264E+02  0.00000000000E+00 0. -1.
</event>
<event>
 7    1  0.1541902E-008  0.4614232E+02  0.7816164E-02  0.1320468E+00
        -11   -1    0    0    0    0  0.00000000000E+00  0.00000000000E+00  0.45593999997E+02  0.45594000000E+02  0.51100000000E-03 0. -1.
         11   -1    0    0    0    0 -0.00000000000E+00 -0.00000000000E+00 -0.45593999997E+02  0.45594000000E+02  0.51100000000E-03 0.  1.
    9900012    2    1    2    0    0 -0.12875783841E+02  0.42391854593E+02  0.81399202908E+01  0.46142318213E+02  0.10000004119E+02 0.  0.
         12    1    1    2    0    0  0.12875783841E+02 -0.42391854593E+02 -0.81399202908E+01  0.45045681787E+02  0.00000000000E+00 0. -1.
         11    1    3    3    0    0 -0.46582719178E+01  0.23277682840E+02  0.85127917522E+01  0.25219390146E+02  0.51100000000E-03 0. -1.
        -11    1    3    3    0    0 -0.42538141600E+01  0.12508038208E+02 -0.43292904413E+00  0.13218675521E+02  0.51100000000E-03 0.  1.
        -12    1    3    3    0    0 -0.39636977635E+01  0.66061335452E+01  0.60057582699E-01  0.77042525459E+01  0.00000000000E+00 0.  1.
</event>
<event>
 7    1  0.1541902E-008  0.4614232E+02  0.7816164E-02  0.1320468E+00
        -11   -1    0    0    0    0  0.00000000000E+00  0.00000000000E+00  0.45593999997E+02  0.45594000000E+02  0.51100000000E-03 0.  1.
         11   -1    0    0    0    0 -0.00000000000E+00 -0.00000000000E+00 -0.45593999997E+02  0.45594000000E+02  0.51100000000E-03 0. -1.
    9900012    2    1    2    0    0  0.22080844810E+02 -0.28562880984E+02  0.26939035418E+02  0.46142317556E+02  0.99999981257E+01 0.  0.
         12    1    1    2    0    0 -0.22080844810E+02  0.28562880984E+02 -0.26939035418E+02  0.45045682444E+02  0.00000000000E+00 0. -1.
         11    1    3    3    0    0  0.29131617121E+01 -0.86813322099E+01  0.33920092893E+01  0.97651301773E+01  0.51100000000E-03 0. -1.
        -11    1    3    3    0    0  0.46229205044E+01 -0.33657714305E+01  0.46703004550E+01  0.73831915804E+01  0.51100000000E-03 0.  1.
         12    1    3    3    0    0  0.14544762593E+02 -0.16515777344E+02  0.18876725674E+02  0.28993995798E+02  0.00000000000E+00 0. -1.
</event>
<event>
 7    1  0.1541902E-008  0.4614232E+02  0.7816164E-02  0.1320468E+00
        -11   -1    0    0    0    0  0.00000000000E+00  0.00000000000E+00  0.45593999997E+02  0.45594000000E+02  0.51100000000E-03 0. -1.
         11   -1    0    0    0    0 -0.00000000000E+00 -0.00000000000E+00 -0.45593999997E+02  0.45594000000E+02  0.51100000000E-03 0.  1.
    9900012    2    1    2    0    0 -0.18591168405E+02 -0.21862515373E+02 -0.34720489199E+02  0.46142317728E+02  0.99999997008E+01 0.  0.
         12    1    1    2    0    0  0.18591168405E+02  0.21862515373E+02  0.34720489199E+02  0.45045682272E+02  0.00000000000E+00 0. -1.
         11    1    3    3    0    0 -0.13113125068E+02 -0.11514046894E+02 -0.16705430320E+02  0.24157788131E+02  0.51100000000E-03 0. -1.
        -11    1    3    3    0    0 -0.11002220058E+01 -0.31461329071E+01 -0.19999921434E+01  0.38869794914E+01  0.51100000000E-03 0.  1.
        -12    1    3    3    0    0 -0.43778213312E+01 -0.72023355716E+01 -0.16015066736E+02  0.18097550106E+02  0.00000000000E+00 0.  1.
</event>
<event>
 7    1  0.1541902E-008  0.4614232E+02  0.7816164E-02  0.1320468E+00
        -11   -1    0    0    0    0  0.00000000000E+00  0.00000000000E+00  0.45593999997E+02  0.45594000000E+02  0.51100000000E-03 0. -1.
         11   -1    0    0    0    0 -0.00000000000E+00 -0.00000000000E+00 -0.45593999997E+02  0.45594000000E+02  0.51100000000E-03 0.  1.
    9900012    2    1    2    0    0  0.22123705722E+02  0.39219578832E+02 -0.12164464388E+01  0.46142318069E+02  0.10000002810E+02 0.  0.
         12    1    1    2    0    0 -0.22123705722E+02 -0.39219578832E+02  0.12164464388E+01  0.45045681931E+02  0.00000000000E+00 0. -1.
         11    1    3    3    0    0  0.14553352424E+02  0.23828793844E+02  0.38689687814E+01  0.28188302583E+02  0.51100000000E-03 0. -1.
        -11    1    3    3    0    0  0.53910282534E+01  0.95185657061E+01 -0.28606270282E+01  0.11307053815E+02  0.51100000000E-03 0.  1.
         12    1    3    3    0    0  0.21793250444E+01  0.58722192826E+01 -0.22247881921E+01  0.66469616707E+01  0.00000000000E+00 0. -1.
</event>
<event>
 7    1  0.1541902E-008  0.4614232E+02  0.7816164E-02  0.1320468E+00
        -11   -1    0    0    0    0  0.00000000000E+00  0.00000000000E+00  0.45593999997E+02  0.45594000000E+02  0.51100000000E-03 0. -1.
         11   -1    0    0    0    0 -0.00000000000E+00 -0.00000000000E+00 -0.45593999997E+02  0.45594000000E+02  0.51100000000E-03 0.  1.
    9900012    2    1    2    0    0  0.37980532625E+02  0.66942855363E+01 -0.23276150148E+02  0.46142317820E+02  0.10000000541E+02 0.  0.
         12    1    1    2    0    0 -0.37980532625E+02 -0.66942855363E+01  0.23276150148E+02  0.45045682180E+02  0.00000000000E+00 0. -1.
         11    1    3    3    0    0  0.74324981437E+01 -0.19082599497E+01 -0.20791900989E+01  0.79502526010E+01  0.51100000000E-03 0. -1.
        -11    1    3    3    0    0  0.16746981590E+02  0.54654766808E+01 -0.11650181287E+02  0.21120121970E+02  0.51100000000E-03 0.  1.
         12    1    3    3    0    0  0.13801052891E+02  0.31370688052E+01 -0.95467787619E+01  0.17071943250E+02  0.00000000000E+00 0. -1.
</event>
<event>
 7    1  0.1541902E-008  0.4614232E+02  0.7816164E-02  0.1320468E+00
        -11   -1    0    0    0    0  0.00000000000E+00  0.00000000000E+00  0.45593999997E+02  0.45594000000E+02  0.51100000000E-03 0. -1.
         11   -1    0    0    0    0 -0.00000000000E+00 -0.00000000000E+00 -0.45593999997E+02  0.45594000000E+02  0.51100000000E-03 0.  1.
    9900012    2    1    2    0    0 -0.67648715276E+00 -0.44626375417E+02  0.60944739943E+01  0.46142316178E+02  0.99999855654E+01 0.  0.
         12    1    1    2    0    0  0.67648715276E+00  0.44626375417E+02 -0.60944739943E+01  0.45045683822E+02  0.00000000000E+00 0. -1.
         11    1    3    3    0    0  0.41642199923E+01 -0.20742321773E+02  0.43586528918E+01  0.21600520734E+02  0.51100000000E-03 0. -1.
        -11    1    3    3    0    0 -0.32950077688E+01 -0.19434631775E+02  0.73084826142E+00  0.19725519711E+02  0.51100000000E-03 0.  1.
         12    1    3    3    0    0 -0.15456993763E+01 -0.44494218689E+01  0.10049728411E+01  0.48162757335E+01  0.00000000000E+00 0. -1.
</event>
<event>
 7    1  0.1541902E-008  0.4614232E+02  0.7816164E-02  0.1320468E+00
        -11   -1    0    0    0    0  0.00000000000E+00  0.00000000000E+00  0.45593999997E+02  0.45594000000E+02  0.51100000000E-03 0. -1.
         11   -1    0    0    0    0 -0.00000000000E+00 -0.00000000000E+00 -0.45593999997E+02  0.45594000000E+02  0.51100000000E-03 0.  1.
    9900012    2    1    2    0    0  0.41213529652E+02  0.13097933711E+02 -0.12609626055E+02  0.46142316931E+02  0.99999924336E+01 0.  0.
         12    1    1    2    0    0 -0.41213529652E+02 -0.13097933711E+02  0.12609626055E+02  0.45045683069E+02  0.00000000000E+00 0. -1.
         11    1    3    3    0    0  0.24740719754E+02  0.49340085315E+01 -0.69170496645E+01  0.26158999034E+02  0.51100000000E-03 0. -1.
        -11    1    3    3    0    0  0.25124628797E+00  0.10486369211E+01 -0.13820150837E+01  0.17529204324E+01  0.51100000000E-03 0.  1.
         12    1    3    3    0    0  0.16221563610E+02  0.71152882583E+01 -0.43105613066E+01  0.18230397465E+02  0.00000000000E+00 0. -1.
</event>
<event>
 7    1  0.1541902E-008  0.4614232E+02  0.7816164E-02  0.1320468E+00
        -11   -1    0    0    0    0  0.00000000000E+00  0.00000000000E+00  0.45593999997E+02  0.45594000000E+02  0.51100000000E-03 0. -1.
         11   -1    0    0    0    0 -0.00000000000E+00 -0.00000000000E+00 -0.45593999997E+02  0.45594000000E+02  0.51100000000E-03 0.  1.
    9900012    2    1    2    0    0 -0.77812810811E+01 -0.43508453279E+02  0.86936575117E+01  0.46142317378E+02  0.99999965020E+01 0.  0.
         12    1    1    2    0    0  0.77812810811E+01  0.43508453279E+02 -0.86936575117E+01  0.45045682622E+02  0.00000000000E+00 0. -1.
         11    1    3    3    0    0 -0.23721897215E+01 -0.10667260943E+02  0.16976339464E+01  0.11058919540E+02  0.51100000000E-03 0.  1.
        -11    1    3    3    0    0 -0.53859013610E+01 -0.91296475367E+01  0.31806683959E+01  0.11066844596E+02  0.51100000000E-03 0. -1.
        -12    1    3    3    0    0 -0.23189998568E-01 -0.23711544799E+02  0.38153551694E+01  0.24016553241E+02  0.00000000000E+00 0.  1.
</event>
<event>
 7    1  0.1541902E-008  0.4614232E+02  0.7816164E-02  0.1320468E+00
        -11   -1    0    0    0    0  0.00000000000E+00  0.00000000000E+00  0.45593999997E+02  0.45594000000E+02  0.51100000000E-03 0. -1.
         11   -1    0    0    0    0 -0.00000000000E+00 -0.00000000000E+00 -0.45593999997E+02  0.45594000000E+02  0.51100000000E-03 0.  1.
    9900012    2    1    2    0    0  0.82459236470E+01  0.86744175536E+01 -0.43426635968E+02  0.46142317764E+02  0.10000000022E+02 0.  0.
         12    1    1    2    0    0 -0.82459236470E+01 -0.86744175536E+01  0.43426635968E+02  0.45045682236E+02  0.00000000000E+00 0. -1.
         11    1    3    3    0    0  0.85170079861E+01  0.49094288234E+01 -0.34629199426E+02  0.35997546716E+02  0.51100000000E-03 0. -1.
        -11    1    3    3    0    0 -0.12568683356E-01  0.37124820294E+01 -0.44758692001E+01  0.58151600277E+01  0.51100000000E-03 0.  1.
         12    1    3    3    0    0 -0.25851565576E+00  0.52506700849E-01 -0.43215673416E+01  0.43296110202E+01  0.00000000000E+00 0. -1.
</event>
<event>
 7    1  0.1541902E-008  0.4614232E+02  0.7816164E-02  0.1320468E+00
        -11   -1    0    0    0    0  0.00000000000E+00  0.00000000000E+00  0.45593999997E+02  0.45594000000E+02  0.51100000000E-03 0.  1.
         11   -1    0    0    0    0 -0.00000000000E+00 -0.00000000000E+00 -0.45593999997E+02  0.45594000000E+02  0.51100000000E-03 0. -1.
    9900012    2    1    2    0    0  0.28666110828E+02  0.97539751376E+01  0.33350074857E+02  0.46142318365E+02  0.10000005511E+02 0.  0.
         12    1    1    2    0    0 -0.28666110828E+02 -0.97539751376E+01 -0.33350074857E+02  0.45045681635E+02  0.00000000000E+00 0. -1.
         11    1    3    3    0    0  0.15454131949E+02  0.40422385220E+01  0.15409931615E+02  0.22195402209E+02  0.51100000000E-03 0.  1.
        -11    1    3    3    0    0  0.24351164033E+01  0.22294619839E+01  0.79013246737E+00  0.33947904519E+01  0.51100000000E-03 0. -1.
         12    1    3    3    0    0  0.10776862476E+02  0.34822746316E+01  0.17150010775E+02  0.20552125705E+02  0.00000000000E+00 0. -1.
</event>
<event>
 7    1  0.1541902E-008  0.4614233E+02  0.7816164E-02  0.1320468E+00
        -11   -1    0    0    0    0  0.00000000000E+00  0.00000000000E+00  0.45593999997E+02  0.45594000000E+02  0.51100000000E-03 0.  1.
         11   -1    0    0    0    0 -0.00000000000E+00 -0.00000000000E+00 -0.45593999997E+02  0.45594000000E+02  0.51100000000E-03 0. -1.
    9900012    2    1    2    0    0 -0.20522283637E+02  0.30447279355E+01  0.39983475617E+02  0.46142325221E+02  0.10000068024E+02 0.  0.
         12    1    1    2    0    0  0.20522283637E+02 -0.30447279355E+01 -0.39983475617E+02  0.45045674779E+02  0.00000000000E+00 0. -1.
         11    1    3    3    0    0 -0.26940433241E+01  0.24851862510E+01  0.93555196337E+01  0.10047873806E+02  0.51100000000E-03 0. -1.
        -11    1    3    3    0    0 -0.16193013661E+02 -0.46655558120E+00  0.29946173244E+02  0.34047094704E+02  0.51100000000E-03 0.  1.
        -12    1    3    3    0    0 -0.16352266515E+01  0.10260972657E+01  0.68178273928E+00  0.20473567115E+01  0.00000000000E+00 0.  1.
</event>
<event>
 7    1  0.1541902E-008  0.4614232E+02  0.7816164E-02  0.1320468E+00
        -11   -1    0    0    0    0  0.00000000000E+00  0.00000000000E+00  0.45593999997E+02  0.45594000000E+02  0.51100000000E-03 0. -1.
         11   -1    0    0    0    0 -0.00000000000E+00 -0.00000000000E+00 -0.45593999997E+02  0.45594000000E+02  0.51100000000E-03 0.  1.
    9900012    2    1    2    0    0  0.44110058729E+02  0.39581324549E+00 -0.91246660915E+01  0.46142317849E+02  0.10000000802E+02 0.  0.
         12    1    1    2    0    0 -0.44110058729E+02 -0.39581324549E+00  0.91246660915E+01  0.45045682151E+02  0.00000000000E+00 0. -1.
         11    1    3    3    0    0  0.16436555542E+02  0.12600067177E+01  0.44913433426E+00  0.16490897396E+02  0.51100000000E-03 0. -1.
        -11    1    3    3    0    0  0.15642689274E+02 -0.27191862343E+01 -0.49702843901E+01  0.16637049879E+02  0.51100000000E-03 0.  1.
        -12    1    3    3    0    0  0.12030813912E+02  0.18549927621E+01 -0.46035160357E+01  0.13014370574E+02  0.00000000000E+00 0.  1.
</event>
<event>
 7    1  0.1541902E-008  0.4614232E+02  0.7816164E-02  0.1320468E+00
        -11   -1    0    0    0    0  0.00000000000E+00  0.00000000000E+00  0.45593999997E+02  0.45594000000E+02  0.51100000000E-03 0.  1.
         11   -1    0    0    0    0 -0.00000000000E+00 -0.00000000000E+00 -0.45593999997E+02  0.45594000000E+02  0.51100000000E-03 0. -1.
    9900012    2    1    2    0    0 -0.90382026734E+01 -0.45741633414E+01  0.43891928724E+02  0.46142317799E+02  0.10000000343E+02 0.  0.
         12    1    1    2    0    0  0.90382026734E+01  0.45741633414E+01 -0.43891928724E+02  0.45045682201E+02  0.00000000000E+00 0. -1.
         11    1    3    3    0    0  0.18871484834E+01 -0.69115080554E+00  0.77353352114E+01  0.79921480172E+01  0.51100000000E-03 0. -1.
        -11    1    3    3    0    0 -0.64312155686E+01 -0.52893545203E+00  0.21879700557E+02  0.22811435797E+02  0.51100000000E-03 0.  1.
         12    1    3    3    0    0 -0.44941355883E+01 -0.33540770839E+01  0.14276892956E+02  0.15338733984E+02  0.00000000000E+00 0. -1.
</event>
<event>
 7    1  0.1541902E-008  0.4614232E+02  0.7816164E-02  0.1320468E+00
        -11   -1    0    0    0    0  0.00000000000E+00  0.00000000000E+00  0.45593999997E+02  0.45594000000E+02  0.51100000000E-03 0. -1.
         11   -1    0    0    0    0 -0.00000000000E+00 -0.00000000000E+00 -0.45593999997E+02  0.45594000000E+02  0.51100000000E-03 0.  1.
    9900012    2    1    2    0    0 -0.40200013596E+02 -0.60440069790E+01  0.19404700845E+02  0.46142317318E+02  0.99999959550E+01 0.  0.
         12    1    1    2    0    0  0.40200013596E+02  0.60440069790E+01 -0.19404700845E+02  0.45045682682E+02  0.00000000000E+00 0. -1.
         11    1    3    3    0    0 -0.24192647938E+02  0.33502952458E-01  0.11999470561E+02  0.27005048245E+02  0.51100000000E-03 0. -1.
        -11    1    3    3    0    0 -0.35806181572E+01 -0.42797303650E+00 -0.25853629524E-02  0.36061051362E+01  0.51100000000E-03 0.  1.
        -12    1    3    3    0    0 -0.12426747500E+02 -0.56495368949E+01  0.74078156470E+01  0.15531163937E+02  0.00000000000E+00 0.  1.
</event>
<event>
 7    1  0.1541902E-008  0.4614232E+02  0.7816164E-02  0.1320468E+00
        -11   -1    0    0    0    0  0.00000000000E+00  0.00000000000E+00  0.45593999997E+02  0.45594000000E+02  0.51100000000E-03 0. -1.
         11   -1    0    0    0    0 -0.00000000000E+00 -0.00000000000E+00 -0.45593999997E+02  0.45594000000E+02  0.51100000000E-03 0.  1.
    9900012    2    1    2    0    0 -0.17712529144E+01  0.27626975179E+02 -0.35534862446E+02  0.46142317149E+02  0.99999944178E+01 0.  0.
         12    1    1    2    0    0  0.17712529144E+01 -0.27626975179E+02  0.35534862446E+02  0.45045682851E+02  0.00000000000E+00 0. -1.
         11    1    3    3    0    0  0.35194273662E+00  0.67306180603E+01 -0.14198849174E+02  0.15717264434E+02  0.51100000000E-03 0. -1.
        -11    1    3    3    0    0  0.39530189549E+00  0.16603734083E+02 -0.17621461533E+02  0.24214792089E+02  0.51100000000E-03 0.  1.
         12    1    3    3    0    0 -0.25184975465E+01  0.42926230358E+01 -0.37145517396E+01  0.62102606262E+01  0.00000000000E+00 0. -1.
</event>
<event>
 7    1  0.1541902E-008  0.4614232E+02  0.7816164E-02  0.1320468E+00
        -11   -1    0    0    0    0  0.00000000000E+00  0.00000000000E+00  0.45593999997E+02  0.45594000000E+02  0.51100000000E-03 0.  1.
         11   -1    0    0    0    0 -0.00000000000E+00 -0.00000000000E+00 -0.45593999997E+02  0.45594000000E+02  0.51100000000E-03 0. -1.
    9900012    2    1    2    0    0  0.67719651783E+01  0.42009938008E+02  0.14779008263E+02  0.46142317754E+02  0.99999999322E+01 0.  0.
         12    1    1    2    0    0 -0.67719651783E+01 -0.42009938008E+02 -0.14779008263E+02  0.45045682246E+02  0.00000000000E+00 0. -1.
         11    1    3    3    0    0  0.51860120339E+01  0.10022200635E+02  0.27133724597E+01  0.11606102565E+02  0.51100000000E-03 0.  1.
        -11    1    3    3    0    0 -0.12704291641E+01  0.18032321305E+02  0.75799569542E+01  0.19601896581E+02  0.51100000000E-03 0. -1.
        -12    1    3    3    0    0  0.28563823085E+01  0.13955416068E+02  0.44856788488E+01  0.14934318607E+02  0.00000000000E+00 0.  1.
</event>
<event>
 7    1  0.1541902E-008  0.4614232E+02  0.7816164E-02  0.1320468E+00
        -11   -1    0    0    0    0  0.00000000000E+00  0.00000000000E+00  0.45593999997E+02  0.45594000000E+02  0.51100000000E-03 0. -1.
         11   -1    0    0    0    0 -0.00000000000E+00 -0.00000000000E+00 -0.45593999997E+02  0.45594000000E+02  0.51100000000E-03 0.  1.
    9900012    2    1    2    0    0 -0.16499855160E+02  0.36538816611E+02 -0.20537362198E+02  0.46142316681E+02  0.99999901527E+01 0.  0.
         12    1    1    2    0    0  0.16499855160E+02 -0.36538816611E+02  0.20537362198E+02  0.45045683319E+02  0.00000000000E+00 0. -1.
         11    1    3    3    0    0  0.61443457101E+00  0.76274000323E+00 -0.18693088227E+01  0.21103596590E+01  0.51100000000E-03 0. -1.
        -11    1    3    3    0    0 -0.12113790579E+02  0.21829931362E+02 -0.13191697933E+02  0.28236691025E+02  0.51100000000E-03 0.  1.
        -12    1    3    3    0    0 -0.50004991525E+01  0.13946145245E+02 -0.54763554424E+01  0.15795265997E+02  0.00000000000E+00 0.  1.
</event>
<event>
 7    1  0.1541902E-008  0.4614232E+02  0.7816164E-02  0.1320468E+00
        -11   -1    0    0    0    0  0.00000000000E+00  0.00000000000E+00  0.45593999997E+02  0.45594000000E+02  0.51100000000E-03 0. -1.
         11   -1    0    0    0    0 -0.00000000000E+00 -0.00000000000E+00 -0.45593999997E+02  0.45594000000E+02  0.51100000000E-03 0.  1.
    9900012    2    1    2    0    0  0.23414823794E+02 -0.20946403611E+02 -0.32281693909E+02  0.46142316975E+02  0.99999928294E+01 0.  0.
         12    1    1    2    0    0 -0.23414823794E+02  0.20946403611E+02  0.32281693909E+02  0.45045683025E+02  0.00000000000E+00 0. -1.
         11    1    3    3    0    0  0.23372916923E+01 -0.48190759982E+01 -0.37933506917E+01  0.65632260104E+01  0.51100000000E-03 0. -1.
        -11    1    3    3    0    0  0.28895599354E+01 -0.55181935714E+01 -0.46507762841E+01  0.77736566182E+01  0.51100000000E-03 0.  1.
        -12    1    3    3    0    0  0.18187972167E+02 -0.10609134041E+02 -0.23837566934E+02  0.31805434346E+02  0.00000000000E+00 0.  1.
</event>
<event>
 7    1  0.1541902E-008  0.4614233E+02  0.7816164E-02  0.1320468E+00
        -11   -1    0    0    0    0  0.00000000000E+00  0.00000000000E+00  0.45593999997E+02  0.45594000000E+02  0.51100000000E-03 0.  1.
         11   -1    0    0    0    0 -0.00000000000E+00 -0.00000000000E+00 -0.45593999997E+02  0.45594000000E+02  0.51100000000E-03 0. -1.
    9900012    2    1    2    0    0 -0.16404907480E+02  0.93602810730E+01  0.40894704098E+02  0.46142326795E+02  0.10000082378E+02 0.  0.
         12    1    1    2    0    0  0.16404907480E+02 -0.93602810730E+01 -0.40894704098E+02  0.45045673205E+02  0.00000000000E+00 0. -1.
         11    1    3    3    0    0  0.44476432282E+00 -0.70634762675E-02  0.52637111650E+00  0.68915310995E+00  0.51100000000E-03 0. -1.
        -11    1    3    3    0    0 -0.14129007859E+02  0.10332590951E+02  0.37497894696E+02  0.41382162894E+02  0.51100000000E-03 0.  1.
        -12    1    3    3    0    0 -0.27206639443E+01 -0.96524640173E+00  0.28704382854E+01  0.40710107915E+01  0.00000000000E+00 0.  1.
</event>
<event>
 7    1  0.1541902E-008  0.4614232E+02  0.7816164E-02  0.1320468E+00
        -11   -1    0    0    0    0  0.00000000000E+00  0.00000000000E+00  0.45593999997E+02  0.45594000000E+02  0.51100000000E-03 0.  1.
         11   -1    0    0    0    0 -0.00000000000E+00 -0.00000000000E+00 -0.45593999997E+02  0.45594000000E+02  0.51100000000E-03 0. -1.
    9900012    2    1    2    0    0  0.15567309732E+02 -0.36556024522E+02  0.21223326683E+02  0.46142315893E+02  0.99999829627E+01 0.  0.
         12    1    1    2    0    0 -0.15567309732E+02  0.36556024522E+02 -0.21223326683E+02  0.45045684107E+02  0.00000000000E+00 0. -1.
         11    1    3    3    0    0  0.29567398730E+01 -0.85288418048E+01  0.76425149800E+00  0.90591133021E+01  0.51100000000E-03 0. -1.
        -11    1    3    3    0    0  0.12828779755E+02 -0.27739097350E+02  0.20141704323E+02  0.36602231695E+02  0.51100000000E-03 0.  1.
         12    1    3    3    0    0 -0.21820989579E+00 -0.28808536763E+00  0.31737086244E+00  0.48097089515E+00  0.00000000000E+00 0. -1.
</event>
<event>
 7    1  0.1541902E-008  0.4614232E+02  0.7816164E-02  0.1320468E+00
        -11   -1    0    0    0    0  0.00000000000E+00  0.00000000000E+00  0.45593999997E+02  0.45594000000E+02  0.51100000000E-03 0. -1.
         11   -1    0    0    0    0 -0.00000000000E+00 -0.00000000000E+00 -0.45593999997E+02  0.45594000000E+02  0.51100000000E-03 0.  1.
    9900012    2    1    2    0    0  0.28484302495E+02 -0.34326763780E+02 -0.62794332228E+01  0.46142317833E+02  0.10000000658E+02 0.  0.
         12    1    1    2    0    0 -0.28484302495E+02  0.34326763780E+02  0.62794332228E+01  0.45045682167E+02  0.00000000000E+00 0. -1.
         11    1    3    3    0    0  0.59866579381E+01 -0.39800333275E+01 -0.29227961235E+01  0.77603785988E+01  0.51100000000E-03 0. -1.
        -11    1    3    3    0    0  0.21240767629E+02 -0.28660928101E+02 -0.45521823653E+01  0.35963055677E+02  0.51100000000E-03 0.  1.
         12    1    3    3    0    0  0.12568769283E+01 -0.16858023513E+01  0.11955452660E+01  0.24188835572E+01  0.00000000000E+00 0. -1.
</event>
<event>
 7    1  0.1541902E-008  0.4614232E+02  0.7816164E-02  0.1320468E+00
        -11   -1    0    0    0    0  0.00000000000E+00  0.00000000000E+00  0.45593999997E+02  0.45594000000E+02  0.51100000000E-03 0.  1.
         11   -1    0    0    0    0 -0.00000000000E+00 -0.00000000000E+00 -0.45593999997E+02  0.45594000000E+02  0.51100000000E-03 0. -1.
    9900012    2    1    2    0    0 -0.27454092454E+02 -0.30918479625E+02  0.17872716835E+02  0.46142316723E+02  0.99999905364E+01 0.  0.
         12    1    1    2    0    0  0.27454092454E+02  0.30918479625E+02 -0.17872716835E+02  0.45045683277E+02  0.00000000000E+00 0. -1.
         11    1    3    3    0    0 -0.75739099976E+01 -0.78859041871E+01  0.78218309147E+01  0.13443683893E+02  0.51100000000E-03 0. -1.
        -11    1    3    3    0    0 -0.18961149575E+02 -0.20595538865E+02  0.10772735147E+02  0.29995887004E+02  0.51100000000E-03 0.  1.
        -12    1    3    3    0    0 -0.91903288043E+00 -0.24370365732E+01 -0.72184922613E+00  0.27027458260E+01  0.00000000000E+00 0.  1.
</event>
<event>
 7    1  0.1541902E-008  0.4614232E+02  0.7816164E-02  0.1320468E+00
        -11   -1    0    0    0    0  0.00000000000E+00  0.00000000000E+00  0.45593999997E+02  0.45594000000E+02  0.51100000000E-03 0.  1.
         11   -1    0    0    0    0 -0.00000000000E+00 -0.00000000000E+00 -0.45593999997E+02  0.45594000000E+02  0.51100000000E-03 0. -1.
    9900012    2    1    2    0    0  0.35883688542E+02 -0.26146205776E+01  0.27104208232E+02  0.46142318209E+02  0.10000004081E+02 0.  0.
         12    1    1    2    0    0 -0.35883688542E+02  0.26146205776E+01 -0.27104208232E+02  0.45045681791E+02  0.00000000000E+00 0. -1.
         11    1    3    3    0    0  0.50666529763E+01 -0.18057997114E+01  0.14963736397E+01  0.55831012270E+01  0.51100000000E-03 0. -1.
        -11    1    3    3    0    0  0.10698368990E+02 -0.32206333517E+01  0.84557849193E+01  0.14011705003E+02  0.51100000000E-03 0.  1.
         12    1    3    3    0    0  0.20118666576E+02  0.24118124855E+01  0.17152049673E+02  0.26547511978E+02  0.00000000000E+00 0. -1.
</event>
<event>
 7    1  0.1541902E-008  0.4614232E+02  0.7816164E-02  0.1320468E+00
        -11   -1    0    0    0    0  0.00000000000E+00  0.00000000000E+00  0.45593999997E+02  0.45594000000E+02  0.51100000000E-03 0.  1.
         11   -1    0    0    0    0 -0.00000000000E+00 -0.00000000000E+00 -0.45593999997E+02  0.45594000000E+02  0.51100000000E-03 0. -1.
    9900012    2    1    2    0    0 -0.42075068749E+02  0.13579205295E+02  0.86259698830E+01  0.46142316710E+02  0.99999904131E+01 0.  0.
         12    1    1    2    0    0  0.42075068749E+02 -0.13579205295E+02 -0.86259698830E+01  0.45045683290E+02  0.00000000000E+00 0. -1.
         11    1    3    3    0    0 -0.10328450520E+02  0.10855266324E+01 -0.16151212081E+01  0.10510179588E+02  0.51100000000E-03 0. -1.
        -11    1    3    3    0    0 -0.20601419119E+02  0.78420601791E+01  0.69899983987E+01  0.23125234170E+02  0.51100000000E-03 0.  1.
         12    1    3    3    0    0 -0.11145199110E+02  0.46516184837E+01  0.32510926924E+01  0.12506902951E+02  0.00000000000E+00 0. -1.
</event>
<event>
 7    1  0.1541902E-008  0.4614232E+02  0.7816164E-02  0.1320468E+00
        -11   -1    0    0    0    0  0.00000000000E+00  0.00000000000E+00  0.45593999997E+02  0.45594000000E+02  0.51100000000E-03 0.  1.
         11   -1    0    0    0    0 -0.00000000000E+00 -0.00000000000E+00 -0.45593999997E+02  0.45594000000E+02  0.51100000000E-03 0. -1.
    9900012    2    1    2    0    0 -0.21796145701E+02  0.18772805588E+02  0.34664439324E+02  0.46142317069E+02  0.99999936879E+01 0.  0.
         12    1    1    2    0    0  0.21796145701E+02 -0.18772805588E+02 -0.34664439324E+02  0.45045682931E+02  0.00000000000E+00 0. -1.
         11    1    3    3    0    0 -0.34532925144E+01 -0.89043806430E-01  0.36101018171E+01  0.49965981808E+01  0.51100000000E-03 0. -1.
        -11    1    3    3    0    0 -0.13768297733E+02  0.10141759491E+02  0.20837183361E+02  0.26955695479E+02  0.51100000000E-03 0.  1.
        -12    1    3    3    0    0 -0.45745554537E+01  0.87200899036E+01  0.10217154146E+02  0.14190023409E+02  0.00000000000E+00 0.  1.
</event>
<event>
 7    1  0.1541902E-008  0.4614232E+02  0.7816164E-02  0.1320468E+00
        -11   -1    0    0    0    0  0.00000000000E+00  0.00000000000E+00  0.45593999997E+02  0.45594000000E+02  0.51100000000E-03 0.  1.
         11   -1    0    0    0    0 -0.00000000000E+00 -0.00000000000E+00 -0.45593999997E+02  0.45594000000E+02  0.51100000000E-03 0. -1.
    9900012    2    1    2    0    0 -0.33997566073E+02 -0.18304059017E+02  0.23200010472E+02  0.46142316952E+02  0.99999926181E+01 0.  0.
         12    1    1    2    0    0  0.33997566073E+02  0.18304059017E+02 -0.23200010472E+02  0.45045683048E+02  0.00000000000E+00 0. -1.
         11    1    3    3    0    0 -0.13785758490E+02 -0.34371484845E+01  0.95500407729E+01  0.17119123981E+02  0.51100000000E-03 0.  1.
        -11    1    3    3    0    0 -0.16985645651E+02 -0.14552633868E+02  0.12098174204E+02  0.25429453986E+02  0.51100000000E-03 0. -1.
         12    1    3    3    0    0 -0.32261619319E+01 -0.31427666474E+00  0.15517954949E+01  0.35937389848E+01  0.00000000000E+00 0. -1.
</event>
<event>
 7    1  0.1541902E-008  0.4614232E+02  0.7816164E-02  0.1320468E+00
        -11   -1    0    0    0    0  0.00000000000E+00  0.00000000000E+00  0.45593999997E+02  0.45594000000E+02  0.51100000000E-03 0.  1.
         11   -1    0    0    0    0 -0.00000000000E+00 -0.00000000000E+00 -0.45593999997E+02  0.45594000000E+02  0.51100000000E-03 0. -1.
    9900012    2    1    2    0    0  0.17784638420E+02  0.36712595153E+02  0.19105115621E+02  0.46142318193E+02  0.10000003937E+02 0.  0.
         12    1    1    2    0    0 -0.17784638420E+02 -0.36712595153E+02 -0.19105115621E+02  0.45045681807E+02  0.00000000000E+00 0. -1.
         11    1    3    3    0    0  0.10465984575E+02  0.17436698106E+02  0.12281771464E+02  0.23757465869E+02  0.51100000000E-03 0. -1.
        -11    1    3    3    0    0  0.54954595676E+01  0.10970568231E+02  0.64772263677E+01  0.13874721793E+02  0.51100000000E-03 0.  1.
         12    1    3    3    0    0  0.18231942767E+01  0.83053288164E+01  0.34611778883E+00  0.85101305303E+01  0.00000000000E+00 0. -1.
</event>
<event>
 7    1  0.1541902E-008  0.4614232E+02  0.7816164E-02  0.1320468E+00
        -11   -1    0    0    0    0  0.00000000000E+00  0.00000000000E+00  0.45593999997E+02  0.45594000000E+02  0.51100000000E-03 0. -1.
         11   -1    0    0    0    0 -0.00000000000E+00 -0.00000000000E+00 -0.45593999997E+02  0.45594000000E+02  0.51100000000E-03 0.  1.
    9900012    2    1    2    0    0 -0.16902470114E+02 -0.20691871867E+02 -0.36266602311E+02  0.46142317626E+02  0.99999987714E+01 0.  0.
         12    1    1    2    0    0  0.16902470114E+02  0.20691871867E+02  0.36266602311E+02  0.45045682374E+02  0.00000000000E+00 0. -1.
         11    1    3    3    0    0 -0.11517587674E+02 -0.14671616874E+02 -0.31829923709E+02  0.36892481770E+02  0.51100000000E-03 0.  1.
        -11    1    3    3    0    0 -0.37232066830E+01 -0.39935887388E+01 -0.25854145242E+01  0.60411412450E+01  0.51100000000E-03 0. -1.
        -12    1    3    3    0    0 -0.16616757563E+01 -0.20266662543E+01 -0.18512640778E+01  0.32086946117E+01  0.00000000000E+00 0.  1.
</event>
<event>
 7    1  0.1541902E-008  0.4614232E+02  0.7816164E-02  0.1320468E+00
        -11   -1    0    0    0    0  0.00000000000E+00  0.00000000000E+00  0.45593999997E+02  0.45594000000E+02  0.51100000000E-03 0.  1.
         11   -1    0    0    0    0 -0.00000000000E+00 -0.00000000000E+00 -0.45593999997E+02  0.45594000000E+02  0.51100000000E-03 0. -1.
    9900012    2    1    2    0    0  0.12312769179E+02 -0.30318386321E+02  0.30956495831E+02  0.46142317986E+02  0.10000002049E+02 0.  0.
         12    1    1    2    0    0 -0.12312769179E+02  0.30318386321E+02 -0.30956495831E+02  0.45045682014E+02  0.00000000000E+00 0. -1.
         11    1    3    3    0    0  0.35424935402E+01 -0.89241556152E+01  0.45639015139E+01  0.10631039988E+02  0.51100000000E-03 0. -1.
        -11    1    3    3    0    0  0.41331543065E+01 -0.16126222180E+02  0.17087453025E+02  0.23856216327E+02  0.51100000000E-03 0.  1.
        -12    1    3    3    0    0  0.46371213321E+01 -0.52680085264E+01  0.93051412930E+01  0.11655061671E+02  0.00000000000E+00 0.  1.
</event>
<event>
 7    1  0.1541902E-008  0.4614232E+02  0.7816164E-02  0.1320468E+00
        -11   -1    0    0    0    0  0.00000000000E+00  0.00000000000E+00  0.45593999997E+02  0.45594000000E+02  0.51100000000E-03 0. -1.
         11   -1    0    0    0    0 -0.00000000000E+00 -0.00000000000E+00 -0.45593999997E+02  0.45594000000E+02  0.51100000000E-03 0.  1.
    9900012    2    1    2    0    0 -0.23414942392E+02 -0.11082708611E+02 -0.36851424885E+02  0.46142317927E+02  0.10000001515E+02 0.  0.
         12    1    1    2    0    0  0.23414942392E+02  0.11082708611E+02  0.36851424885E+02  0.45045682073E+02  0.00000000000E+00 0. -1.
         11    1    3    3    0    0 -0.50133358541E+01 -0.35749383705E+01 -0.14980103329E+02  0.16196209950E+02  0.51100000000E-03 0. -1.
        -11    1    3    3    0    0 -0.13167801847E+02 -0.52321148611E+01 -0.12111563873E+02  0.18640171971E+02  0.51100000000E-03 0.  1.
         12    1    3    3    0    0 -0.52338046903E+01 -0.22756553795E+01 -0.97597576834E+01  0.11305936006E+02  0.00000000000E+00 0. -1.
</event>
<event>
 7    1  0.1541902E-008  0.4614232E+02  0.7816164E-02  0.1320468E+00
        -11   -1    0    0    0    0  0.00000000000E+00  0.00000000000E+00  0.45593999997E+02  0.45594000000E+02  0.51100000000E-03 0. -1.
         11   -1    0    0    0    0 -0.00000000000E+00 -0.00000000000E+00 -0.45593999997E+02  0.45594000000E+02  0.51100000000E-03 0.  1.
    9900012    2    1    2    0    0  0.32914051794E+02  0.93565696076E+01  0.29295620773E+02  0.46142316557E+02  0.99999890245E+01 0.  0.
         12    1    1    2    0    0 -0.32914051794E+02 -0.93565696076E+01 -0.29295620773E+02  0.45045683443E+02  0.00000000000E+00 0. -1.
         11    1    3    3    0    0  0.23046345443E+02  0.10041081791E+02  0.20513240971E+02  0.32446115595E+02  0.51100000000E-03 0.  1.
        -11    1    3    3    0    0  0.48886854658E+01 -0.10387275469E+01  0.22655205423E+01  0.54873294132E+01  0.51100000000E-03 0. -1.
        -12    1    3    3    0    0  0.49790208850E+01  0.35421536321E+00  0.65168592597E+01  0.82088715489E+01  0.00000000000E+00 0.  1.
</event>
<event>
 7    1  0.1541902E-008  0.4614232E+02  0.7816164E-02  0.1320468E+00
        -11   -1    0    0    0    0  0.00000000000E+00  0.00000000000E+00  0.45593999997E+02  0.45594000000E+02  0.51100000000E-03 0.  1.
         11   -1    0    0    0    0 -0.00000000000E+00 -0.00000000000E+00 -0.45593999997E+02  0.45594000000E+02  0.51100000000E-03 0. -1.
    9900012    2    1    2    0    0 -0.10713807933E+02 -0.15144117790E+02  0.41048549991E+02  0.46142318293E+02  0.10000004852E+02 0.  0.
         12    1    1    2    0    0  0.10713807933E+02  0.15144117790E+02 -0.41048549991E+02  0.45045681707E+02  0.00000000000E+00 0. -1.
         11    1    3    3    0    0 -0.50308921629E+01 -0.49110811189E+01  0.20847890975E+02  0.22001435227E+02  0.51100000000E-03 0.  1.
        -11    1    3    3    0    0  0.68835152505E+00 -0.40312084485E+01  0.86175066687E+01  0.95386524637E+01  0.51100000000E-03 0. -1.
        -12    1    3    3    0    0 -0.63712672948E+01 -0.62018282223E+01  0.11583152348E+02  0.14602230602E+02  0.00000000000E+00 0.  1.
</event>
<event>
 7    1  0.1541902E-008  0.4614232E+02  0.7816164E-02  0.1320468E+00
        -11   -1    0    0    0    0  0.00000000000E+00  0.00000000000E+00  0.45593999997E+02  0.45594000000E+02  0.51100000000E-03 0.  1.
         11   -1    0    0    0    0 -0.00000000000E+00 -0.00000000000E+00 -0.45593999997E+02  0.45594000000E+02  0.51100000000E-03 0. -1.
    9900012    2    1    2    0    0  0.18008026943E+02 -0.31320850535E+02  0.26904068391E+02  0.46142316427E+02  0.99999878321E+01 0.  0.
         12    1    1    2    0    0 -0.18008026943E+02  0.31320850535E+02 -0.26904068391E+02  0.45045683573E+02  0.00000000000E+00 0. -1.
         11    1    3    3    0    0  0.33893209180E+01 -0.73016264371E+01  0.11110602691E+02  0.13720303835E+02  0.51100000000E-03 0. -1.
        -11    1    3    3    0    0  0.93920779408E+01 -0.18203334161E+02  0.10997433154E+02  0.23249000814E+02  0.51100000000E-03 0.  1.
        -12    1    3    3    0    0  0.52266280838E+01 -0.58158899364E+01  0.47960325467E+01  0.91730117774E+01  0.00000000000E+00 0.  1.
</event>
<event>
 7    1  0.1541902E-008  0.4614232E+02  0.7816164E-02  0.1320468E+00
        -11   -1    0    0    0    0  0.00000000000E+00  0.00000000000E+00  0.45593999997E+02  0.45594000000E+02  0.51100000000E-03 0.  1.
         11   -1    0    0    0    0 -0.00000000000E+00 -0.00000000000E+00 -0.45593999997E+02  0.45594000000E+02  0.51100000000E-03 0. -1.
    9900012    2    1    2    0    0 -0.36764597786E+02  0.21636711043E+02  0.14468259941E+02  0.46142318066E+02  0.10000002779E+02 0.  0.
         12    1    1    2    0    0  0.36764597786E+02 -0.21636711043E+02 -0.14468259941E+02  0.45045681934E+02  0.00000000000E+00 0. -1.
         11    1    3    3    0    0 -0.91130022920E+01  0.88729253726E+01  0.32245345087E+01  0.13121480042E+02  0.51100000000E-03 0. -1.
        -11    1    3    3    0    0 -0.14211642116E+02  0.98410171310E+01  0.66150525897E+01  0.18508790096E+02  0.51100000000E-03 0.  1.
         12    1    3    3    0    0 -0.13439953379E+02  0.29227685398E+01  0.46286728430E+01  0.14512047928E+02  0.00000000000E+00 0. -1.
</event>
<event>
 7    1  0.1541902E-008  0.4614232E+02  0.7816164E-02  0.1320468E+00
        -11   -1    0    0    0    0  0.00000000000E+00  0.00000000000E+00  0.45593999997E+02  0.45594000000E+02  0.51100000000E-03 0.  1.
         11   -1    0    0    0    0 -0.00000000000E+00 -0.00000000000E+00 -0.45593999997E+02  0.45594000000E+02  0.51100000000E-03 0. -1.
    9900012    2    1    2    0    0 -0.21720306315E+02 -0.31430001041E+02  0.23864133477E+02  0.46142317205E+02  0.99999949319E+01 0.  0.
         12    1    1    2    0    0  0.21720306315E+02  0.31430001041E+02 -0.23864133477E+02  0.45045682795E+02  0.00000000000E+00 0. -1.
         11    1    3    3    0    0 -0.83793582419E+01 -0.11738134605E+02  0.69697225169E+01  0.16017942464E+02  0.51100000000E-03 0. -1.
        -11    1    3    3    0    0 -0.11104659241E+02 -0.19614772889E+02  0.14278419641E+02  0.26681942209E+02  0.51100000000E-03 0.  1.
         12    1    3    3    0    0 -0.22362888320E+01 -0.77093546121E-01  0.26159913193E+01  0.34424325320E+01  0.00000000000E+00 0. -1.
</event>
<event>
 7    1  0.1541902E-008  0.4614232E+02  0.7816164E-02  0.1320468E+00
        -11   -1    0    0    0    0  0.00000000000E+00  0.00000000000E+00  0.45593999997E+02  0.45594000000E+02  0.51100000000E-03 0.  1.
         11   -1    0    0    0    0 -0.00000000000E+00 -0.00000000000E+00 -0.45593999997E+02  0.45594000000E+02  0.51100000000E-03 0. -1.
    9900012    2    1    2    0    0  0.40330272689E+01  0.34769014912E+02  0.28354255207E+02  0.46142317685E+02  0.99999993084E+01 0.  0.
         12    1    1    2    0    0 -0.40330272689E+01 -0.34769014912E+02 -0.28354255207E+02  0.45045682315E+02  0.00000000000E+00 0. -1.
         11    1    3    3    0    0  0.45645957091E+00  0.18339771812E+02  0.18706386614E+02  0.26200848953E+02  0.51100000000E-03 0. -1.
        -11    1    3    3    0    0  0.32616446903E+01  0.11105206001E+02  0.88031546593E+01  0.14541645664E+02  0.51100000000E-03 0.  1.
         12    1    3    3    0    0  0.31492300767E+00  0.53240370991E+01  0.84471393272E+00  0.53998230676E+01  0.00000000000E+00 0. -1.
</event>
<event>
 7    1  0.1541902E-008  0.4614232E+02  0.7816164E-02  0.1320468E+00
        -11   -1    0    0    0    0  0.00000000000E+00  0.00000000000E+00  0.45593999997E+02  0.45594000000E+02  0.51100000000E-03 0. -1.
         11   -1    0    0    0    0 -0.00000000000E+00 -0.00000000000E+00 -0.45593999997E+02  0.45594000000E+02  0.51100000000E-03 0.  1.
    9900012    2    1    2    0    0 -0.21899510156E+02 -0.37367384683E+02 -0.12377534654E+02  0.46142319327E+02  0.10000014281E+02 0.  0.
         12    1    1    2    0    0  0.21899510156E+02  0.37367384683E+02  0.12377534654E+02  0.45045680673E+02  0.00000000000E+00 0. -1.
         11    1    3    3    0    0 -0.11487147170E+01 -0.31168998113E+01 -0.28870326217E+01  0.44010870878E+01  0.51100000000E-03 0. -1.
        -11    1    3    3    0    0 -0.50981459099E+01 -0.14325912880E+02 -0.21178660688E+01  0.15352792206E+02  0.51100000000E-03 0.  1.
        -12    1    3    3    0    0 -0.15652649529E+02 -0.19924571992E+02 -0.73726359640E+01  0.26388440034E+02  0.00000000000E+00 0.  1.
</event>
<event>
 7    1  0.1541902E-008  0.4614232E+02  0.7816164E-02  0.1320468E+00
        -11   -1    0    0    0    0  0.00000000000E+00  0.00000000000E+00  0.45593999997E+02  0.45594000000E+02  0.51100000000E-03 0. -1.
         11   -1    0    0    0    0 -0.00000000000E+00 -0.00000000000E+00 -0.45593999997E+02  0.45594000000E+02  0.51100000000E-03 0.  1.
    9900012    2    1    2    0    0 -0.10673162452E+02 -0.43641382864E+02 -0.32598797682E+01  0.46142317508E+02  0.99999976960E+01 0.  0.
         12    1    1    2    0    0  0.10673162452E+02  0.43641382864E+02  0.32598797682E+01  0.45045682492E+02  0.00000000000E+00 0. -1.
         11    1    3    3    0    0 -0.47527106723E+01 -0.11763472711E+02  0.16445926276E+01  0.12793444968E+02  0.51100000000E-03 0. -1.
        -11    1    3    3    0    0 -0.10303865643E+01 -0.19979802284E+02 -0.43459163883E+01  0.20472937877E+02  0.51100000000E-03 0.  1.
        -12    1    3    3    0    0 -0.48900652151E+01 -0.11898107869E+02 -0.55855600753E+00  0.12875934664E+02  0.00000000000E+00 0.  1.
</event>
<event>
 7    1  0.1541902E-008  0.4614232E+02  0.7816164E-02  0.1320468E+00
        -11   -1    0    0    0    0  0.00000000000E+00  0.00000000000E+00  0.45593999997E+02  0.45594000000E+02  0.51100000000E-03 0.  1.
         11   -1    0    0    0    0 -0.00000000000E+00 -0.00000000000E+00 -0.45593999997E+02  0.45594000000E+02  0.51100000000E-03 0. -1.
    9900012    2    1    2    0    0  0.31200218209E+02 -0.23616336552E+02  0.22314310872E+02  0.46142318319E+02  0.10000005089E+02 0.  0.
         12    1    1    2    0    0 -0.31200218209E+02  0.23616336552E+02 -0.22314310872E+02  0.45045681681E+02  0.00000000000E+00 0. -1.
         11    1    3    3    0    0  0.13763189041E+02 -0.14329201558E+02  0.86453686346E+01  0.21667805356E+02  0.51100000000E-03 0.  1.
        -11    1    3    3    0    0  0.57761851755E+01 -0.13490396316E+01  0.59181553352E+01  0.83790683218E+01  0.51100000000E-03 0. -1.
         12    1    3    3    0    0  0.11660843993E+02 -0.79380953623E+01  0.77507869020E+01  0.16095444641E+02  0.00000000000E+00 0. -1.
</event>
<event>
 7    1  0.1541902E-008  0.4614232E+02  0.7816164E-02  0.1320468E+00
        -11   -1    0    0    0    0  0.00000000000E+00  0.00000000000E+00  0.45593999997E+02  0.45594000000E+02  0.51100000000E-03 0. -1.
         11   -1    0    0    0    0 -0.00000000000E+00 -0.00000000000E+00 -0.45593999997E+02  0.45594000000E+02  0.51100000000E-03 0.  1.
    9900012    2    1    2    0    0 -0.42436749174E+02  0.10560718288E+02  0.10803103206E+02  0.46142317742E+02  0.99999998237E+01 0.  0.
         12    1    1    2    0    0  0.42436749174E+02 -0.10560718288E+02 -0.10803103206E+02  0.45045682258E+02  0.00000000000E+00 0. -1.
         11    1    3    3    0    0 -0.11516028600E+02  0.51269758515E+01 -0.16776875813E+00  0.12606860938E+02  0.51100000000E-03 0. -1.
        -11    1    3    3    0    0 -0.15950933841E+02  0.26872357074E+01  0.33685851140E+01  0.16522738638E+02  0.51100000000E-03 0.  1.
         12    1    3    3    0    0 -0.14969786733E+02  0.27465067291E+01  0.76022868504E+01  0.17012718166E+02  0.00000000000E+00 0. -1.
</event>
<event>
 7    1  0.1541902E-008  0.4614232E+02  0.7816164E-02  0.1320468E+00
        -11   -1    0    0    0    0  0.00000000000E+00  0.00000000000E+00  0.45593999997E+02  0.45594000000E+02  0.51100000000E-03 0.  1.
         11   -1    0    0    0    0 -0.00000000000E+00 -0.00000000000E+00 -0.45593999997E+02  0.45594000000E+02  0.51100000000E-03 0. -1.
    9900012    2    1    2    0    0 -0.25468598947E+02  0.19776028401E+01  0.37101927885E+02  0.46142317653E+02  0.99999990114E+01 0.  0.
         12    1    1    2    0    0  0.25468598947E+02 -0.19776028401E+01 -0.37101927885E+02  0.45045682347E+02  0.00000000000E+00 0. -1.
         11    1    3    3    0    0 -0.63689099382E-01 -0.12992447335E+01  0.13454547891E+01  0.18714545224E+01  0.51100000000E-03 0. -1.
        -11    1    3    3    0    0 -0.20243545615E+02  0.10074400132E+01  0.25578173481E+02  0.32635242198E+02  0.51100000000E-03 0.  1.
         12    1    3    3    0    0 -0.51613642330E+01  0.22694075604E+01  0.10178299616E+02  0.11635620933E+02  0.00000000000E+00 0. -1.
</event>
<event>
 7    1  0.1541902E-008  0.4614232E+02  0.7816164E-02  0.1320468E+00
        -11   -1    0    0    0    0  0.00000000000E+00  0.00000000000E+00  0.45593999997E+02  0.45594000000E+02  0.51100000000E-03 0.  1.
         11   -1    0    0    0    0 -0.00000000000E+00 -0.00000000000E+00 -0.45593999997E+02  0.45594000000E+02  0.51100000000E-03 0. -1.
    9900012    2    1    2    0    0 -0.28561986111E+02  0.16633755695E+02  0.30604649830E+02  0.46142317961E+02  0.10000001822E+02 0.  0.
         12    1    1    2    0    0  0.28561986111E+02 -0.16633755695E+02 -0.30604649830E+02  0.45045682039E+02  0.00000000000E+00 0. -1.
         11    1    3    3    0    0 -0.11666374863E+02  0.51725464315E+01  0.10877147465E+02  0.16768180470E+02  0.51100000000E-03 0. -1.
        -11    1    3    3    0    0  0.28466342028E+00  0.17110328508E+01  0.31056579214E+01  0.35572149310E+01  0.51100000000E-03 0.  1.
        -12    1    3    3    0    0 -0.17180274668E+02  0.97501764131E+01  0.16621844443E+02  0.25816922560E+02  0.00000000000E+00 0.  1.
</event>
<event>
 7    1  0.1541902E-008  0.4614232E+02  0.7816164E-02  0.1320468E+00
        -11   -1    0    0    0    0  0.00000000000E+00  0.00000000000E+00  0.45593999997E+02  0.45594000000E+02  0.51100000000E-03 0.  1.
         11   -1    0    0    0    0 -0.00000000000E+00 -0.00000000000E+00 -0.45593999997E+02  0.45594000000E+02  0.51100000000E-03 0. -1.
    9900012    2    1    2    0    0  0.31242355577E+00 -0.14693975654E+02  0.42580548421E+02  0.46142316157E+02  0.99999853742E+01 0.  0.
         12    1    1    2    0    0 -0.31242355577E+00  0.14693975654E+02 -0.42580548421E+02  0.45045683843E+02  0.00000000000E+00 0. -1.
         11    1    3    3    0    0 -0.20266513957E+01 -0.59987597941E+01  0.21697402693E+02  0.22602427277E+02  0.51100000000E-03 0. -1.
        -11    1    3    3    0    0  0.73244468368E+00  0.88011655954E+00  0.25205210064E+01  0.27684123208E+01  0.51100000000E-03 0.  1.
        -12    1    3    3    0    0  0.16066302678E+01 -0.95753324195E+01  0.18362624722E+02  0.20771476559E+02  0.00000000000E+00 0.  1.
</event>
<event>
 7    1  0.1541902E-008  0.4614232E+02  0.7816164E-02  0.1320468E+00
        -11   -1    0    0    0    0  0.00000000000E+00  0.00000000000E+00  0.45593999997E+02  0.45594000000E+02  0.51100000000E-03 0.  1.
         11   -1    0    0    0    0 -0.00000000000E+00 -0.00000000000E+00 -0.45593999997E+02  0.45594000000E+02  0.51100000000E-03 0. -1.
    9900012    2    1    2    0    0 -0.29167041525E+02 -0.21278185493E+02  0.26937630702E+02  0.46142318331E+02  0.10000005193E+02 0.  0.
         12    1    1    2    0    0  0.29167041525E+02  0.21278185493E+02 -0.26937630702E+02  0.45045681669E+02  0.00000000000E+00 0. -1.
         11    1    3    3    0    0  0.38598528695E+00  0.17582147264E+00  0.15210584543E+01  0.15790873676E+01  0.51100000000E-03 0. -1.
        -11    1    3    3    0    0 -0.18727686312E+02 -0.12218032980E+02  0.16122184132E+02  0.27566853030E+02  0.51100000000E-03 0.  1.
         12    1    3    3    0    0 -0.10825340500E+02 -0.92359739862E+01  0.92943881153E+01  0.16996377933E+02  0.00000000000E+00 0. -1.
</event>
<event>
 7    1  0.1541902E-008  0.4614232E+02  0.7816164E-02  0.1320468E+00
        -11   -1    0    0    0    0  0.00000000000E+00  0.00000000000E+00  0.45593999997E+02  0.45594000000E+02  0.51100000000E-03 0.  1.
         11   -1    0    0    0    0 -0.00000000000E+00 -0.00000000000E+00 -0.45593999997E+02  0.45594000000E+02  0.51100000000E-03 0. -1.
    9900012    2    1    2    0    0  0.27513064684E+02 -0.21550282670E+02 -0.28420590793E+02  0.46142318825E+02  0.10000009703E+02 0.  0.
         12    1    1    2    0    0 -0.27513064684E+02  0.21550282670E+02  0.28420590793E+02  0.45045681175E+02  0.00000000000E+00 0. -1.
         11    1    3    3    0    0  0.19506358741E+00 -0.17329300903E+01 -0.80420364289E+00  0.19203750315E+01  0.51100000000E-03 0. -1.
        -11    1    3    3    0    0  0.22307524622E+02 -0.18668547389E+02 -0.21167913878E+02  0.35975281717E+02  0.51100000000E-03 0.  1.
         12    1    3    3    0    0  0.50104764750E+01 -0.11488051901E+01 -0.64484732723E+01  0.82466620771E+01  0.00000000000E+00 0. -1.
</event>
<event>
 7    1  0.1541902E-008  0.4614232E+02  0.7816164E-02  0.1320468E+00
        -11   -1    0    0    0    0  0.00000000000E+00  0.00000000000E+00  0.45593999997E+02  0.45594000000E+02  0.51100000000E-03 0.  1.
         11   -1    0    0    0    0 -0.00000000000E+00 -0.00000000000E+00 -0.45593999997E+02  0.45594000000E+02  0.51100000000E-03 0. -1.
    9900012    2    1    2    0    0  0.21463866860E+02  0.31390290608E+02  0.24146748176E+02  0.46142319047E+02  0.10000011726E+02 0.  0.
         12    1    1    2    0    0 -0.21463866860E+02 -0.31390290608E+02 -0.24146748176E+02  0.45045680953E+02  0.00000000000E+00 0. -1.
         11    1    3    3    0    0  0.61683290978E+01  0.66637417866E+01  0.16658147822E+01  0.92319379118E+01  0.51100000000E-03 0. -1.
        -11    1    3    3    0    0  0.14294456898E+02  0.22767379248E+02  0.21788690772E+02  0.34603931882E+02  0.51100000000E-03 0.  1.
        -12    1    3    3    0    0  0.10010808642E+01  0.19591695728E+01  0.69224262188E+00  0.23064492536E+01  0.00000000000E+00 0.  1.
</event>
<event>
 7    1  0.1541902E-008  0.4614232E+02  0.7816164E-02  0.1320468E+00
        -11   -1    0    0    0    0  0.00000000000E+00  0.00000000000E+00  0.45593999997E+02  0.45594000000E+02  0.51100000000E-03 0.  1.
         11   -1    0    0    0    0 -0.00000000000E+00 -0.00000000000E+00 -0.45593999997E+02  0.45594000000E+02  0.51100000000E-03 0. -1.
    9900012    2    1    2    0    0  0.23739400772E+02  0.35285497959E+02 -0.14848835836E+02  0.46142318288E+02  0.10000004805E+02 0.  0.
         12    1    1    2    0    0 -0.23739400772E+02 -0.35285497959E+02  0.14848835836E+02  0.45045681712E+02  0.00000000000E+00 0. -1.
         11    1    3    3    0    0  0.23220254865E+02  0.32509903149E+02 -0.12828868962E+02  0.41960146781E+02  0.51100000000E-03 0. -1.
        -11    1    3    3    0    0  0.66722782007E+00  0.30010676102E+01 -0.11683719000E+01  0.32888741117E+01  0.51100000000E-03 0.  1.
         12    1    3    3    0    0 -0.14808191313E+00 -0.22547280091E+00 -0.85159497372E+00  0.89329739517E+00  0.00000000000E+00 0. -1.
</event>
<event>
 7    1  0.1541902E-008  0.4614232E+02  0.7816164E-02  0.1320468E+00
        -11   -1    0    0    0    0  0.00000000000E+00  0.00000000000E+00  0.45593999997E+02  0.45594000000E+02  0.51100000000E-03 0. -1.
         11   -1    0    0    0    0 -0.00000000000E+00 -0.00000000000E+00 -0.45593999997E+02  0.45594000000E+02  0.51100000000E-03 0.  1.
    9900012    2    1    2    0    0 -0.12934585720E+02 -0.41890949230E+02  0.10342063105E+02  0.46142318693E+02  0.10000008497E+02 0.  0.
         12    1    1    2    0    0  0.12934585720E+02  0.41890949230E+02 -0.10342063105E+02  0.45045681307E+02  0.00000000000E+00 0. -1.
         11    1    3    3    0    0 -0.22459936788E+01 -0.17838944437E+02  0.65183293803E+01  0.19124880245E+02  0.51100000000E-03 0. -1.
        -11    1    3    3    0    0 -0.84485882378E+01 -0.15604380318E+02  0.43226602090E+01  0.18263644759E+02  0.51100000000E-03 0.  1.
        -12    1    3    3    0    0 -0.22400038036E+01 -0.84476244754E+01 -0.49892648468E+00  0.87537936893E+01  0.00000000000E+00 0.  1.
</event>
<event>
 7    1  0.1541902E-008  0.4614232E+02  0.7816164E-02  0.1320468E+00
        -11   -1    0    0    0    0  0.00000000000E+00  0.00000000000E+00  0.45593999997E+02  0.45594000000E+02  0.51100000000E-03 0. -1.
         11   -1    0    0    0    0 -0.00000000000E+00 -0.00000000000E+00 -0.45593999997E+02  0.45594000000E+02  0.51100000000E-03 0.  1.
    9900012    2    1    2    0    0 -0.64828878772E+01  0.26700465488E+02 -0.35695528499E+02  0.46142318216E+02  0.10000004149E+02 0.  0.
         12    1    1    2    0    0  0.64828878772E+01 -0.26700465488E+02  0.35695528499E+02  0.45045681784E+02  0.00000000000E+00 0. -1.
         11    1    3    3    0    0  0.13587095121E+01  0.77485451570E+00 -0.11107572008E+01  0.19184037320E+01  0.51100000000E-03 0. -1.
        -11    1    3    3    0    0 -0.34556765840E+01  0.44952203634E+01 -0.77624927612E+01  0.96127519939E+01  0.51100000000E-03 0.  1.
        -12    1    3    3    0    0 -0.43859208054E+01  0.21430390609E+02 -0.26822278537E+02  0.34611162490E+02  0.00000000000E+00 0.  1.
</event>
<event>
 7    1  0.1541902E-008  0.4614232E+02  0.7816164E-02  0.1320468E+00
        -11   -1    0    0    0    0  0.00000000000E+00  0.00000000000E+00  0.45593999997E+02  0.45594000000E+02  0.51100000000E-03 0. -1.
         11   -1    0    0    0    0 -0.00000000000E+00 -0.00000000000E+00 -0.45593999997E+02  0.45594000000E+02  0.51100000000E-03 0.  1.
    9900012    2    1    2    0    0  0.58117286931E+01  0.23190325323E+02 -0.38177823179E+02  0.46142316948E+02  0.99999925821E+01 0.  0.
         12    1    1    2    0    0 -0.58117286931E+01 -0.23190325323E+02  0.38177823179E+02  0.45045683052E+02  0.00000000000E+00 0. -1.
         11    1    3    3    0    0 -0.63632868225E+00  0.17467712989E+00  0.22870731196E+00  0.69837925744E+00  0.51100000000E-03 0. -1.
        -11    1    3    3    0    0  0.44248204699E+01  0.87215856593E+01 -0.17289070599E+02  0.19863460299E+02  0.51100000000E-03 0.  1.
        -12    1    3    3    0    0  0.20232369054E+01  0.14294062534E+02 -0.21117459891E+02  0.25580477391E+02  0.00000000000E+00 0.  1.
</event>
<event>
 7    1  0.1541902E-008  0.4614232E+02  0.7816164E-02  0.1320468E+00
        -11   -1    0    0    0    0  0.00000000000E+00  0.00000000000E+00  0.45593999997E+02  0.45594000000E+02  0.51100000000E-03 0. -1.
         11   -1    0    0    0    0 -0.00000000000E+00 -0.00000000000E+00 -0.45593999997E+02  0.45594000000E+02  0.51100000000E-03 0.  1.
    9900012    2    1    2    0    0  0.39936885819E+02 -0.50349890881E+01 -0.20218987483E+02  0.46142318532E+02  0.10000007034E+02 0.  0.
         12    1    1    2    0    0 -0.39936885819E+02  0.50349890881E+01  0.20218987483E+02  0.45045681468E+02  0.00000000000E+00 0. -1.
         11    1    3    3    0    0  0.21175151932E+02  0.41401446602E+00 -0.14390113647E+02  0.25605347847E+02  0.51100000000E-03 0. -1.
        -11    1    3    3    0    0  0.83577226231E+01 -0.20689413373E+01 -0.13451184304E+01  0.87144356992E+01  0.51100000000E-03 0.  1.
         12    1    3    3    0    0  0.10404011264E+02 -0.33800622168E+01 -0.44837554057E+01  0.11822534986E+02  0.00000000000E+00 0. -1.
</event>
<event>
 7    1  0.1541902E-008  0.4614232E+02  0.7816164E-02  0.1320468E+00
        -11   -1    0    0    0    0  0.00000000000E+00  0.00000000000E+00  0.45593999997E+02  0.45594000000E+02  0.51100000000E-03 0. -1.
         11   -1    0    0    0    0 -0.00000000000E+00 -0.00000000000E+00 -0.45593999997E+02  0.45594000000E+02  0.51100000000E-03 0.  1.
    9900012    2    1    2    0    0  0.36287060215E+02 -0.26354559945E+02 -0.42189985047E+01  0.46142317439E+02  0.99999970653E+01 0.  0.
         12    1    1    2    0    0 -0.36287060215E+02  0.26354559945E+02  0.42189985047E+01  0.45045682561E+02  0.00000000000E+00 0. -1.
         11    1    3    3    0    0  0.19790019972E+01 -0.22103062721E+01  0.17456610680E+01  0.34422718583E+01  0.51100000000E-03 0. -1.
        -11    1    3    3    0    0  0.31724136975E+02 -0.20352695542E+02 -0.52038168870E+01  0.38049083998E+02  0.51100000000E-03 0.  1.
        -12    1    3    3    0    0  0.25839212434E+01 -0.37915581317E+01 -0.76084268565E+00  0.46509615834E+01  0.00000000000E+00 0.  1.
</event>
<event>
 7    1  0.1541902E-008  0.4614232E+02  0.7816164E-02  0.1320468E+00
        -11   -1    0    0    0    0  0.00000000000E+00  0.00000000000E+00  0.45593999997E+02  0.45594000000E+02  0.51100000000E-03 0.  1.
         11   -1    0    0    0    0 -0.00000000000E+00 -0.00000000000E+00 -0.45593999997E+02  0.45594000000E+02  0.51100000000E-03 0. -1.
    9900012    2    1    2    0    0  0.85127328176E+01 -0.39671449211E+02  0.19565862914E+02  0.46142317698E+02  0.99999994208E+01 0.  0.
         12    1    1    2    0    0 -0.85127328176E+01  0.39671449211E+02 -0.19565862914E+02  0.45045682302E+02  0.00000000000E+00 0. -1.
         11    1    3    3    0    0  0.25815162831E+01 -0.44178515296E+01 -0.27969331849E+00  0.51244382201E+01  0.51100000000E-03 0. -1.
        -11    1    3    3    0    0  0.42810555849E+01 -0.16131196810E+02  0.98080216744E+01  0.19358208514E+02  0.51100000000E-03 0.  1.
         12    1    3    3    0    0  0.16501609495E+01 -0.19122400872E+02  0.10037534558E+02  0.21659670964E+02  0.00000000000E+00 0. -1.
</event>
<event>
 7    1  0.1541902E-008  0.4614232E+02  0.7816164E-02  0.1320468E+00
        -11   -1    0    0    0    0  0.00000000000E+00  0.00000000000E+00  0.45593999997E+02  0.45594000000E+02  0.51100000000E-03 0.  1.
         11   -1    0    0    0    0 -0.00000000000E+00 -0.00000000000E+00 -0.45593999997E+02  0.45594000000E+02  0.51100000000E-03 0. -1.
    9900012    2    1    2    0    0 -0.23711542597E+02  0.66678391095E+01  0.37714934050E+02  0.46142316732E+02  0.99999906130E+01 0.  0.
         12    1    1    2    0    0  0.23711542597E+02 -0.66678391095E+01 -0.37714934050E+02  0.45045683268E+02  0.00000000000E+00 0. -1.
         11    1    3    3    0    0 -0.16179678640E+02  0.31588954311E+01  0.25901538455E+02  0.30702610896E+02  0.51100000000E-03 0.  1.
        -11    1    3    3    0    0  0.82829256302E+00  0.76950102260E+00  0.16096710641E+01  0.19670387870E+01  0.51100000000E-03 0. -1.
         12    1    3    3    0    0 -0.83601565198E+01  0.27394426557E+01  0.10203724531E+02  0.13472667048E+02  0.00000000000E+00 0. -1.
</event>
<event>
 7    1  0.1541902E-008  0.4614232E+02  0.7816164E-02  0.1320468E+00
        -11   -1    0    0    0    0  0.00000000000E+00  0.00000000000E+00  0.45593999997E+02  0.45594000000E+02  0.51100000000E-03 0. -1.
         11   -1    0    0    0    0 -0.00000000000E+00 -0.00000000000E+00 -0.45593999997E+02  0.45594000000E+02  0.51100000000E-03 0.  1.
    9900012    2    1    2    0    0 -0.17982932108E+02  0.32927217569E+02 -0.24930421714E+02  0.46142318399E+02  0.10000005819E+02 0.  0.
         12    1    1    2    0    0  0.17982932108E+02 -0.32927217569E+02  0.24930421714E+02  0.45045681601E+02  0.00000000000E+00 0. -1.
         11    1    3    3    0    0 -0.68300293998E+00  0.25437276821E+01 -0.32676111328E+00  0.26540189568E+01  0.51100000000E-03 0. -1.
        -11    1    3    3    0    0 -0.14996054653E+02  0.28468199072E+02 -0.19658771318E+02  0.37706594961E+02  0.51100000000E-03 0.  1.
        -12    1    3    3    0    0 -0.23038745152E+01  0.19152908145E+01 -0.49448892835E+01  0.57817044815E+01  0.00000000000E+00 0.  1.
</event>
<event>
 7    1  0.1541902E-008  0.4614232E+02  0.7816164E-02  0.1320468E+00
        -11   -1    0    0    0    0  0.00000000000E+00  0.00000000000E+00  0.45593999997E+02  0.45594000000E+02  0.51100000000E-03 0.  1.
         11   -1    0    0    0    0 -0.00000000000E+00 -0.00000000000E+00 -0.45593999997E+02  0.45594000000E+02  0.51100000000E-03 0. -1.
    9900012    2    1    2    0    0  0.43890982777E+02 -0.10096804267E+02  0.86585843800E+00  0.46142317228E+02  0.99999951385E+01 0.  0.
         12    1    1    2    0    0 -0.43890982777E+02  0.10096804267E+02 -0.86585843800E+00  0.45045682772E+02  0.00000000000E+00 0. -1.
         11    1    3    3    0    0  0.16471286127E+02 -0.34261266007E+01 -0.26057355023E+01  0.17024437375E+02  0.51100000000E-03 0. -1.
        -11    1    3    3    0    0  0.11221857130E+02 -0.53950966345E+01 -0.23026603029E+00  0.12453520299E+02  0.51100000000E-03 0.  1.
        -12    1    3    3    0    0  0.16197839520E+02 -0.12755810320E+01  0.37018599706E+01  0.16664359554E+02  0.00000000000E+00 0.  1.
</event>
<event>
 7    1  0.1541902E-008  0.4614232E+02  0.7816164E-02  0.1320468E+00
        -11   -1    0    0    0    0  0.00000000000E+00  0.00000000000E+00  0.45593999997E+02  0.45594000000E+02  0.51100000000E-03 0.  1.
         11   -1    0    0    0    0 -0.00000000000E+00 -0.00000000000E+00 -0.45593999997E+02  0.45594000000E+02  0.51100000000E-03 0. -1.
    9900012    2    1    2    0    0 -0.32099009128E+02  0.31363098154E+02  0.38888555893E+01  0.46142317514E+02  0.99999977481E+01 0.  0.
         12    1    1    2    0    0  0.32099009128E+02 -0.31363098154E+02 -0.38888555893E+01  0.45045682486E+02  0.00000000000E+00 0. -1.
         11    1    3    3    0    0  0.13750452834E+00  0.83093906784E+00 -0.57252849353E+00  0.10184087425E+01  0.51100000000E-03 0. -1.
        -11    1    3    3    0    0 -0.16602106292E+02  0.19595946059E+02  0.43175038368E+01  0.26043653256E+02  0.51100000000E-03 0.  1.
         12    1    3    3    0    0 -0.15634407365E+02  0.10936213027E+02  0.14388024610E+00  0.19080255516E+02  0.00000000000E+00 0. -1.
</event>
<event>
 7    1  0.1541902E-008  0.4614231E+02  0.7816164E-02  0.1320468E+00
        -11   -1    0    0    0    0  0.00000000000E+00  0.00000000000E+00  0.45593999997E+02  0.45594000000E+02  0.51100000000E-03 0.  1.
         11   -1    0    0    0    0 -0.00000000000E+00 -0.00000000000E+00 -0.45593999997E+02  0.45594000000E+02  0.51100000000E-03 0. -1.
    9900012    2    1    2    0    0  0.42836352377E+02  0.12250483703E+02 -0.66397571084E+01  0.46142314186E+02  0.99999674038E+01 0.  0.
         12    1    1    2    0    0 -0.42836352377E+02 -0.12250483703E+02  0.66397571084E+01  0.45045685814E+02  0.00000000000E+00 0. -1.
         11    1    3    3    0    0  0.30910740813E+02  0.13059187286E+02 -0.45838859981E+01  0.33867805971E+02  0.51100000000E-03 0. -1.
        -11    1    3    3    0    0  0.72070233470E+01 -0.99271265334E+00 -0.20272561426E+01  0.75522467958E+01  0.51100000000E-03 0.  1.
        -12    1    3    3    0    0  0.47185882168E+01  0.18400907111E+00 -0.28614967673E-01  0.47222614196E+01  0.00000000000E+00 0.  1.
</event>
<event>
 7    1  0.1541902E-008  0.4614232E+02  0.7816164E-02  0.1320468E+00
        -11   -1    0    0    0    0  0.00000000000E+00  0.00000000000E+00  0.45593999997E+02  0.45594000000E+02  0.51100000000E-03 0.  1.
         11   -1    0    0    0    0 -0.00000000000E+00 -0.00000000000E+00 -0.45593999997E+02  0.45594000000E+02  0.51100000000E-03 0. -1.
    9900012    2    1    2    0    0 -0.37734630271E+02 -0.22415512656E+02  0.10136867691E+02  0.46142316346E+02  0.99999870967E+01 0.  0.
         12    1    1    2    0    0  0.37734630271E+02  0.22415512656E+02 -0.10136867691E+02  0.45045683654E+02  0.00000000000E+00 0. -1.
         11    1    3    3    0    0 -0.57279434434E-01 -0.14744012628E+01  0.28082146080E-01  0.14757807715E+01  0.51100000000E-03 0. -1.
        -11    1    3    3    0    0 -0.58260009736E+01 -0.41591612834E+01  0.38388536206E+01  0.81226662684E+01  0.51100000000E-03 0.  1.
        -12    1    3    3    0    0 -0.31851349862E+02 -0.16781950109E+02  0.62699319239E+01  0.36543869306E+02  0.00000000000E+00 0.  1.
</event>
<event>
 7    1  0.1541902E-008  0.4614232E+02  0.7816164E-02  0.1320468E+00
        -11   -1    0    0    0    0  0.00000000000E+00  0.00000000000E+00  0.45593999997E+02  0.45594000000E+02  0.51100000000E-03 0.  1.
         11   -1    0    0    0    0 -0.00000000000E+00 -0.00000000000E+00 -0.45593999997E+02  0.45594000000E+02  0.51100000000E-03 0. -1.
    9900012    2    1    2    0    0 -0.16695248435E+02 -0.52542908458E+01  0.41506320143E+02  0.46142317583E+02  0.99999983782E+01 0.  0.
         12    1    1    2    0    0  0.16695248435E+02  0.52542908458E+01 -0.41506320143E+02  0.45045682417E+02  0.00000000000E+00 0. -1.
         11    1    3    3    0    0  0.12346122897E+01 -0.43155156760E+00  0.24813627735E+01  0.28049359594E+01  0.51100000000E-03 0. -1.
        -11    1    3    3    0    0 -0.17416926335E+02 -0.51730203805E+01  0.38236409769E+02  0.42333585899E+02  0.51100000000E-03 0.  1.
         12    1    3    3    0    0 -0.51293438952E+00  0.35028110227E+00  0.78854760031E+00  0.10037957245E+01  0.00000000000E+00 0. -1.
</event>
<event>
 7    1  0.1541902E-008  0.4614232E+02  0.7816164E-02  0.1320468E+00
        -11   -1    0    0    0    0  0.00000000000E+00  0.00000000000E+00  0.45593999997E+02  0.45594000000E+02  0.51100000000E-03 0.  1.
         11   -1    0    0    0    0 -0.00000000000E+00 -0.00000000000E+00 -0.45593999997E+02  0.45594000000E+02  0.51100000000E-03 0. -1.
    9900012    2    1    2    0    0  0.24968458489E+02  0.10779519696E+02  0.35909493570E+02  0.46142315494E+02  0.99999793250E+01 0.  0.
         12    1    1    2    0    0 -0.24968458489E+02 -0.10779519696E+02 -0.35909493570E+02  0.45045684506E+02  0.00000000000E+00 0. -1.
         11    1    3    3    0    0  0.26408251584E+01  0.21474038307E+01  0.11070881527E+02  0.11582301963E+02  0.51100000000E-03 0. -1.
        -11    1    3    3    0    0  0.81998911312E+01  0.42632322780E+01  0.94914794844E+01  0.13247699690E+02  0.51100000000E-03 0.  1.
        -12    1    3    3    0    0  0.14127742199E+02  0.43688835871E+01  0.15347132559E+02  0.21312313840E+02  0.00000000000E+00 0.  1.
</event>
<event>
 7    1  0.1541902E-008  0.4614232E+02  0.7816164E-02  0.1320468E+00
        -11   -1    0    0    0    0  0.00000000000E+00  0.00000000000E+00  0.45593999997E+02  0.45594000000E+02  0.51100000000E-03 0.  1.
         11   -1    0    0    0    0 -0.00000000000E+00 -0.00000000000E+00 -0.45593999997E+02  0.45594000000E+02  0.51100000000E-03 0. -1.
    9900012    2    1    2    0    0  0.19991500958E+02 -0.25785191589E+02  0.31057644393E+02  0.46142317731E+02  0.99999997226E+01 0.  0.
         12    1    1    2    0    0 -0.19991500958E+02  0.25785191589E+02 -0.31057644393E+02  0.45045682269E+02  0.00000000000E+00 0. -1.
         11    1    3    3    0    0  0.97248444899E+01 -0.16410053990E+02  0.21227423739E+02  0.28538850558E+02  0.51100000000E-03 0.  1.
        -11    1    3    3    0    0  0.71632454963E+01 -0.35475394215E+01  0.51109801907E+01  0.94878470034E+01  0.51100000000E-03 0. -1.
        -12    1    3    3    0    0  0.31034109713E+01 -0.58275981778E+01  0.47192404633E+01  0.81156201691E+01  0.00000000000E+00 0.  1.
</event>
<event>
 7    1  0.1541902E-008  0.4614232E+02  0.7816164E-02  0.1320468E+00
        -11   -1    0    0    0    0  0.00000000000E+00  0.00000000000E+00  0.45593999997E+02  0.45594000000E+02  0.51100000000E-03 0. -1.
         11   -1    0    0    0    0 -0.00000000000E+00 -0.00000000000E+00 -0.45593999997E+02  0.45594000000E+02  0.51100000000E-03 0.  1.
    9900012    2    1    2    0    0 -0.30579294359E+02 -0.40658054361E+01 -0.32825133739E+02  0.46142318495E+02  0.10000006690E+02 0.  0.
         12    1    1    2    0    0  0.30579294359E+02  0.40658054361E+01  0.32825133739E+02  0.45045681505E+02  0.00000000000E+00 0. -1.
         11    1    3    3    0    0  0.19023751838E+00 -0.12109232164E+01 -0.11164663982E+01  0.16580177408E+01  0.51100000000E-03 0. -1.
        -11    1    3    3    0    0 -0.24843141584E+02 -0.14559775889E+01 -0.23211151885E+02  0.34030267800E+02  0.51100000000E-03 0.  1.
         12    1    3    3    0    0 -0.59263902931E+01 -0.13989046308E+01 -0.84975154557E+01  0.10454032953E+02  0.00000000000E+00 0. -1.
</event>
<event>
 7    1  0.1541902E-008  0.4614232E+02  0.7816164E-02  0.1320468E+00
        -11   -1    0    0    0    0  0.00000000000E+00  0.00000000000E+00  0.45593999997E+02  0.45594000000E+02  0.51100000000E-03 0. -1.
         11   -1    0    0    0    0 -0.00000000000E+00 -0.00000000000E+00 -0.45593999997E+02  0.45594000000E+02  0.51100000000E-03 0.  1.
    9900012    2    1    2    0    0  0.35251776883E+02 -0.86609810453E+01 -0.26672328681E+02  0.46142317817E+02  0.10000000506E+02 0.  0.
         12    1    1    2    0    0 -0.35251776883E+02  0.86609810453E+01  0.26672328681E+02  0.45045682183E+02  0.00000000000E+00 0. -1.
         11    1    3    3    0    0  0.27236232030E+02 -0.92974290275E+01 -0.22303446679E+02  0.36410139463E+02  0.51100000000E-03 0.  1.
        -11    1    3    3    0    0  0.36611469108E+01  0.18733139809E+01 -0.15245002003E+01  0.43860464082E+01  0.51100000000E-03 0. -1.
         12    1    3    3    0    0  0.43543979424E+01 -0.12368659987E+01 -0.28443818022E+01  0.53461319453E+01  0.00000000000E+00 0. -1.
</event>
<event>
 7    1  0.1541902E-008  0.4614232E+02  0.7816164E-02  0.1320468E+00
        -11   -1    0    0    0    0  0.00000000000E+00  0.00000000000E+00  0.45593999997E+02  0.45594000000E+02  0.51100000000E-03 0. -1.
         11   -1    0    0    0    0 -0.00000000000E+00 -0.00000000000E+00 -0.45593999997E+02  0.45594000000E+02  0.51100000000E-03 0.  1.
    9900012    2    1    2    0    0 -0.20657638719E+02 -0.10054821199E+02 -0.38746302818E+02  0.46142318200E+02  0.10000004003E+02 0.  0.
         12    1    1    2    0    0  0.20657638719E+02  0.10054821199E+02  0.38746302818E+02  0.45045681800E+02  0.00000000000E+00 0. -1.
         11    1    3    3    0    0 -0.84812146176E+01 -0.59794047460E+01 -0.18740884970E+02  0.21422069280E+02  0.51100000000E-03 0. -1.
        -11    1    3    3    0    0 -0.44675049751E+01 -0.38463640935E+01 -0.13111688131E+02  0.14376003734E+02  0.51100000000E-03 0.  1.
         12    1    3    3    0    0 -0.77089191259E+01 -0.22905235921E+00 -0.68937297163E+01  0.10344245186E+02  0.00000000000E+00 0. -1.
</event>
<event>
 7    1  0.1541902E-008  0.4614232E+02  0.7816164E-02  0.1320468E+00
        -11   -1    0    0    0    0  0.00000000000E+00  0.00000000000E+00  0.45593999997E+02  0.45594000000E+02  0.51100000000E-03 0.  1.
         11   -1    0    0    0    0 -0.00000000000E+00 -0.00000000000E+00 -0.45593999997E+02  0.45594000000E+02  0.51100000000E-03 0. -1.
    9900012    2    1    2    0    0 -0.36419631257E+02  0.25287015948E+02  0.79555426355E+01  0.46142319019E+02  0.10000011470E+02 0.  0.
         12    1    1    2    0    0  0.36419631257E+02 -0.25287015948E+02 -0.79555426355E+01  0.45045680981E+02  0.00000000000E+00 0. -1.
         11    1    3    3    0    0 -0.49602868900E+01  0.52326940120E+01 -0.51584318525E+00  0.72285286959E+01  0.51100000000E-03 0. -1.
        -11    1    3    3    0    0 -0.25241642697E+02  0.19099341454E+02  0.64250488132E+01  0.32298709301E+02  0.51100000000E-03 0.  1.
        -12    1    3    3    0    0 -0.62177016698E+01  0.95498048143E+00  0.20463370076E+01  0.66150810217E+01  0.00000000000E+00 0.  1.
</event>
<event>
 7    1  0.1541902E-008  0.4614232E+02  0.7816164E-02  0.1320468E+00
        -11   -1    0    0    0    0  0.00000000000E+00  0.00000000000E+00  0.45593999997E+02  0.45594000000E+02  0.51100000000E-03 0.  1.
         11   -1    0    0    0    0 -0.00000000000E+00 -0.00000000000E+00 -0.45593999997E+02  0.45594000000E+02  0.51100000000E-03 0. -1.
    9900012    2    1    2    0    0  0.51249085267E+01 -0.43418954187E+02  0.10846344957E+02  0.46142317976E+02  0.10000001960E+02 0.  0.
         12    1    1    2    0    0 -0.51249085267E+01  0.43418954187E+02 -0.10846344957E+02  0.45045682024E+02  0.00000000000E+00 0. -1.
         11    1    3    3    0    0  0.36923589747E+01 -0.57408348753E+01  0.51026007770E+00  0.68447838148E+01  0.51100000000E-03 0. -1.
        -11    1    3    3    0    0 -0.66883549255E+00 -0.11411722306E+02  0.46489225982E+01  0.12340471162E+02  0.51100000000E-03 0.  1.
        -12    1    3    3    0    0  0.21013850445E+01 -0.26266397005E+02  0.56871622813E+01  0.26957062999E+02  0.00000000000E+00 0.  1.
</event>
<event>
 7    1  0.1541902E-008  0.4614232E+02  0.7816164E-02  0.1320468E+00
        -11   -1    0    0    0    0  0.00000000000E+00  0.00000000000E+00  0.45593999997E+02  0.45594000000E+02  0.51100000000E-03 0.  1.
         11   -1    0    0    0    0 -0.00000000000E+00 -0.00000000000E+00 -0.45593999997E+02  0.45594000000E+02  0.51100000000E-03 0. -1.
    9900012    2    1    2    0    0  0.16657782634E+02 -0.10753988269E+02  0.40447292785E+02  0.46142317858E+02  0.10000000885E+02 0.  0.
         12    1    1    2    0    0 -0.16657782634E+02  0.10753988269E+02 -0.40447292785E+02  0.45045682142E+02  0.00000000000E+00 0. -1.
         11    1    3    3    0    0  0.24960528078E+01  0.13021589277E+01  0.37762252282E+01  0.47101777809E+01  0.51100000000E-03 0. -1.
        -11    1    3    3    0    0  0.13142616033E+02 -0.12530708950E+02  0.34596241821E+02  0.39072329996E+02  0.51100000000E-03 0.  1.
        -12    1    3    3    0    0  0.10191137938E+01  0.47456175324E+00  0.20748257361E+01  0.23598100808E+01  0.00000000000E+00 0.  1.
</event>
<event>
 7    1  0.1541902E-008  0.4614231E+02  0.7816164E-02  0.1320468E+00
        -11   -1    0    0    0    0  0.00000000000E+00  0.00000000000E+00  0.45593999997E+02  0.45594000000E+02  0.51100000000E-03 0. -1.
         11   -1    0    0    0    0 -0.00000000000E+00 -0.00000000000E+00 -0.45593999997E+02  0.45594000000E+02  0.51100000000E-03 0.  1.
    9900012    2    1    2    0    0 -0.20566474916E+02 -0.13208098279E+02 -0.37837554259E+02  0.46142309163E+02  0.99999215955E+01 0.  0.
         12    1    1    2    0    0  0.20566474916E+02  0.13208098279E+02  0.37837554259E+02  0.45045690837E+02  0.00000000000E+00 0. -1.
         11    1    3    3    0    0 -0.76314142971E+01 -0.92348535864E+01 -0.13110860820E+02  0.17759945851E+02  0.51100000000E-03 0. -1.
        -11    1    3    3    0    0 -0.75908352818E+01 -0.19716167169E+01 -0.10935628636E+02  0.13457192378E+02  0.51100000000E-03 0.  1.
         12    1    3    3    0    0 -0.53442253374E+01 -0.20016279763E+01 -0.13791064803E+02  0.14925170934E+02  0.00000000000E+00 0. -1.
</event>
<event>
 7    1  0.1541902E-008  0.4614232E+02  0.7816164E-02  0.1320468E+00
        -11   -1    0    0    0    0  0.00000000000E+00  0.00000000000E+00  0.45593999997E+02  0.45594000000E+02  0.51100000000E-03 0. -1.
         11   -1    0    0    0    0 -0.00000000000E+00 -0.00000000000E+00 -0.45593999997E+02  0.45594000000E+02  0.51100000000E-03 0.  1.
    9900012    2    1    2    0    0 -0.26765413840E+02 -0.31438129529E+02 -0.18010278107E+02  0.46142317811E+02  0.10000000458E+02 0.  0.
         12    1    1    2    0    0  0.26765413840E+02  0.31438129529E+02  0.18010278107E+02  0.45045682189E+02  0.00000000000E+00 0. -1.
         11    1    3    3    0    0 -0.12169549659E+02 -0.15615694336E+02 -0.13967139406E+02  0.24228677883E+02  0.51100000000E-03 0. -1.
        -11    1    3    3    0    0 -0.12054510166E+02 -0.12691239258E+02 -0.33691718692E+01  0.17824984954E+02  0.51100000000E-03 0.  1.
         12    1    3    3    0    0 -0.25413540152E+01 -0.31311959344E+01 -0.67396683219E+00  0.40886549746E+01  0.00000000000E+00 0. -1.
</event>
<event>
 7    1  0.1541902E-008  0.4614232E+02  0.7816164E-02  0.1320468E+00
        -11   -1    0    0    0    0  0.00000000000E+00  0.00000000000E+00  0.45593999997E+02  0.45594000000E+02  0.51100000000E-03 0. -1.
         11   -1    0    0    0    0 -0.00000000000E+00 -0.00000000000E+00 -0.45593999997E+02  0.45594000000E+02  0.51100000000E-03 0.  1.
    9900012    2    1    2    0    0  0.18119218355E+02 -0.28460398837E+02 -0.29846493151E+02  0.46142317308E+02  0.99999958703E+01 0.  0.
         12    1    1    2    0    0 -0.18119218355E+02  0.28460398837E+02  0.29846493151E+02  0.45045682692E+02  0.00000000000E+00 0. -1.
         11    1    3    3    0    0  0.35129285036E+01 -0.10368494486E+02 -0.87765713426E+01  0.14031199142E+02  0.51100000000E-03 0. -1.
        -11    1    3    3    0    0  0.12874473601E+02 -0.14492740646E+02 -0.13730893095E+02  0.23755610440E+02  0.51100000000E-03 0.  1.
         12    1    3    3    0    0  0.17318162506E+01 -0.35991637053E+01 -0.73390287134E+01  0.83555077261E+01  0.00000000000E+00 0. -1.
</event>
<event>
 7    1  0.1541902E-008  0.4614232E+02  0.7816164E-02  0.1320468E+00
        -11   -1    0    0    0    0  0.00000000000E+00  0.00000000000E+00  0.45593999997E+02  0.45594000000E+02  0.51100000000E-03 0.  1.
         11   -1    0    0    0    0 -0.00000000000E+00 -0.00000000000E+00 -0.45593999997E+02  0.45594000000E+02  0.51100000000E-03 0. -1.
    9900012    2    1    2    0    0  0.30852870898E+02 -0.21675333457E+01  0.32749285611E+02  0.46142317061E+02  0.99999936141E+01 0.  0.
         12    1    1    2    0    0 -0.30852870898E+02  0.21675333457E+01 -0.32749285611E+02  0.45045682939E+02  0.00000000000E+00 0. -1.
         11    1    3    3    0    0  0.59248640949E+01  0.25458631651E+01  0.60070723605E+01  0.88130784862E+01  0.51100000000E-03 0. -1.
        -11    1    3    3    0    0  0.98592975542E+01 -0.23489970127E+01  0.14892503898E+02  0.18014166865E+02  0.51100000000E-03 0.  1.
        -12    1    3    3    0    0  0.15068709249E+02 -0.23643994980E+01  0.11849709352E+02  0.19315071709E+02  0.00000000000E+00 0.  1.
</event>
<event>
 7    1  0.1541902E-008  0.4614232E+02  0.7816164E-02  0.1320468E+00
        -11   -1    0    0    0    0  0.00000000000E+00  0.00000000000E+00  0.45593999997E+02  0.45594000000E+02  0.51100000000E-03 0.  1.
         11   -1    0    0    0    0 -0.00000000000E+00 -0.00000000000E+00 -0.45593999997E+02  0.45594000000E+02  0.51100000000E-03 0. -1.
    9900012    2    1    2    0    0 -0.16024368897E+01 -0.12114964514E+02  0.43356352303E+02  0.46142318141E+02  0.10000003463E+02 0.  0.
         12    1    1    2    0    0  0.16024368897E+01  0.12114964514E+02 -0.43356352303E+02  0.45045681859E+02  0.00000000000E+00 0. -1.
         11    1    3    3    0    0 -0.26904931211E+01 -0.52597595898E+01  0.10174989106E+02  0.11765807569E+02  0.51100000000E-03 0. -1.
        -11    1    3    3    0    0  0.28298518445E+01 -0.50121919774E+01  0.28260254497E+02  0.28840459677E+02  0.51100000000E-03 0.  1.
        -12    1    3    3    0    0 -0.17417956131E+01 -0.18430129472E+01  0.49211086990E+01  0.55360508947E+01  0.00000000000E+00 0.  1.
</event>
<event>
 7    1  0.1541902E-008  0.4614232E+02  0.7816164E-02  0.1320468E+00
        -11   -1    0    0    0    0  0.00000000000E+00  0.00000000000E+00  0.45593999997E+02  0.45594000000E+02  0.51100000000E-03 0.  1.
         11   -1    0    0    0    0 -0.00000000000E+00 -0.00000000000E+00 -0.45593999997E+02  0.45594000000E+02  0.51100000000E-03 0. -1.
    9900012    2    1    2    0    0 -0.13648854952E+02  0.43653597137E+01  0.42705571371E+02  0.46142318375E+02  0.10000005598E+02 0.  0.
         12    1    1    2    0    0  0.13648854952E+02 -0.43653597137E+01 -0.42705571371E+02  0.45045681625E+02  0.00000000000E+00 0. -1.
         11    1    3    3    0    0 -0.47036795099E+01 -0.10577595494E+01  0.16429057816E+02  0.17121839772E+02  0.51100000000E-03 0. -1.
        -11    1    3    3    0    0 -0.41811926370E+01  0.68769572584E+00  0.42863358113E+01  0.60272690522E+01  0.51100000000E-03 0.  1.
        -12    1    3    3    0    0 -0.47639828047E+01  0.47354235373E+01  0.21990177744E+02  0.22993209551E+02  0.00000000000E+00 0.  1.
</event>
<event>
 7    1  0.1541902E-008  0.4614231E+02  0.7816164E-02  0.1320468E+00
        -11   -1    0    0    0    0  0.00000000000E+00  0.00000000000E+00  0.45593999997E+02  0.45594000000E+02  0.51100000000E-03 0.  1.
         11   -1    0    0    0    0 -0.00000000000E+00 -0.00000000000E+00 -0.45593999997E+02  0.45594000000E+02  0.51100000000E-03 0. -1.
    9900012    2    1    2    0    0 -0.13078358365E+02 -0.32687081593E+02  0.28100266983E+02  0.46142314689E+02  0.99999719853E+01 0.  0.
         12    1    1    2    0    0  0.13078358365E+02  0.32687081593E+02 -0.28100266983E+02  0.45045685311E+02  0.00000000000E+00 0. -1.
         11    1    3    3    0    0 -0.43541415341E+01 -0.79385737211E+01  0.11727435418E+02  0.14815945565E+02  0.51100000000E-03 0. -1.
        -11    1    3    3    0    0 -0.74770202518E+01 -0.22374649200E+02  0.12740358362E+02  0.26811331375E+02  0.51100000000E-03 0.  1.
        -12    1    3    3    0    0 -0.12471965789E+01 -0.23738586726E+01  0.36324732034E+01  0.45150377493E+01  0.00000000000E+00 0.  1.
</event>
<event>
 7    1  0.1541902E-008  0.4614232E+02  0.7816164E-02  0.1320468E+00
        -11   -1    0    0    0    0  0.00000000000E+00  0.00000000000E+00  0.45593999997E+02  0.45594000000E+02  0.51100000000E-03 0. -1.
         11   -1    0    0    0    0 -0.00000000000E+00 -0.00000000000E+00 -0.45593999997E+02  0.45594000000E+02  0.51100000000E-03 0.  1.
    9900012    2    1    2    0    0  0.43158985140E+02 -0.52700217176E+01 -0.11774648916E+02  0.46142317806E+02  0.10000000411E+02 0.  0.
         12    1    1    2    0    0 -0.43158985140E+02  0.52700217176E+01  0.11774648916E+02  0.45045682194E+02  0.00000000000E+00 0. -1.
         11    1    3    3    0    0  0.20298959299E+01  0.13452291672E+01 -0.22237633036E+01  0.32977632556E+01  0.51100000000E-03 0. -1.
        -11    1    3    3    0    0  0.31474387351E+02 -0.56827817078E+01 -0.61728628439E+01  0.32573536851E+02  0.51100000000E-03 0.  1.
         12    1    3    3    0    0  0.96547018589E+01 -0.93246917703E+00 -0.33780227687E+01  0.10271017699E+02  0.00000000000E+00 0. -1.
</event>
<event>
 7    1  0.1541902E-008  0.4614232E+02  0.7816164E-02  0.1320468E+00
        -11   -1    0    0    0    0  0.00000000000E+00  0.00000000000E+00  0.45593999997E+02  0.45594000000E+02  0.51100000000E-03 0.  1.
         11   -1    0    0    0    0 -0.00000000000E+00 -0.00000000000E+00 -0.45593999997E+02  0.45594000000E+02  0.51100000000E-03 0. -1.
    9900012    2    1    2    0    0  0.37113087943E+02 -0.15699432370E+02 -0.20131066020E+02  0.46142319935E+02  0.10000019823E+02 0.  0.
         12    1    1    2    0    0 -0.37113087943E+02  0.15699432370E+02  0.20131066020E+02  0.45045680065E+02  0.00000000000E+00 0. -1.
         11    1    3    3    0    0  0.32802271194E+01 -0.18969362883E+01  0.80733863481E+00  0.38742809873E+01  0.51100000000E-03 0. -1.
        -11    1    3    3    0    0  0.54808544968E+01 -0.28195819331E+01 -0.50134351178E+01  0.79450827707E+01  0.51100000000E-03 0.  1.
         12    1    3    3    0    0  0.28352006327E+02 -0.10982914148E+02 -0.15924969537E+02  0.34322956177E+02  0.00000000000E+00 0. -1.
</event>
<event>
 7    1  0.1541902E-008  0.4614232E+02  0.7816164E-02  0.1320468E+00
        -11   -1    0    0    0    0  0.00000000000E+00  0.00000000000E+00  0.45593999997E+02  0.45594000000E+02  0.51100000000E-03 0.  1.
         11   -1    0    0    0    0 -0.00000000000E+00 -0.00000000000E+00 -0.45593999997E+02  0.45594000000E+02  0.51100000000E-03 0. -1.
    9900012    2    1    2    0    0 -0.64066999647E+01 -0.35670086296E+02  0.26752799074E+02  0.46142321860E+02  0.10000037376E+02 0.  0.
         12    1    1    2    0    0  0.64066999647E+01  0.35670086296E+02 -0.26752799074E+02  0.45045678140E+02  0.00000000000E+00 0. -1.
         11    1    3    3    0    0 -0.42828165672E+01 -0.87534931322E+01  0.11171336062E+02  0.14824469955E+02  0.51100000000E-03 0. -1.
        -11    1    3    3    0    0 -0.83544175119E+00 -0.22255717808E+02  0.13574599184E+02  0.26082267565E+02  0.51100000000E-03 0.  1.
         12    1    3    3    0    0 -0.12884416463E+01 -0.46608753561E+01  0.20068638284E+01  0.52355843405E+01  0.00000000000E+00 0. -1.
</event>
<event>
 7    1  0.1541902E-008  0.4614232E+02  0.7816164E-02  0.1320468E+00
        -11   -1    0    0    0    0  0.00000000000E+00  0.00000000000E+00  0.45593999997E+02  0.45594000000E+02  0.51100000000E-03 0.  1.
         11   -1    0    0    0    0 -0.00000000000E+00 -0.00000000000E+00 -0.45593999997E+02  0.45594000000E+02  0.51100000000E-03 0. -1.
    9900012    2    1    2    0    0 -0.36469741736E+02  0.76585131566E-01 -0.26439852329E+02  0.46142315204E+02  0.99999766845E+01 0.  0.
         12    1    1    2    0    0  0.36469741736E+02 -0.76585131566E-01  0.26439852329E+02  0.45045684796E+02  0.00000000000E+00 0. -1.
         11    1    3    3    0    0 -0.15252723133E+02 -0.64479480277E-01 -0.60901679222E+01  0.16423759197E+02  0.51100000000E-03 0. -1.
        -11    1    3    3    0    0 -0.14920466118E+01 -0.77486396980E+00 -0.58501080264E+00  0.17801278504E+01  0.51100000000E-03 0.  1.
         12    1    3    3    0    0 -0.19724971991E+02  0.91592858164E+00 -0.19764673604E+02  0.27938428157E+02  0.00000000000E+00 0. -1.
</event>
<event>
 7    1  0.1541902E-008  0.4614232E+02  0.7816164E-02  0.1320468E+00
        -11   -1    0    0    0    0  0.00000000000E+00  0.00000000000E+00  0.45593999997E+02  0.45594000000E+02  0.51100000000E-03 0.  1.
         11   -1    0    0    0    0 -0.00000000000E+00 -0.00000000000E+00 -0.45593999997E+02  0.45594000000E+02  0.51100000000E-03 0. -1.
    9900012    2    1    2    0    0 -0.25081749048E+02  0.30787884166E+02  0.21263245288E+02  0.46142317111E+02  0.99999940725E+01 0.  0.
         12    1    1    2    0    0  0.25081749048E+02 -0.30787884166E+02 -0.21263245288E+02  0.45045682889E+02  0.00000000000E+00 0. -1.
         11    1    3    3    0    0 -0.68688701278E+01  0.11663665239E+02  0.98016738763E+01  0.16712129567E+02  0.51100000000E-03 0. -1.
        -11    1    3    3    0    0 -0.66625648892E+01  0.10897675317E+02  0.38749667049E+01  0.13347826244E+02  0.51100000000E-03 0.  1.
        -12    1    3    3    0    0 -0.11550314031E+02  0.82265436100E+01  0.75866047072E+01  0.16082361299E+02  0.00000000000E+00 0.  1.
</event>
<event>
 7    1  0.1541902E-008  0.4614232E+02  0.7816164E-02  0.1320468E+00
        -11   -1    0    0    0    0  0.00000000000E+00  0.00000000000E+00  0.45593999997E+02  0.45594000000E+02  0.51100000000E-03 0.  1.
         11   -1    0    0    0    0 -0.00000000000E+00 -0.00000000000E+00 -0.45593999997E+02  0.45594000000E+02  0.51100000000E-03 0. -1.
    9900012    2    1    2    0    0  0.15240534309E+02 -0.12275312740E+02  0.40572853259E+02  0.46142316406E+02  0.99999876450E+01 0.  0.
         12    1    1    2    0    0 -0.15240534309E+02  0.12275312740E+02 -0.40572853259E+02  0.45045683594E+02  0.00000000000E+00 0. -1.
         11    1    3    3    0    0  0.11512402347E+00 -0.48049085234E+01  0.64518883274E+01  0.80453255192E+01  0.51100000000E-03 0. -1.
        -11    1    3    3    0    0  0.48472901141E+01 -0.17704347752E+01  0.11511711380E+02  0.12615473036E+02  0.51100000000E-03 0.  1.
         12    1    3    3    0    0  0.10278120172E+02 -0.56999694411E+01  0.22609253551E+02  0.25481517851E+02  0.00000000000E+00 0. -1.
</event>
<event>
 7    1  0.1541902E-008  0.4614232E+02  0.7816164E-02  0.1320468E+00
        -11   -1    0    0    0    0  0.00000000000E+00  0.00000000000E+00  0.45593999997E+02  0.45594000000E+02  0.51100000000E-03 0.  1.
         11   -1    0    0    0    0 -0.00000000000E+00 -0.00000000000E+00 -0.45593999997E+02  0.45594000000E+02  0.51100000000E-03 0. -1.
    9900012    2    1    2    0    0 -0.27390905045E+02 -0.35685337119E+02  0.23256294352E+01  0.46142317446E+02  0.99999971299E+01 0.  0.
         12    1    1    2    0    0  0.27390905045E+02  0.35685337119E+02 -0.23256294352E+01  0.45045682554E+02  0.00000000000E+00 0. -1.
         11    1    3    3    0    0 -0.31211995105E+01 -0.13126704807E+01 -0.10458739916E+01  0.35438457701E+01  0.51100000000E-03 0. -1.
        -11    1    3    3    0    0 -0.10664925605E+02 -0.16743005624E+02  0.42955685610E+01  0.20310607697E+02  0.51100000000E-03 0.  1.
         12    1    3    3    0    0 -0.13604779930E+02 -0.17629661014E+02 -0.92406513427E+00  0.22287863979E+02  0.00000000000E+00 0. -1.
</event>
<event>
 7    1  0.1541902E-008  0.4614232E+02  0.7816164E-02  0.1320468E+00
        -11   -1    0    0    0    0  0.00000000000E+00  0.00000000000E+00  0.45593999997E+02  0.45594000000E+02  0.51100000000E-03 0.  1.
         11   -1    0    0    0    0 -0.00000000000E+00 -0.00000000000E+00 -0.45593999997E+02  0.45594000000E+02  0.51100000000E-03 0. -1.
    9900012    2    1    2    0    0  0.19435341831E+02  0.16830150011E+02  0.36988201405E+02  0.46142317580E+02  0.99999983503E+01 0.  0.
         12    1    1    2    0    0 -0.19435341831E+02 -0.16830150011E+02 -0.36988201405E+02  0.45045682420E+02  0.00000000000E+00 0. -1.
         11    1    3    3    0    0  0.50451180402E+01  0.70995805179E+01  0.11844404452E+02  0.14701944655E+02  0.51100000000E-03 0. -1.
        -11    1    3    3    0    0  0.69266583161E+01  0.42894507367E+00  0.97416523556E+01  0.11960868705E+02  0.51100000000E-03 0.  1.
        -12    1    3    3    0    0  0.74635654747E+01  0.93016244196E+01  0.15402144598E+02  0.19479504220E+02  0.00000000000E+00 0.  1.
</event>
<event>
 7    1  0.1541902E-008  0.4614232E+02  0.7816164E-02  0.1320468E+00
        -11   -1    0    0    0    0  0.00000000000E+00  0.00000000000E+00  0.45593999997E+02  0.45594000000E+02  0.51100000000E-03 0. -1.
         11   -1    0    0    0    0 -0.00000000000E+00 -0.00000000000E+00 -0.45593999997E+02  0.45594000000E+02  0.51100000000E-03 0.  1.
    9900012    2    1    2    0    0  0.11267787756E+02 -0.14863653285E+02 -0.41002709752E+02  0.46142318332E+02  0.10000005210E+02 0.  0.
         12    1    1    2    0    0 -0.11267787756E+02  0.14863653285E+02  0.41002709752E+02  0.45045681668E+02  0.00000000000E+00 0. -1.
         11    1    3    3    0    0  0.87367501037E+01 -0.48347799494E+01 -0.18888163727E+02  0.21365126462E+02  0.51100000000E-03 0. -1.
        -11    1    3    3    0    0  0.91271264471E+00 -0.93505929028E+01 -0.18007466980E+02  0.20310969925E+02  0.51100000000E-03 0.  1.
        -12    1    3    3    0    0  0.16183250077E+01 -0.67828043272E+00 -0.41070790452E+01  0.44662219447E+01  0.00000000000E+00 0.  1.
</event>
<event>
 7    1  0.1541902E-008  0.4614232E+02  0.7816164E-02  0.1320468E+00
        -11   -1    0    0    0    0  0.00000000000E+00  0.00000000000E+00  0.45593999997E+02  0.45594000000E+02  0.51100000000E-03 0.  1.
         11   -1    0    0    0    0 -0.00000000000E+00 -0.00000000000E+00 -0.45593999997E+02  0.45594000000E+02  0.51100000000E-03 0. -1.
    9900012    2    1    2    0    0 -0.57139261560E+01  0.29893353168E+02  0.33209214878E+02  0.46142317981E+02  0.10000002008E+02 0.  0.
         12    1    1    2    0    0  0.57139261560E+01 -0.29893353168E+02 -0.33209214878E+02  0.45045682019E+02  0.00000000000E+00 0. -1.
         11    1    3    3    0    0 -0.43049131801E+01  0.89353218098E+01  0.13041887610E+02  0.16384843180E+02  0.51100000000E-03 0. -1.
        -11    1    3    3    0    0  0.68988202452E+00 -0.11792833406E+00  0.69812128522E+00  0.98854331707E+00  0.51100000000E-03 0.  1.
        -12    1    3    3    0    0 -0.20988950005E+01  0.21075959692E+02  0.19469205982E+02  0.28768931484E+02  0.00000000000E+00 0.  1.
</event>
<event>
 7    1  0.1541902E-008  0.4614232E+02  0.7816164E-02  0.1320468E+00
        -11   -1    0    0    0    0  0.00000000000E+00  0.00000000000E+00  0.45593999997E+02  0.45594000000E+02  0.51100000000E-03 0. -1.
         11   -1    0    0    0    0 -0.00000000000E+00 -0.00000000000E+00 -0.45593999997E+02  0.45594000000E+02  0.51100000000E-03 0.  1.
    9900012    2    1    2    0    0  0.28667262244E+02 -0.10978463603E+02 -0.32966268648E+02  0.46142318118E+02  0.10000003255E+02 0.  0.
         12    1    1    2    0    0 -0.28667262244E+02  0.10978463603E+02  0.32966268648E+02  0.45045681882E+02  0.00000000000E+00 0. -1.
         11    1    3    3    0    0  0.14898876255E+02 -0.46375068059E+01 -0.11867432128E+02  0.19604053883E+02  0.51100000000E-03 0.  1.
        -11    1    3    3    0    0  0.28552392246E+01  0.30831939428E+00 -0.17915247045E+01  0.33848209564E+01  0.51100000000E-03 0. -1.
         12    1    3    3    0    0  0.10913146764E+02 -0.66492761910E+01 -0.19307311815E+02  0.23153443279E+02  0.00000000000E+00 0. -1.
</event>
<event>
 7    1  0.1541902E-008  0.4614232E+02  0.7816164E-02  0.1320468E+00
        -11   -1    0    0    0    0  0.00000000000E+00  0.00000000000E+00  0.45593999997E+02  0.45594000000E+02  0.51100000000E-03 0.  1.
         11   -1    0    0    0    0 -0.00000000000E+00 -0.00000000000E+00 -0.45593999997E+02  0.45594000000E+02  0.51100000000E-03 0. -1.
    9900012    2    1    2    0    0  0.15502538233E+02 -0.12246398234E+02  0.40482221054E+02  0.46142321152E+02  0.10000030920E+02 0.  0.
         12    1    1    2    0    0 -0.15502538233E+02  0.12246398234E+02 -0.40482221054E+02  0.45045678848E+02  0.00000000000E+00 0. -1.
         11    1    3    3    0    0  0.31701733127E+01  0.44113982233E+00  0.32233863543E+01  0.45425568819E+01  0.51100000000E-03 0. -1.
        -11    1    3    3    0    0  0.87876301676E+01 -0.65606284756E+01  0.26939135011E+02  0.29085757431E+02  0.51100000000E-03 0.  1.
         12    1    3    3    0    0  0.35447347532E+01 -0.61269095809E+01  0.10319699690E+02  0.12514006839E+02  0.00000000000E+00 0. -1.
</event>
<event>
 7    1  0.1541902E-008  0.4614232E+02  0.7816164E-02  0.1320468E+00
        -11   -1    0    0    0    0  0.00000000000E+00  0.00000000000E+00  0.45593999997E+02  0.45594000000E+02  0.51100000000E-03 0.  1.
         11   -1    0    0    0    0 -0.00000000000E+00 -0.00000000000E+00 -0.45593999997E+02  0.45594000000E+02  0.51100000000E-03 0. -1.
    9900012    2    1    2    0    0  0.18184212247E+02 -0.41145432974E+02  0.23454737418E+01  0.46142317891E+02  0.10000001181E+02 0.  0.
         12    1    1    2    0    0 -0.18184212247E+02  0.41145432974E+02 -0.23454737418E+01  0.45045682109E+02  0.00000000000E+00 0. -1.
         11    1    3    3    0    0  0.60453529348E+00 -0.13378294872E+01 -0.13483135061E+01  0.19932887974E+01  0.51100000000E-03 0. -1.
        -11    1    3    3    0    0  0.99452900745E+01 -0.28934258707E+02  0.11203977626E+01  0.30616260598E+02  0.51100000000E-03 0.  1.
        -12    1    3    3    0    0  0.76343868790E+01 -0.10873344780E+02  0.25733894853E+01  0.13532768496E+02  0.00000000000E+00 0.  1.
</event>
<event>
 7    1  0.1541902E-008  0.4614232E+02  0.7816164E-02  0.1320468E+00
        -11   -1    0    0    0    0  0.00000000000E+00  0.00000000000E+00  0.45593999997E+02  0.45594000000E+02  0.51100000000E-03 0.  1.
         11   -1    0    0    0    0 -0.00000000000E+00 -0.00000000000E+00 -0.45593999997E+02  0.45594000000E+02  0.51100000000E-03 0. -1.
    9900012    2    1    2    0    0 -0.13074855784E+02 -0.21408133692E+02  0.37414612790E+02  0.46142319938E+02  0.10000019854E+02 0.  0.
         12    1    1    2    0    0  0.13074855784E+02  0.21408133692E+02 -0.37414612790E+02  0.45045680062E+02  0.00000000000E+00 0. -1.
         11    1    3    3    0    0 -0.51198702156E+01 -0.34173853820E+01  0.55551539068E+01  0.82916421210E+01  0.51100000000E-03 0. -1.
        -11    1    3    3    0    0 -0.71245584360E+01 -0.17677791573E+02  0.27871244270E+02  0.33764921223E+02  0.51100000000E-03 0.  1.
        -12    1    3    3    0    0 -0.83042713240E+00 -0.31295673742E+00  0.39882146137E+01  0.40857565941E+01  0.00000000000E+00 0.  1.
</event>
<event>
 7    1  0.1541902E-008  0.4614232E+02  0.7816164E-02  0.1320468E+00
        -11   -1    0    0    0    0  0.00000000000E+00  0.00000000000E+00  0.45593999997E+02  0.45594000000E+02  0.51100000000E-03 0.  1.
         11   -1    0    0    0    0 -0.00000000000E+00 -0.00000000000E+00 -0.45593999997E+02  0.45594000000E+02  0.51100000000E-03 0. -1.
    9900012    2    1    2    0    0  0.13101510288E+02  0.53862237694E+01  0.42760408159E+02  0.46142317807E+02  0.10000000416E+02 0.  0.
         12    1    1    2    0    0 -0.13101510288E+02 -0.53862237694E+01 -0.42760408159E+02  0.45045682193E+02  0.00000000000E+00 0. -1.
         11    1    3    3    0    0  0.10778616870E+02  0.60261217514E+01  0.30259252938E+02  0.32682030439E+02  0.51100000000E-03 0. -1.
        -11    1    3    3    0    0  0.23312980146E+00 -0.15179670749E+01  0.98639648386E+01  0.99828040221E+01  0.51100000000E-03 0.  1.
         12    1    3    3    0    0  0.20897636167E+01  0.87806909289E+00  0.26371903824E+01  0.34774833456E+01  0.00000000000E+00 0. -1.
</event>
<event>
 7    1  0.1541902E-008  0.4614232E+02  0.7816164E-02  0.1320468E+00
        -11   -1    0    0    0    0  0.00000000000E+00  0.00000000000E+00  0.45593999997E+02  0.45594000000E+02  0.51100000000E-03 0. -1.
         11   -1    0    0    0    0 -0.00000000000E+00 -0.00000000000E+00 -0.45593999997E+02  0.45594000000E+02  0.51100000000E-03 0.  1.
    9900012    2    1    2    0    0  0.29373589294E+02  0.31560325760E+02 -0.13048044634E+02  0.46142318976E+02  0.10000011081E+02 0.  0.
         12    1    1    2    0    0 -0.29373589294E+02 -0.31560325760E+02  0.13048044634E+02  0.45045681024E+02  0.00000000000E+00 0. -1.
         11    1    3    3    0    0  0.30644476990E+01  0.77314295646E+00 -0.19851147368E+01  0.37321937933E+01  0.51100000000E-03 0. -1.
        -11    1    3    3    0    0  0.20128579233E+02  0.19995981364E+02 -0.61016324969E+01  0.29021180060E+02  0.51100000000E-03 0.  1.
        -12    1    3    3    0    0  0.61805623614E+01  0.10791201440E+02 -0.49612974008E+01  0.13388945123E+02  0.00000000000E+00 0.  1.
</event>
<event>
 7    1  0.1541902E-008  0.4614232E+02  0.7816164E-02  0.1320468E+00
        -11   -1    0    0    0    0  0.00000000000E+00  0.00000000000E+00  0.45593999997E+02  0.45594000000E+02  0.51100000000E-03 0.  1.
         11   -1    0    0    0    0 -0.00000000000E+00 -0.00000000000E+00 -0.45593999997E+02  0.45594000000E+02  0.51100000000E-03 0. -1.
    9900012    2    1    2    0    0 -0.26154815637E+02  0.21741219376E+02  0.29535716194E+02  0.46142317276E+02  0.99999955754E+01 0.  0.
         12    1    1    2    0    0  0.26154815637E+02 -0.21741219376E+02 -0.29535716194E+02  0.45045682724E+02  0.00000000000E+00 0. -1.
         11    1    3    3    0    0  0.24067138365E+00  0.18148256847E+01  0.16870586365E+01  0.24895144275E+01  0.51100000000E-03 0. -1.
        -11    1    3    3    0    0 -0.26618841305E+02  0.19926378213E+02  0.27920022322E+02  0.43418324563E+02  0.51100000000E-03 0.  1.
        -12    1    3    3    0    0  0.22335428470E+00  0.15478390864E-04 -0.71364764266E-01  0.23447828537E+00  0.00000000000E+00 0.  1.
</event>
<event>
 7    1  0.1541902E-008  0.4614232E+02  0.7816164E-02  0.1320468E+00
        -11   -1    0    0    0    0  0.00000000000E+00  0.00000000000E+00  0.45593999997E+02  0.45594000000E+02  0.51100000000E-03 0.  1.
         11   -1    0    0    0    0 -0.00000000000E+00 -0.00000000000E+00 -0.45593999997E+02  0.45594000000E+02  0.51100000000E-03 0. -1.
    9900012    2    1    2    0    0  0.12329093013E+02  0.42709745021E+02  0.72790560218E+01  0.46142317512E+02  0.99999977247E+01 0.  0.
         12    1    1    2    0    0 -0.12329093013E+02 -0.42709745021E+02 -0.72790560218E+01  0.45045682488E+02  0.00000000000E+00 0. -1.
         11    1    3    3    0    0 -0.58842644324E+00  0.17427413859E+01 -0.38684384636E+00  0.18796386993E+01  0.51100000000E-03 0. -1.
        -11    1    3    3    0    0  0.81872229515E+01  0.34097955558E+02  0.77882162117E+01  0.35921546527E+02  0.51100000000E-03 0.  1.
        -12    1    3    3    0    0  0.47302965048E+01  0.68690480773E+01 -0.12231634357E+00  0.83411322852E+01  0.00000000000E+00 0.  1.
</event>
<event>
 7    1  0.1541902E-008  0.4614232E+02  0.7816164E-02  0.1320468E+00
        -11   -1    0    0    0    0  0.00000000000E+00  0.00000000000E+00  0.45593999997E+02  0.45594000000E+02  0.51100000000E-03 0.  1.
         11   -1    0    0    0    0 -0.00000000000E+00 -0.00000000000E+00 -0.45593999997E+02  0.45594000000E+02  0.51100000000E-03 0. -1.
    9900012    2    1    2    0    0  0.18947610256E+02  0.87135052073E+01  0.39927137631E+02  0.46142318444E+02  0.10000006230E+02 0.  0.
         12    1    1    2    0    0 -0.18947610256E+02 -0.87135052073E+01 -0.39927137631E+02  0.45045681556E+02  0.00000000000E+00 0. -1.
         11    1    3    3    0    0  0.17536981699E+01  0.15808097889E+01  0.11368772491E+01  0.26204783916E+01  0.51100000000E-03 0. -1.
        -11    1    3    3    0    0  0.16841664906E+02  0.80971933798E+01  0.36284565349E+02  0.40813917972E+02  0.51100000000E-03 0.  1.
        -12    1    3    3    0    0  0.35224717911E+00 -0.96449796145E+00  0.25056950335E+01  0.27079220805E+01  0.00000000000E+00 0.  1.
</event>
<event>
 7    1  0.1541902E-008  0.4614232E+02  0.7816164E-02  0.1320468E+00
        -11   -1    0    0    0    0  0.00000000000E+00  0.00000000000E+00  0.45593999997E+02  0.45594000000E+02  0.51100000000E-03 0.  1.
         11   -1    0    0    0    0 -0.00000000000E+00 -0.00000000000E+00 -0.45593999997E+02  0.45594000000E+02  0.51100000000E-03 0. -1.
    9900012    2    1    2    0    0 -0.94579218859E+01 -0.28265638785E+02  0.33774474067E+02  0.46142315180E+02  0.99999764661E+01 0.  0.
         12    1    1    2    0    0  0.94579218859E+01  0.28265638785E+02 -0.33774474067E+02  0.45045684820E+02  0.00000000000E+00 0. -1.
         11    1    3    3    0    0 -0.41897864968E+01 -0.11238389979E+02  0.89979500539E+01  0.14993959639E+02  0.51100000000E-03 0. -1.
        -11    1    3    3    0    0 -0.17825784507E+01 -0.11503548904E+02  0.19674542915E+02  0.22860377567E+02  0.51100000000E-03 0.  1.
         12    1    3    3    0    0 -0.34855569384E+01 -0.55236999022E+01  0.51019810980E+01  0.82879779744E+01  0.00000000000E+00 0. -1.
</event>
<event>
 7    1  0.1541902E-008  0.4614232E+02  0.7816164E-02  0.1320468E+00
        -11   -1    0    0    0    0  0.00000000000E+00  0.00000000000E+00  0.45593999997E+02  0.45594000000E+02  0.51100000000E-03 0.  1.
         11   -1    0    0    0    0 -0.00000000000E+00 -0.00000000000E+00 -0.45593999997E+02  0.45594000000E+02  0.51100000000E-03 0. -1.
    9900012    2    1    2    0    0 -0.12059498391E+02  0.65305041922E+01  0.42907276524E+02  0.46142319129E+02  0.10000012472E+02 0.  0.
         12    1    1    2    0    0  0.12059498391E+02 -0.65305041922E+01 -0.42907276524E+02  0.45045680871E+02  0.00000000000E+00 0. -1.
         11    1    3    3    0    0 -0.40874311526E+01  0.17764143371E+01  0.51042945255E+01  0.67761762217E+01  0.51100000000E-03 0. -1.
        -11    1    3    3    0    0 -0.14356125301E+01 -0.13826117600E+01  0.79372637124E+01  0.81836882954E+01  0.51100000000E-03 0.  1.
        -12    1    3    3    0    0 -0.65364547079E+01  0.61367016151E+01  0.29865718286E+02  0.31182454612E+02  0.00000000000E+00 0.  1.
</event>
<event>
 7    1  0.1541902E-008  0.4614232E+02  0.7816164E-02  0.1320468E+00
        -11   -1    0    0    0    0  0.00000000000E+00  0.00000000000E+00  0.45593999997E+02  0.45594000000E+02  0.51100000000E-03 0.  1.
         11   -1    0    0    0    0 -0.00000000000E+00 -0.00000000000E+00 -0.45593999997E+02  0.45594000000E+02  0.51100000000E-03 0. -1.
    9900012    2    1    2    0    0  0.17354419035E+02  0.25602814511E+02  0.32748030997E+02  0.46142317575E+02  0.99999983026E+01 0.  0.
         12    1    1    2    0    0 -0.17354419035E+02 -0.25602814511E+02 -0.32748030997E+02  0.45045682425E+02  0.00000000000E+00 0. -1.
         11    1    3    3    0    0  0.43526140489E+01  0.31966082372E+01  0.93509338785E+01  0.10798310884E+02  0.51100000000E-03 0. -1.
        -11    1    3    3    0    0  0.12748480834E+02  0.20554418243E+02  0.19673998310E+02  0.31178102614E+02  0.51100000000E-03 0.  1.
        -12    1    3    3    0    0  0.25332415307E+00  0.18517880309E+01  0.37230988088E+01  0.41659040769E+01  0.00000000000E+00 0.  1.
</event>
<event>
 7    1  0.1541902E-008  0.4614232E+02  0.7816164E-02  0.1320468E+00
        -11   -1    0    0    0    0  0.00000000000E+00  0.00000000000E+00  0.45593999997E+02  0.45594000000E+02  0.51100000000E-03 0. -1.
         11   -1    0    0    0    0 -0.00000000000E+00 -0.00000000000E+00 -0.45593999997E+02  0.45594000000E+02  0.51100000000E-03 0.  1.
    9900012    2    1    2    0    0  0.27823205330E+02  0.31210768677E+02 -0.16759198053E+02  0.46142317015E+02  0.99999931922E+01 0.  0.
         12    1    1    2    0    0 -0.27823205330E+02 -0.31210768677E+02  0.16759198053E+02  0.45045682985E+02  0.00000000000E+00 0. -1.
         11    1    3    3    0    0  0.14363223078E+02  0.96671175174E+01 -0.62809399826E+01  0.18417533647E+02  0.51100000000E-03 0. -1.
        -11    1    3    3    0    0  0.93328525364E+01  0.14660037203E+02 -0.52826742211E+01  0.18163850761E+02  0.51100000000E-03 0.  1.
         12    1    3    3    0    0  0.41271297150E+01  0.68836139566E+01 -0.51955838493E+01  0.95609326074E+01  0.00000000000E+00 0. -1.
</event>
<event>
 7    1  0.1541902E-008  0.4614232E+02  0.7816164E-02  0.1320468E+00
        -11   -1    0    0    0    0  0.00000000000E+00  0.00000000000E+00  0.45593999997E+02  0.45594000000E+02  0.51100000000E-03 0. -1.
         11   -1    0    0    0    0 -0.00000000000E+00 -0.00000000000E+00 -0.45593999997E+02  0.45594000000E+02  0.51100000000E-03 0.  1.
    9900012    2    1    2    0    0  0.24344714570E+02  0.34726738667E+02  0.15182293970E+02  0.46142317009E+02  0.99999931454E+01 0.  0.
         12    1    1    2    0    0 -0.24344714570E+02 -0.34726738667E+02 -0.15182293970E+02  0.45045682991E+02  0.00000000000E+00 0. -1.
         11    1    3    3    0    0  0.58692896604E+01  0.60358541880E+01  0.17592894410E+01  0.86008834717E+01  0.51100000000E-03 0. -1.
        -11    1    3    3    0    0  0.71900297047E+01  0.61395710960E+01  0.12413525297E+01  0.95358175717E+01  0.51100000000E-03 0.  1.
        -12    1    3    3    0    0  0.11285395205E+02  0.22551313383E+02  0.12181651999E+02  0.28005615966E+02  0.00000000000E+00 0.  1.
</event>
<event>
 7    1  0.1541902E-008  0.4614232E+02  0.7816164E-02  0.1320468E+00
        -11   -1    0    0    0    0  0.00000000000E+00  0.00000000000E+00  0.45593999997E+02  0.45594000000E+02  0.51100000000E-03 0.  1.
         11   -1    0    0    0    0 -0.00000000000E+00 -0.00000000000E+00 -0.45593999997E+02  0.45594000000E+02  0.51100000000E-03 0. -1.
    9900012    2    1    2    0    0 -0.11932680867E+02 -0.42545972458E+02  0.87501353581E+01  0.46142317478E+02  0.99999974171E+01 0.  0.
         12    1    1    2    0    0  0.11932680867E+02  0.42545972458E+02 -0.87501353581E+01  0.45045682522E+02  0.00000000000E+00 0. -1.
         11    1    3    3    0    0 -0.11055076640E+01 -0.75185105212E+01  0.11252130454E+01  0.76822036104E+01  0.51100000000E-03 0. -1.
        -11    1    3    3    0    0 -0.98515472822E+01 -0.17112632102E+02  0.35624037851E+01  0.20064542913E+02  0.51100000000E-03 0.  1.
        -12    1    3    3    0    0 -0.97562592067E+00 -0.17914829835E+02  0.40625185276E+01  0.18395570955E+02  0.00000000000E+00 0.  1.
</event>
<event>
 7    1  0.1541902E-008  0.4614232E+02  0.7816164E-02  0.1320468E+00
        -11   -1    0    0    0    0  0.00000000000E+00  0.00000000000E+00  0.45593999997E+02  0.45594000000E+02  0.51100000000E-03 0.  1.
         11   -1    0    0    0    0 -0.00000000000E+00 -0.00000000000E+00 -0.45593999997E+02  0.45594000000E+02  0.51100000000E-03 0. -1.
    9900012    2    1    2    0    0  0.40620176816E+02  0.22911655836E+00  0.19469526581E+02  0.46142315143E+02  0.99999761275E+01 0.  0.
         12    1    1    2    0    0 -0.40620176816E+02 -0.22911655836E+00 -0.19469526581E+02  0.45045684857E+02  0.00000000000E+00 0. -1.
         11    1    3    3    0    0  0.21535723953E+02  0.41246400737E+01  0.10125819725E+02  0.24152272921E+02  0.51100000000E-03 0. -1.
        -11    1    3    3    0    0  0.11609025148E+02 -0.30658652712E+01  0.36274071698E+01  0.12543009120E+02  0.51100000000E-03 0.  1.
         12    1    3    3    0    0  0.74754277151E+01 -0.82965824411E+00  0.57162996864E+01  0.94470331020E+01  0.00000000000E+00 0. -1.
</event>
<event>
 7    1  0.1541902E-008  0.4614232E+02  0.7816164E-02  0.1320468E+00
        -11   -1    0    0    0    0  0.00000000000E+00  0.00000000000E+00  0.45593999997E+02  0.45594000000E+02  0.51100000000E-03 0.  1.
         11   -1    0    0    0    0 -0.00000000000E+00 -0.00000000000E+00 -0.45593999997E+02  0.45594000000E+02  0.51100000000E-03 0. -1.
    9900012    2    1    2    0    0 -0.74508330842E+01  0.76224677112E+00  0.44418663302E+02  0.46142316707E+02  0.99999903887E+01 0.  0.
         12    1    1    2    0    0  0.74508330842E+01 -0.76224677112E+00 -0.44418663302E+02  0.45045683293E+02  0.00000000000E+00 0. -1.
         11    1    3    3    0    0 -0.17394906545E+01 -0.84564505025E+00  0.47600858606E+01  0.51380308436E+01  0.51100000000E-03 0. -1.
        -11    1    3    3    0    0 -0.69881478764E+00  0.44352494373E+01  0.13760679640E+02  0.14474670431E+02  0.51100000000E-03 0.  1.
        -12    1    3    3    0    0 -0.50125276421E+01 -0.28273576160E+01  0.25897897802E+02  0.26529615432E+02  0.00000000000E+00 0.  1.
</event>
<event>
 7    1  0.1541902E-008  0.4614232E+02  0.7816164E-02  0.1320468E+00
        -11   -1    0    0    0    0  0.00000000000E+00  0.00000000000E+00  0.45593999997E+02  0.45594000000E+02  0.51100000000E-03 0.  1.
         11   -1    0    0    0    0 -0.00000000000E+00 -0.00000000000E+00 -0.45593999997E+02  0.45594000000E+02  0.51100000000E-03 0. -1.
    9900012    2    1    2    0    0 -0.35392483930E+02  0.27730479623E+02 -0.27397206827E+01  0.46142317762E+02  0.10000000013E+02 0.  0.
         12    1    1    2    0    0  0.35392483930E+02 -0.27730479623E+02  0.27397206827E+01  0.45045682238E+02  0.00000000000E+00 0. -1.
         11    1    3    3    0    0 -0.29980588350E+01  0.21153291625E+01  0.17793713923E+01  0.40778838944E+01  0.51100000000E-03 0. -1.
        -11    1    3    3    0    0 -0.21945677041E+02  0.18248202403E+02 -0.60891957852E+01  0.29183693003E+02  0.51100000000E-03 0.  1.
        -12    1    3    3    0    0 -0.10448748054E+02  0.73669480572E+01  0.15701037102E+01  0.12880740865E+02  0.00000000000E+00 0.  1.
</event>
<event>
 7    1  0.1541902E-008  0.4614232E+02  0.7816164E-02  0.1320468E+00
        -11   -1    0    0    0    0  0.00000000000E+00  0.00000000000E+00  0.45593999997E+02  0.45594000000E+02  0.51100000000E-03 0. -1.
         11   -1    0    0    0    0 -0.00000000000E+00 -0.00000000000E+00 -0.45593999997E+02  0.45594000000E+02  0.51100000000E-03 0.  1.
    9900012    2    1    2    0    0  0.14961702231E+02  0.41368115942E+02 -0.96922643196E+01  0.46142317211E+02  0.99999949878E+01 0.  0.
         12    1    1    2    0    0 -0.14961702231E+02 -0.41368115942E+02  0.96922643196E+01  0.45045682789E+02  0.00000000000E+00 0. -1.
         11    1    3    3    0    0  0.15340147086E+01  0.82908815046E+01 -0.50823477477E+01  0.98449061011E+01  0.51100000000E-03 0. -1.
        -11    1    3    3    0    0  0.48758722006E+01  0.90590588960E+01 -0.31546429434E+01  0.10760690041E+02  0.51100000000E-03 0.  1.
         12    1    3    3    0    0  0.85518153216E+01  0.24018175542E+02 -0.14552736285E+01  0.25536721069E+02  0.00000000000E+00 0. -1.
</event>
<event>
 7    1  0.1541902E-008  0.4614232E+02  0.7816164E-02  0.1320468E+00
        -11   -1    0    0    0    0  0.00000000000E+00  0.00000000000E+00  0.45593999997E+02  0.45594000000E+02  0.51100000000E-03 0.  1.
         11   -1    0    0    0    0 -0.00000000000E+00 -0.00000000000E+00 -0.45593999997E+02  0.45594000000E+02  0.51100000000E-03 0. -1.
    9900012    2    1    2    0    0  0.10321742346E+02 -0.27744050676E+02  0.33953538003E+02  0.46142318121E+02  0.10000003286E+02 0.  0.
         12    1    1    2    0    0 -0.10321742346E+02  0.27744050676E+02 -0.33953538003E+02  0.45045681879E+02  0.00000000000E+00 0. -1.
         11    1    3    3    0    0  0.72681050214E+01 -0.11124479126E+02  0.16842717690E+02  0.21453590047E+02  0.51100000000E-03 0. -1.
        -11    1    3    3    0    0  0.44688559437E+01 -0.10286742458E+02  0.12030715326E+02  0.16447670211E+02  0.51100000000E-03 0.  1.
         12    1    3    3    0    0 -0.14152186189E+01 -0.63328290913E+01  0.50801049863E+01  0.82410578635E+01  0.00000000000E+00 0. -1.
</event>
<event>
 7    1  0.1541902E-008  0.4614232E+02  0.7816164E-02  0.1320468E+00
        -11   -1    0    0    0    0  0.00000000000E+00  0.00000000000E+00  0.45593999997E+02  0.45594000000E+02  0.51100000000E-03 0.  1.
         11   -1    0    0    0    0 -0.00000000000E+00 -0.00000000000E+00 -0.45593999997E+02  0.45594000000E+02  0.51100000000E-03 0. -1.
    9900012    2    1    2    0    0 -0.27503403825E+02 -0.96234494432E+01  0.34352081362E+02  0.46142317687E+02  0.99999993228E+01 0.  0.
         12    1    1    2    0    0  0.27503403825E+02  0.96234494432E+01 -0.34352081362E+02  0.45045682313E+02  0.00000000000E+00 0. -1.
         11    1    3    3    0    0 -0.37686992837E+00  0.84135064879E+00  0.20812574606E+01  0.22762984724E+01  0.51100000000E-03 0. -1.
        -11    1    3    3    0    0 -0.15152346392E+02 -0.31213582208E+01  0.19410667512E+02  0.24821573114E+02  0.51100000000E-03 0.  1.
        -12    1    3    3    0    0 -0.11974187505E+02 -0.73434418712E+01  0.12860156389E+02  0.19044446101E+02  0.00000000000E+00 0.  1.
</event>
<event>
 7    1  0.1541902E-008  0.4614232E+02  0.7816164E-02  0.1320468E+00
        -11   -1    0    0    0    0  0.00000000000E+00  0.00000000000E+00  0.45593999997E+02  0.45594000000E+02  0.51100000000E-03 0. -1.
         11   -1    0    0    0    0 -0.00000000000E+00 -0.00000000000E+00 -0.45593999997E+02  0.45594000000E+02  0.51100000000E-03 0.  1.
    9900012    2    1    2    0    0 -0.34438817422E+02 -0.27566308375E+02 -0.91203080217E+01  0.46142317396E+02  0.99999966718E+01 0.  0.
         12    1    1    2    0    0  0.34438817422E+02  0.27566308375E+02  0.91203080217E+01  0.45045682604E+02  0.00000000000E+00 0. -1.
         11    1    3    3    0    0 -0.82540132740E+00  0.38348699421E+00  0.37666891296E+00  0.98500221173E+00  0.51100000000E-03 0. -1.
        -11    1    3    3    0    0 -0.28366118341E+02 -0.26090774555E+02 -0.89313654817E+01  0.39561780499E+02  0.51100000000E-03 0.  1.
        -12    1    3    3    0    0 -0.52472977536E+01 -0.18590208143E+01 -0.56561145294E+00  0.55955346857E+01  0.00000000000E+00 0.  1.
</event>
<event>
 7    1  0.1541902E-008  0.4614232E+02  0.7816164E-02  0.1320468E+00
        -11   -1    0    0    0    0  0.00000000000E+00  0.00000000000E+00  0.45593999997E+02  0.45594000000E+02  0.51100000000E-03 0. -1.
         11   -1    0    0    0    0 -0.00000000000E+00 -0.00000000000E+00 -0.45593999997E+02  0.45594000000E+02  0.51100000000E-03 0.  1.
    9900012    2    1    2    0    0 -0.12249242777E+00 -0.23517329669E+02 -0.38419184506E+02  0.46142317219E+02  0.99999950540E+01 0.  0.
         12    1    1    2    0    0  0.12249242777E+00  0.23517329669E+02  0.38419184506E+02  0.45045682781E+02  0.00000000000E+00 0. -1.
         11    1    3    3    0    0  0.12479366365E+01 -0.11710951848E+02 -0.21210061010E+02  0.24260470468E+02  0.51100000000E-03 0.  1.
        -11    1    3    3    0    0 -0.14597195840E+01 -0.67891730443E+01 -0.46501259196E+01  0.83574711018E+01  0.51100000000E-03 0. -1.
         12    1    3    3    0    0  0.89290519694E-01 -0.50172047770E+01 -0.12558997576E+02  0.13524375649E+02  0.00000000000E+00 0. -1.
</event>
<event>
 7    1  0.1541902E-008  0.4614232E+02  0.7816164E-02  0.1320468E+00
        -11   -1    0    0    0    0  0.00000000000E+00  0.00000000000E+00  0.45593999997E+02  0.45594000000E+02  0.51100000000E-03 0. -1.
         11   -1    0    0    0    0 -0.00000000000E+00 -0.00000000000E+00 -0.45593999997E+02  0.45594000000E+02  0.51100000000E-03 0.  1.
    9900012    2    1    2    0    0 -0.67635815863E+01 -0.44298864813E+02 -0.45801179519E+01  0.46142323847E+02  0.10000055497E+02 0.  0.
         12    1    1    2    0    0  0.67635815863E+01  0.44298864813E+02  0.45801179519E+01  0.45045676153E+02  0.00000000000E+00 0. -1.
         11    1    3    3    0    0 -0.30550762687E+01 -0.27532784628E+02 -0.73770573299E+01  0.28667205924E+02  0.51100000000E-03 0.  1.
        -11    1    3    3    0    0 -0.16776135615E+01 -0.53849613194E+01  0.15361199667E+01  0.58456702342E+01  0.51100000000E-03 0. -1.
        -12    1    3    3    0    0 -0.20308917560E+01 -0.11381118865E+02  0.12608194114E+01  0.11629447689E+02  0.00000000000E+00 0.  1.
</event>
<event>
 7    1  0.1541902E-008  0.4614232E+02  0.7816164E-02  0.1320468E+00
        -11   -1    0    0    0    0  0.00000000000E+00  0.00000000000E+00  0.45593999997E+02  0.45594000000E+02  0.51100000000E-03 0.  1.
         11   -1    0    0    0    0 -0.00000000000E+00 -0.00000000000E+00 -0.45593999997E+02  0.45594000000E+02  0.51100000000E-03 0. -1.
    9900012    2    1    2    0    0  0.49249140023E+01  0.13378634057E+02  0.42730210031E+02  0.46142317893E+02  0.10000001206E+02 0.  0.
         12    1    1    2    0    0 -0.49249140023E+01 -0.13378634057E+02 -0.42730210031E+02  0.45045682107E+02  0.00000000000E+00 0. -1.
         11    1    3    3    0    0 -0.21142263817E+01  0.75528371338E+01  0.14767837494E+02  0.16721373343E+02  0.51100000000E-03 0. -1.
        -11    1    3    3    0    0  0.42499819111E+01  0.36527882692E+01  0.16507684118E+02  0.17432981489E+02  0.51100000000E-03 0.  1.
         12    1    3    3    0    0  0.27891584729E+01  0.21730086543E+01  0.11454688419E+02  0.11987963062E+02  0.00000000000E+00 0. -1.
</event>
<event>
 7    1  0.1541902E-008  0.4614232E+02  0.7816164E-02  0.1320468E+00
        -11   -1    0    0    0    0  0.00000000000E+00  0.00000000000E+00  0.45593999997E+02  0.45594000000E+02  0.51100000000E-03 0.  1.
         11   -1    0    0    0    0 -0.00000000000E+00 -0.00000000000E+00 -0.45593999997E+02  0.45594000000E+02  0.51100000000E-03 0. -1.
    9900012    2    1    2    0    0 -0.56984767813E+01  0.41867371575E+02  0.15612945394E+02  0.46142317587E+02  0.99999984093E+01 0.  0.
         12    1    1    2    0    0  0.56984767813E+01 -0.41867371575E+02 -0.15612945394E+02  0.45045682413E+02  0.00000000000E+00 0. -1.
         11    1    3    3    0    0 -0.34611382663E+01  0.85560349696E+01  0.15090862095E+01  0.93521416771E+01  0.51100000000E-03 0. -1.
        -11    1    3    3    0    0 -0.40486657761E+01  0.14110647835E+02  0.66092165886E+01  0.16099186969E+02  0.51100000000E-03 0.  1.
         12    1    3    3    0    0  0.18113272611E+01  0.19200688770E+02  0.74946425955E+01  0.20690988940E+02  0.00000000000E+00 0. -1.
</event>
<event>
 7    1  0.1541902E-008  0.4614232E+02  0.7816164E-02  0.1320468E+00
        -11   -1    0    0    0    0  0.00000000000E+00  0.00000000000E+00  0.45593999997E+02  0.45594000000E+02  0.51100000000E-03 0.  1.
         11   -1    0    0    0    0 -0.00000000000E+00 -0.00000000000E+00 -0.45593999997E+02  0.45594000000E+02  0.51100000000E-03 0. -1.
    9900012    2    1    2    0    0 -0.12466207114E+02 -0.36380123107E+02  0.23456207438E+02  0.46142319358E+02  0.10000014565E+02 0.  0.
         12    1    1    2    0    0  0.12466207114E+02  0.36380123107E+02 -0.23456207438E+02  0.45045680642E+02  0.00000000000E+00 0. -1.
         11    1    3    3    0    0 -0.98505538715E-01 -0.18360203957E+01 -0.84987753820E+00  0.20255780226E+01  0.51100000000E-03 0. -1.
        -11    1    3    3    0    0 -0.97549481167E+01 -0.26912649420E+02  0.20421875409E+02  0.35163940437E+02  0.51100000000E-03 0.  1.
        -12    1    3    3    0    0 -0.26127534587E+01 -0.76314532913E+01  0.38842095675E+01  0.89528008990E+01  0.00000000000E+00 0.  1.
</event>
<event>
 7    1  0.1541902E-008  0.4614232E+02  0.7816164E-02  0.1320468E+00
        -11   -1    0    0    0    0  0.00000000000E+00  0.00000000000E+00  0.45593999997E+02  0.45594000000E+02  0.51100000000E-03 0.  1.
         11   -1    0    0    0    0 -0.00000000000E+00 -0.00000000000E+00 -0.45593999997E+02  0.45594000000E+02  0.51100000000E-03 0. -1.
    9900012    2    1    2    0    0 -0.13239229143E+02  0.21815965904E+02  0.37120075309E+02  0.46142317104E+02  0.99999940045E+01 0.  0.
         12    1    1    2    0    0  0.13239229143E+02 -0.21815965904E+02 -0.37120075309E+02  0.45045682896E+02  0.00000000000E+00 0. -1.
         11    1    3    3    0    0 -0.45606622579E+00  0.13650550150E+01  0.69151075856E+01  0.70632913559E+01  0.51100000000E-03 0. -1.
        -11    1    3    3    0    0 -0.51047908868E+01  0.61671285950E+01  0.14158425145E+02  0.16265096617E+02  0.51100000000E-03 0.  1.
         12    1    3    3    0    0 -0.76783720308E+01  0.14283782294E+02  0.16046542579E+02  0.22813929131E+02  0.00000000000E+00 0. -1.
</event>
<event>
 7    1  0.1541902E-008  0.4614232E+02  0.7816164E-02  0.1320468E+00
        -11   -1    0    0    0    0  0.00000000000E+00  0.00000000000E+00  0.45593999997E+02  0.45594000000E+02  0.51100000000E-03 0. -1.
         11   -1    0    0    0    0 -0.00000000000E+00 -0.00000000000E+00 -0.45593999997E+02  0.45594000000E+02  0.51100000000E-03 0.  1.
    9900012    2    1    2    0    0 -0.69081511583E+01  0.21316291926E+02 -0.39076929676E+02  0.46142319998E+02  0.10000020397E+02 0.  0.
         12    1    1    2    0    0  0.69081511583E+01 -0.21316291926E+02  0.39076929676E+02  0.45045680002E+02  0.00000000000E+00 0. -1.
         11    1    3    3    0    0 -0.37812082690E+01  0.10135224457E+02 -0.12398485434E+02  0.16454262429E+02  0.51100000000E-03 0. -1.
        -11    1    3    3    0    0 -0.38690661962E+01  0.33048099365E+01 -0.95539352949E+01  0.10824468663E+02  0.51100000000E-03 0.  1.
         12    1    3    3    0    0  0.74212330689E+00  0.78762575327E+01 -0.17124508948E+02  0.18863588906E+02  0.00000000000E+00 0. -1.
</event>
<event>
 7    1  0.1541902E-008  0.4614232E+02  0.7816164E-02  0.1320468E+00
        -11   -1    0    0    0    0  0.00000000000E+00  0.00000000000E+00  0.45593999997E+02  0.45594000000E+02  0.51100000000E-03 0.  1.
         11   -1    0    0    0    0 -0.00000000000E+00 -0.00000000000E+00 -0.45593999997E+02  0.45594000000E+02  0.51100000000E-03 0. -1.
    9900012    2    1    2    0    0  0.23237238094E+02  0.38554305583E+02  0.16460708306E+01  0.46142320269E+02  0.10000022867E+02 0.  0.
         12    1    1    2    0    0 -0.23237238094E+02 -0.38554305583E+02 -0.16460708306E+01  0.45045679731E+02  0.00000000000E+00 0. -1.
         11    1    3    3    0    0  0.72137827205E+01  0.10542365911E+02  0.16403016342E+01  0.12879081095E+02  0.51100000000E-03 0. -1.
        -11    1    3    3    0    0  0.11344244916E+02  0.12574057122E+02  0.18083137561E+01  0.17031406405E+02  0.51100000000E-03 0.  1.
        -12    1    3    3    0    0  0.46792104578E+01  0.15437882551E+02 -0.18025445597E+01  0.16231832769E+02  0.00000000000E+00 0.  1.
</event>
<event>
 7    1  0.1541902E-008  0.4614232E+02  0.7816164E-02  0.1320468E+00
        -11   -1    0    0    0    0  0.00000000000E+00  0.00000000000E+00  0.45593999997E+02  0.45594000000E+02  0.51100000000E-03 0.  1.
         11   -1    0    0    0    0 -0.00000000000E+00 -0.00000000000E+00 -0.45593999997E+02  0.45594000000E+02  0.51100000000E-03 0. -1.
    9900012    2    1    2    0    0 -0.12317313450E+01  0.44957514686E+02  0.25334083339E+01  0.46142318224E+02  0.10000004220E+02 0.  0.
         12    1    1    2    0    0  0.12317313450E+01 -0.44957514686E+02 -0.25334083339E+01  0.45045681776E+02  0.00000000000E+00 0. -1.
         11    1    3    3    0    0 -0.44946068403E+01  0.33658179330E+02  0.52973203388E+00  0.33961082767E+02  0.51100000000E-03 0. -1.
        -11    1    3    3    0    0  0.14532307848E+01  0.59988593378E+01 -0.16648288657E+00  0.61746181972E+01  0.51100000000E-03 0.  1.
         12    1    3    3    0    0  0.18096447105E+01  0.53004760189E+01  0.21701591866E+01  0.60066172593E+01  0.00000000000E+00 0. -1.
</event>
<event>
 7    1  0.1541902E-008  0.4614232E+02  0.7816164E-02  0.1320468E+00
        -11   -1    0    0    0    0  0.00000000000E+00  0.00000000000E+00  0.45593999997E+02  0.45594000000E+02  0.51100000000E-03 0.  1.
         11   -1    0    0    0    0 -0.00000000000E+00 -0.00000000000E+00 -0.45593999997E+02  0.45594000000E+02  0.51100000000E-03 0. -1.
    9900012    2    1    2    0    0 -0.39765028858E+02 -0.19977966804E+02 -0.69811779832E+01  0.46142317369E+02  0.99999964232E+01 0.  0.
         12    1    1    2    0    0  0.39765028858E+02  0.19977966804E+02  0.69811779832E+01  0.45045682631E+02  0.00000000000E+00 0. -1.
         11    1    3    3    0    0  0.13507648436E+00  0.24466688638E+00  0.14600124764E+00  0.31531598017E+00  0.51100000000E-03 0. -1.
        -11    1    3    3    0    0 -0.13002896128E+02 -0.56907608103E+01 -0.54670654082E+01  0.15210156829E+02  0.51100000000E-03 0.  1.
         12    1    3    3    0    0 -0.26897209214E+02 -0.14531872880E+02 -0.16601138227E+01  0.30616844560E+02  0.00000000000E+00 0. -1.
</event>
<event>
 7    1  0.1541902E-008  0.4614232E+02  0.7816164E-02  0.1320468E+00
        -11   -1    0    0    0    0  0.00000000000E+00  0.00000000000E+00  0.45593999997E+02  0.45594000000E+02  0.51100000000E-03 0.  1.
         11   -1    0    0    0    0 -0.00000000000E+00 -0.00000000000E+00 -0.45593999997E+02  0.45594000000E+02  0.51100000000E-03 0. -1.
    9900012    2    1    2    0    0 -0.37607091689E+02  0.14886119818E+02 -0.19829866998E+02  0.46142317258E+02  0.99999954138E+01 0.  0.
         12    1    1    2    0    0  0.37607091689E+02 -0.14886119818E+02  0.19829866998E+02  0.45045682742E+02  0.00000000000E+00 0. -1.
         11    1    3    3    0    0 -0.76601900070E+00  0.37580868262E+00  0.10694688867E+01  0.13681305625E+01  0.51100000000E-03 0. -1.
        -11    1    3    3    0    0 -0.17015145199E+02  0.68185548944E+01 -0.98386785768E+01  0.20804024933E+02  0.51100000000E-03 0.  1.
         12    1    3    3    0    0 -0.19825927489E+02  0.76917562410E+01 -0.11060657307E+02  0.23970161763E+02  0.00000000000E+00 0. -1.
</event>
<event>
 7    1  0.1541902E-008  0.4614232E+02  0.7816164E-02  0.1320468E+00
        -11   -1    0    0    0    0  0.00000000000E+00  0.00000000000E+00  0.45593999997E+02  0.45594000000E+02  0.51100000000E-03 0.  1.
         11   -1    0    0    0    0 -0.00000000000E+00 -0.00000000000E+00 -0.45593999997E+02  0.45594000000E+02  0.51100000000E-03 0. -1.
    9900012    2    1    2    0    0  0.11427851792E+02 -0.35801980245E+02  0.24834167067E+02  0.46142318298E+02  0.10000004896E+02 0.  0.
         12    1    1    2    0    0 -0.11427851792E+02  0.35801980245E+02 -0.24834167067E+02  0.45045681702E+02  0.00000000000E+00 0. -1.
         11    1    3    3    0    0  0.29240549281E+01 -0.34322607892E+01  0.28899827767E+01  0.53556056668E+01  0.51100000000E-03 0. -1.
        -11    1    3    3    0    0  0.95679509725E+01 -0.30776502462E+02  0.21703116304E+02  0.38855682303E+02  0.51100000000E-03 0.  1.
        -12    1    3    3    0    0 -0.10641541084E+01 -0.15932169936E+01  0.24106798606E+00  0.19310303284E+01  0.00000000000E+00 0.  1.
</event>
<event>
 7    1  0.1541902E-008  0.4614232E+02  0.7816164E-02  0.1320468E+00
        -11   -1    0    0    0    0  0.00000000000E+00  0.00000000000E+00  0.45593999997E+02  0.45594000000E+02  0.51100000000E-03 0. -1.
         11   -1    0    0    0    0 -0.00000000000E+00 -0.00000000000E+00 -0.45593999997E+02  0.45594000000E+02  0.51100000000E-03 0.  1.
    9900012    2    1    2    0    0 -0.11148121611E+02  0.24994984859E+02 -0.35778256454E+02  0.46142317428E+02  0.99999969590E+01 0.  0.
         12    1    1    2    0    0  0.11148121611E+02 -0.24994984859E+02  0.35778256454E+02  0.45045682572E+02  0.00000000000E+00 0. -1.
         11    1    3    3    0    0 -0.98504930754E+01  0.12832455863E+02 -0.17046347094E+02  0.23500682689E+02  0.51100000000E-03 0. -1.
        -11    1    3    3    0    0 -0.12010805209E+01  0.91878412133E+01 -0.11157127917E+02  0.14503121188E+02  0.51100000000E-03 0.  1.
         12    1    3    3    0    0 -0.96548014937E-01  0.29746877825E+01 -0.75747814421E+01  0.81385135509E+01  0.00000000000E+00 0. -1.
</event>
<event>
 7    1  0.1541902E-008  0.4614232E+02  0.7816164E-02  0.1320468E+00
        -11   -1    0    0    0    0  0.00000000000E+00  0.00000000000E+00  0.45593999997E+02  0.45594000000E+02  0.51100000000E-03 0.  1.
         11   -1    0    0    0    0 -0.00000000000E+00 -0.00000000000E+00 -0.45593999997E+02  0.45594000000E+02  0.51100000000E-03 0. -1.
    9900012    2    1    2    0    0 -0.61928060137E+01  0.24684631544E+02  0.37167613378E+02  0.46142319131E+02  0.10000012488E+02 0.  0.
         12    1    1    2    0    0  0.61928060137E+01 -0.24684631544E+02 -0.37167613378E+02  0.45045680869E+02  0.00000000000E+00 0. -1.
         11    1    3    3    0    0 -0.24156730400E+01  0.16249926817E+02  0.27010408180E+02  0.31614201684E+02  0.51100000000E-03 0.  1.
        -11    1    3    3    0    0 -0.16486487476E+01  0.20569066159E+01  0.38168505202E+00  0.26635673935E+01  0.51100000000E-03 0. -1.
         12    1    3    3    0    0 -0.21284842261E+01  0.63777981111E+01  0.97755201456E+01  0.11864550053E+02  0.00000000000E+00 0. -1.
</event>
<event>
 7    1  0.1541902E-008  0.4614232E+02  0.7816164E-02  0.1320468E+00
        -11   -1    0    0    0    0  0.00000000000E+00  0.00000000000E+00  0.45593999997E+02  0.45594000000E+02  0.51100000000E-03 0. -1.
         11   -1    0    0    0    0 -0.00000000000E+00 -0.00000000000E+00 -0.45593999997E+02  0.45594000000E+02  0.51100000000E-03 0.  1.
    9900012    2    1    2    0    0 -0.23764363120E+02 -0.33296425424E+02 -0.18860450202E+02  0.46142317829E+02  0.10000000615E+02 0.  0.
         12    1    1    2    0    0  0.23764363120E+02  0.33296425424E+02  0.18860450202E+02  0.45045682171E+02  0.00000000000E+00 0. -1.
         11    1    3    3    0    0 -0.51763360692E+01 -0.57194496404E+01 -0.69212290283E+00  0.77450367116E+01  0.51100000000E-03 0. -1.
        -11    1    3    3    0    0 -0.15424427052E+02 -0.20838184154E+02 -0.11346584300E+02  0.28299961913E+02  0.51100000000E-03 0.  1.
        -12    1    3    3    0    0 -0.31635999982E+01 -0.67387916291E+01 -0.68217429984E+01  0.10097319204E+02  0.00000000000E+00 0.  1.
</event>
<event>
 7    1  0.1541902E-008  0.4614232E+02  0.7816164E-02  0.1320468E+00
        -11   -1    0    0    0    0  0.00000000000E+00  0.00000000000E+00  0.45593999997E+02  0.45594000000E+02  0.51100000000E-03 0.  1.
         11   -1    0    0    0    0 -0.00000000000E+00 -0.00000000000E+00 -0.45593999997E+02  0.45594000000E+02  0.51100000000E-03 0. -1.
    9900012    2    1    2    0    0  0.20241821315E+02  0.12860113416E+02  0.38131347447E+02  0.46142317572E+02  0.99999982780E+01 0.  0.
         12    1    1    2    0    0 -0.20241821315E+02 -0.12860113416E+02 -0.38131347447E+02  0.45045682428E+02  0.00000000000E+00 0. -1.
         11    1    3    3    0    0  0.34970123382E+01  0.65295291782E+01  0.82662178282E+01  0.11099288447E+02  0.51100000000E-03 0. -1.
        -11    1    3    3    0    0  0.12932437256E+02  0.39840771623E+01  0.25029219953E+02  0.28453166010E+02  0.51100000000E-03 0.  1.
         12    1    3    3    0    0  0.38123717205E+01  0.23465070754E+01  0.48359096658E+01  0.65898631158E+01  0.00000000000E+00 0. -1.
</event>
<event>
 7    1  0.1541902E-008  0.4614232E+02  0.7816164E-02  0.1320468E+00
        -11   -1    0    0    0    0  0.00000000000E+00  0.00000000000E+00  0.45593999997E+02  0.45594000000E+02  0.51100000000E-03 0. -1.
         11   -1    0    0    0    0 -0.00000000000E+00 -0.00000000000E+00 -0.45593999997E+02  0.45594000000E+02  0.51100000000E-03 0.  1.
    9900012    2    1    2    0    0 -0.30270766284E+02 -0.74176478844E+01  0.32523419214E+02  0.46142316645E+02  0.99999898263E+01 0.  0.
         12    1    1    2    0    0  0.30270766284E+02  0.74176478844E+01 -0.32523419214E+02  0.45045683355E+02  0.00000000000E+00 0. -1.
         11    1    3    3    0    0 -0.21261858497E+01 -0.20018132790E+01  0.94899319796E+00  0.30705880581E+01  0.51100000000E-03 0. -1.
        -11    1    3    3    0    0 -0.14266214069E+02 -0.20432352147E+01  0.11514031647E+02  0.18446479312E+02  0.51100000000E-03 0.  1.
         12    1    3    3    0    0 -0.13878366365E+02 -0.33725993906E+01  0.20060394369E+02  0.24625249275E+02  0.00000000000E+00 0. -1.
</event>
<event>
 7    1  0.1541902E-008  0.4614232E+02  0.7816164E-02  0.1320468E+00
        -11   -1    0    0    0    0  0.00000000000E+00  0.00000000000E+00  0.45593999997E+02  0.45594000000E+02  0.51100000000E-03 0.  1.
         11   -1    0    0    0    0 -0.00000000000E+00 -0.00000000000E+00 -0.45593999997E+02  0.45594000000E+02  0.51100000000E-03 0. -1.
    9900012    2    1    2    0    0  0.30084481895E+02  0.19316811141E+02  0.27402525286E+02  0.46142316127E+02  0.99999850958E+01 0.  0.
         12    1    1    2    0    0 -0.30084481895E+02 -0.19316811141E+02 -0.27402525286E+02  0.45045683873E+02  0.00000000000E+00 0. -1.
         11    1    3    3    0    0  0.12528753923E+02  0.12494162357E+02  0.16072393367E+02  0.23903882460E+02  0.51100000000E-03 0. -1.
        -11    1    3    3    0    0  0.14941190468E+02  0.63628628934E+01  0.83960215318E+01  0.18281640370E+02  0.51100000000E-03 0.  1.
        -12    1    3    3    0    0  0.26145375047E+01  0.45978589094E+00  0.29341103871E+01  0.39567932967E+01  0.00000000000E+00 0.  1.
</event>
<event>
 7    1  0.1541902E-008  0.4614232E+02  0.7816164E-02  0.1320468E+00
        -11   -1    0    0    0    0  0.00000000000E+00  0.00000000000E+00  0.45593999997E+02  0.45594000000E+02  0.51100000000E-03 0.  1.
         11   -1    0    0    0    0 -0.00000000000E+00 -0.00000000000E+00 -0.45593999997E+02  0.45594000000E+02  0.51100000000E-03 0. -1.
    9900012    2    1    2    0    0  0.38812879394E+02 -0.20018130956E+02  0.11043020284E+02  0.46142317956E+02  0.10000001775E+02 0.  0.
         12    1    1    2    0    0 -0.38812879394E+02  0.20018130956E+02 -0.11043020284E+02  0.45045682044E+02  0.00000000000E+00 0. -1.
         11    1    3    3    0    0  0.13936138346E+02 -0.12027606188E+02  0.45458599302E+01  0.18961648277E+02  0.51100000000E-03 0.  1.
        -11    1    3    3    0    0  0.13917303827E+01  0.38748873108E+00  0.16131116487E+00  0.14536445672E+01  0.51100000000E-03 0. -1.
         12    1    3    3    0    0  0.23485010665E+02 -0.83780134991E+01  0.63358491887E+01  0.25727025111E+02  0.00000000000E+00 0. -1.
</event>
<event>
 7    1  0.1541902E-008  0.4614232E+02  0.7816164E-02  0.1320468E+00
        -11   -1    0    0    0    0  0.00000000000E+00  0.00000000000E+00  0.45593999997E+02  0.45594000000E+02  0.51100000000E-03 0.  1.
         11   -1    0    0    0    0 -0.00000000000E+00 -0.00000000000E+00 -0.45593999997E+02  0.45594000000E+02  0.51100000000E-03 0. -1.
    9900012    2    1    2    0    0 -0.23278566945E+02  0.12634877835E+02  0.36435990859E+02  0.46142320442E+02  0.10000024450E+02 0.  0.
         12    1    1    2    0    0  0.23278566945E+02 -0.12634877835E+02 -0.36435990859E+02  0.45045679558E+02  0.00000000000E+00 0. -1.
         11    1    3    3    0    0  0.54568896928E+00  0.14701107609E+00  0.20939385105E+01  0.21688631710E+01  0.51100000000E-03 0. -1.
        -11    1    3    3    0    0 -0.13463336772E+02  0.43273195642E+01  0.19930886886E+02  0.24438236106E+02  0.51100000000E-03 0.  1.
        -12    1    3    3    0    0 -0.10360919142E+02  0.81605471945E+01  0.14411165463E+02  0.19535221165E+02  0.00000000000E+00 0.  1.
</event>
<event>
 7    1  0.1541902E-008  0.4614232E+02  0.7816164E-02  0.1320468E+00
        -11   -1    0    0    0    0  0.00000000000E+00  0.00000000000E+00  0.45593999997E+02  0.45594000000E+02  0.51100000000E-03 0.  1.
         11   -1    0    0    0    0 -0.00000000000E+00 -0.00000000000E+00 -0.45593999997E+02  0.45594000000E+02  0.51100000000E-03 0. -1.
    9900012    2    1    2    0    0  0.26868918272E+02 -0.18171812247E+02  0.31256358939E+02  0.46142317592E+02  0.99999984616E+01 0.  0.
         12    1    1    2    0    0 -0.26868918272E+02  0.18171812247E+02 -0.31256358939E+02  0.45045682408E+02  0.00000000000E+00 0. -1.
         11    1    3    3    0    0  0.20745562575E+01 -0.20751285844E+01  0.61147918839E+01  0.67823758634E+01  0.51100000000E-03 0. -1.
        -11    1    3    3    0    0 -0.17455275119E+00 -0.98104723047E+00  0.32481434382E+00  0.10480586579E+01  0.51100000000E-03 0.  1.
        -12    1    3    3    0    0  0.24968914766E+02 -0.15115636432E+02  0.24816752711E+02  0.38311883071E+02  0.00000000000E+00 0.  1.
</event>
<event>
 7    1  0.1541902E-008  0.4614232E+02  0.7816164E-02  0.1320468E+00
        -11   -1    0    0    0    0  0.00000000000E+00  0.00000000000E+00  0.45593999997E+02  0.45594000000E+02  0.51100000000E-03 0.  1.
         11   -1    0    0    0    0 -0.00000000000E+00 -0.00000000000E+00 -0.45593999997E+02  0.45594000000E+02  0.51100000000E-03 0. -1.
    9900012    2    1    2    0    0  0.19914270045E+02  0.72011010543E+00  0.40398225563E+02  0.46142319423E+02  0.10000015159E+02 0.  0.
         12    1    1    2    0    0 -0.19914270045E+02 -0.72011010543E+00 -0.40398225563E+02  0.45045680577E+02  0.00000000000E+00 0. -1.
         11    1    3    3    0    0  0.33416102829E+01  0.35579960080E+01  0.13056328765E+02  0.13938917317E+02  0.51100000000E-03 0. -1.
        -11    1    3    3    0    0  0.16509037696E+02 -0.25361685947E+01  0.26760104813E+02  0.31544947086E+02  0.51100000000E-03 0.  1.
        -12    1    3    3    0    0  0.63622065841E-01 -0.30171730792E+00  0.58179198508E+00  0.65845502129E+00  0.00000000000E+00 0.  1.
</event>
<event>
 7    1  0.1541902E-008  0.4614232E+02  0.7816164E-02  0.1320468E+00
        -11   -1    0    0    0    0  0.00000000000E+00  0.00000000000E+00  0.45593999997E+02  0.45594000000E+02  0.51100000000E-03 0.  1.
         11   -1    0    0    0    0 -0.00000000000E+00 -0.00000000000E+00 -0.45593999997E+02  0.45594000000E+02  0.51100000000E-03 0. -1.
    9900012    2    1    2    0    0 -0.20522994719E+01 -0.82752574681E+01  0.44231454981E+02  0.46142318419E+02  0.10000006003E+02 0.  0.
         12    1    1    2    0    0  0.20522994719E+01  0.82752574681E+01 -0.44231454981E+02  0.45045681581E+02  0.00000000000E+00 0. -1.
         11    1    3    3    0    0  0.69930563725E+00  0.15615501775E+01  0.76611816492E+01  0.78499154043E+01  0.51100000000E-03 0. -1.
        -11    1    3    3    0    0 -0.15517612041E+01 -0.21517098794E+01  0.17451071328E+02  0.17651563925E+02  0.51100000000E-03 0.  1.
         12    1    3    3    0    0 -0.11998439050E+01 -0.76850977662E+01  0.19119202005E+02  0.20640839091E+02  0.00000000000E+00 0. -1.
</event>
<event>
 7    1  0.1541902E-008  0.4614232E+02  0.7816164E-02  0.1320468E+00
        -11   -1    0    0    0    0  0.00000000000E+00  0.00000000000E+00  0.45593999997E+02  0.45594000000E+02  0.51100000000E-03 0. -1.
         11   -1    0    0    0    0 -0.00000000000E+00 -0.00000000000E+00 -0.45593999997E+02  0.45594000000E+02  0.51100000000E-03 0.  1.
    9900012    2    1    2    0    0 -0.10305164636E+02  0.40950180097E+02 -0.15684383114E+02  0.46142317168E+02  0.99999945889E+01 0.  0.
         12    1    1    2    0    0  0.10305164636E+02 -0.40950180097E+02  0.15684383114E+02  0.45045682832E+02  0.00000000000E+00 0. -1.
         11    1    3    3    0    0 -0.16535174059E+01  0.12354179204E+01 -0.21232332650E+01  0.29611648060E+01  0.51100000000E-03 0. -1.
        -11    1    3    3    0    0 -0.83888610840E+01  0.36008865313E+02 -0.10695059435E+02  0.38488903180E+02  0.51100000000E-03 0.  1.
        -12    1    3    3    0    0 -0.26278614588E+00  0.37058968642E+01 -0.28660904139E+01  0.46922491821E+01  0.00000000000E+00 0.  1.
</event>
<event>
 7    1  0.1541902E-008  0.4614232E+02  0.7816164E-02  0.1320468E+00
        -11   -1    0    0    0    0  0.00000000000E+00  0.00000000000E+00  0.45593999997E+02  0.45594000000E+02  0.51100000000E-03 0.  1.
         11   -1    0    0    0    0 -0.00000000000E+00 -0.00000000000E+00 -0.45593999997E+02  0.45594000000E+02  0.51100000000E-03 0. -1.
    9900012    2    1    2    0    0  0.28582435079E+02  0.30038857232E+02 -0.17601844335E+02  0.46142318044E+02  0.10000002582E+02 0.  0.
         12    1    1    2    0    0 -0.28582435079E+02 -0.30038857232E+02  0.17601844335E+02  0.45045681956E+02  0.00000000000E+00 0. -1.
         11    1    3    3    0    0  0.38753521159E+01  0.15829293425E+01 -0.26064724425E+01  0.49312998469E+01  0.51100000000E-03 0. -1.
        -11    1    3    3    0    0  0.13277066363E+02  0.11827744801E+02 -0.10093478345E+02  0.20446377274E+02  0.51100000000E-03 0.  1.
        -12    1    3    3    0    0  0.11430016600E+02  0.16628183089E+02 -0.49018935480E+01  0.20764640923E+02  0.00000000000E+00 0.  1.
</event>
<event>
 7    1  0.1541902E-008  0.4614232E+02  0.7816164E-02  0.1320468E+00
        -11   -1    0    0    0    0  0.00000000000E+00  0.00000000000E+00  0.45593999997E+02  0.45594000000E+02  0.51100000000E-03 0.  1.
         11   -1    0    0    0    0 -0.00000000000E+00 -0.00000000000E+00 -0.45593999997E+02  0.45594000000E+02  0.51100000000E-03 0. -1.
    9900012    2    1    2    0    0 -0.57325631674E+00 -0.44990210714E+02 -0.21600272952E+01  0.46142318733E+02  0.10000008865E+02 0.  0.
         12    1    1    2    0    0  0.57325631674E+00  0.44990210714E+02  0.21600272952E+01  0.45045681267E+02  0.00000000000E+00 0. -1.
         11    1    3    3    0    0  0.13610313886E-01 -0.70205804934E+01 -0.15904514564E+01  0.71984909392E+01  0.51100000000E-03 0. -1.
        -11    1    3    3    0    0  0.28901359097E+01 -0.63628659838E+01 -0.14363955926E+01  0.71345764881E+01  0.51100000000E-03 0.  1.
        -12    1    3    3    0    0 -0.34770025404E+01 -0.31606764236E+02  0.86681975391E+00  0.31809251306E+02  0.00000000000E+00 0.  1.
</event>
<event>
 7    1  0.1541902E-008  0.4614232E+02  0.7816164E-02  0.1320468E+00
        -11   -1    0    0    0    0  0.00000000000E+00  0.00000000000E+00  0.45593999997E+02  0.45594000000E+02  0.51100000000E-03 0.  1.
         11   -1    0    0    0    0 -0.00000000000E+00 -0.00000000000E+00 -0.45593999997E+02  0.45594000000E+02  0.51100000000E-03 0. -1.
    9900012    2    1    2    0    0  0.17927871074E+02  0.60055527055E+01  0.40885672444E+02  0.46142318345E+02  0.10000005328E+02 0.  0.
         12    1    1    2    0    0 -0.17927871074E+02 -0.60055527055E+01 -0.40885672444E+02  0.45045681655E+02  0.00000000000E+00 0. -1.
         11    1    3    3    0    0  0.44920341372E+01  0.37513569158E+01  0.97181649606E+01  0.11344328092E+02  0.51100000000E-03 0. -1.
        -11    1    3    3    0    0  0.13848869702E+02  0.27003964763E+01  0.31142165608E+02  0.34189440068E+02  0.51100000000E-03 0.  1.
         12    1    3    3    0    0 -0.41303276495E+00 -0.44620068653E+00  0.25341875462E-01  0.60855018547E+00  0.00000000000E+00 0. -1.
</event>
<event>
 7    1  0.1541902E-008  0.4614232E+02  0.7816164E-02  0.1320468E+00
        -11   -1    0    0    0    0  0.00000000000E+00  0.00000000000E+00  0.45593999997E+02  0.45594000000E+02  0.51100000000E-03 0.  1.
         11   -1    0    0    0    0 -0.00000000000E+00 -0.00000000000E+00 -0.45593999997E+02  0.45594000000E+02  0.51100000000E-03 0. -1.
    9900012    2    1    2    0    0 -0.64938287863E+01 -0.40692207101E+02  0.18195818030E+02  0.46142319577E+02  0.10000016557E+02 0.  0.
         12    1    1    2    0    0  0.64938287863E+01  0.40692207101E+02 -0.18195818030E+02  0.45045680423E+02  0.00000000000E+00 0. -1.
         11    1    3    3    0    0 -0.52752567840E+01 -0.20219621849E+02  0.52735253799E+01  0.21551601148E+02  0.51100000000E-03 0.  1.
        -11    1    3    3    0    0 -0.26754866572E+01 -0.13885903482E+02  0.80808927434E+01  0.16287337786E+02  0.51100000000E-03 0. -1.
         12    1    3    3    0    0  0.14569146549E+01 -0.65866817692E+01  0.48413999063E+01  0.83033806424E+01  0.00000000000E+00 0. -1.
</event>
<event>
 7    1  0.1541902E-008  0.4614232E+02  0.7816164E-02  0.1320468E+00
        -11   -1    0    0    0    0  0.00000000000E+00  0.00000000000E+00  0.45593999997E+02  0.45594000000E+02  0.51100000000E-03 0.  1.
         11   -1    0    0    0    0 -0.00000000000E+00 -0.00000000000E+00 -0.45593999997E+02  0.45594000000E+02  0.51100000000E-03 0. -1.
    9900012    2    1    2    0    0 -0.42101249859E+02 -0.13898955122E+02  0.79635007733E+01  0.46142317213E+02  0.99999950010E+01 0.  0.
         12    1    1    2    0    0  0.42101249859E+02  0.13898955122E+02 -0.79635007733E+01  0.45045682787E+02  0.00000000000E+00 0. -1.
         11    1    3    3    0    0 -0.30246203080E+02 -0.84474983852E+01  0.22341087391E+01  0.31483079135E+02  0.51100000000E-03 0. -1.
        -11    1    3    3    0    0 -0.11101158639E+02 -0.42013727508E+01  0.43234289540E+01  0.12632469842E+02  0.51100000000E-03 0.  1.
         12    1    3    3    0    0 -0.75388814036E+00 -0.12500839857E+01  0.14059630801E+01  0.20267682359E+01  0.00000000000E+00 0. -1.
</event>
<event>
 7    1  0.1541902E-008  0.4614232E+02  0.7816164E-02  0.1320468E+00
        -11   -1    0    0    0    0  0.00000000000E+00  0.00000000000E+00  0.45593999997E+02  0.45594000000E+02  0.51100000000E-03 0.  1.
         11   -1    0    0    0    0 -0.00000000000E+00 -0.00000000000E+00 -0.45593999997E+02  0.45594000000E+02  0.51100000000E-03 0. -1.
    9900012    2    1    2    0    0  0.10354141990E+01  0.96166471644E+01  0.43995016632E+02  0.46142317924E+02  0.10000001482E+02 0.  0.
         12    1    1    2    0    0 -0.10354141990E+01 -0.96166471644E+01 -0.43995016632E+02  0.45045682076E+02  0.00000000000E+00 0. -1.
         11    1    3    3    0    0  0.26360541166E+01  0.28685590436E+01  0.45872865504E+01  0.60183561251E+01  0.51100000000E-03 0. -1.
        -11    1    3    3    0    0  0.50196887934E+00  0.26810491778E+01  0.10147390803E+02  0.10507594292E+02  0.51100000000E-03 0.  1.
         12    1    3    3    0    0 -0.21026087970E+01  0.40670389431E+01  0.29260339279E+02  0.29616367506E+02  0.00000000000E+00 0. -1.
</event>
<event>
 7    1  0.1541902E-008  0.4614232E+02  0.7816164E-02  0.1320468E+00
        -11   -1    0    0    0    0  0.00000000000E+00  0.00000000000E+00  0.45593999997E+02  0.45594000000E+02  0.51100000000E-03 0. -1.
         11   -1    0    0    0    0 -0.00000000000E+00 -0.00000000000E+00 -0.45593999997E+02  0.45594000000E+02  0.51100000000E-03 0.  1.
    9900012    2    1    2    0    0 -0.26012784385E+02 -0.20257148114E+02 -0.30693590828E+02  0.46142317420E+02  0.99999968922E+01 0.  0.
         12    1    1    2    0    0  0.26012784385E+02  0.20257148114E+02  0.30693590828E+02  0.45045682580E+02  0.00000000000E+00 0. -1.
         11    1    3    3    0    0 -0.71681179024E+01 -0.60725279209E+01 -0.12973792363E+02  0.16018014801E+02  0.51100000000E-03 0.  1.
        -11    1    3    3    0    0 -0.17270877165E+01  0.48314010171E+00 -0.16850927259E+01  0.24608523105E+01  0.51100000000E-03 0. -1.
        -12    1    3    3    0    0 -0.17117578766E+02 -0.14667760294E+02 -0.16034705739E+02  0.27663450309E+02  0.00000000000E+00 0.  1.
</event>
<event>
 7    1  0.1541902E-008  0.4614232E+02  0.7816164E-02  0.1320468E+00
        -11   -1    0    0    0    0  0.00000000000E+00  0.00000000000E+00  0.45593999997E+02  0.45594000000E+02  0.51100000000E-03 0.  1.
         11   -1    0    0    0    0 -0.00000000000E+00 -0.00000000000E+00 -0.45593999997E+02  0.45594000000E+02  0.51100000000E-03 0. -1.
    9900012    2    1    2    0    0  0.21060353733E+02  0.32232568751E+02  0.23380257400E+02  0.46142318479E+02  0.10000006548E+02 0.  0.
         12    1    1    2    0    0 -0.21060353733E+02 -0.32232568751E+02 -0.23380257400E+02  0.45045681521E+02  0.00000000000E+00 0. -1.
         11    1    3    3    0    0  0.17328214889E+02  0.25258863614E+02  0.16742853776E+02  0.34908457072E+02  0.51100000000E-03 0. -1.
        -11    1    3    3    0    0  0.76738253091E+00  0.17477896253E+00  0.27485186392E+01  0.28589820926E+01  0.51100000000E-03 0.  1.
        -12    1    3    3    0    0  0.29647563128E+01  0.67989261741E+01  0.38888849847E+01  0.83748793149E+01  0.00000000000E+00 0.  1.
</event>
<event>
 7    1  0.1541902E-008  0.4614232E+02  0.7816164E-02  0.1320468E+00
        -11   -1    0    0    0    0  0.00000000000E+00  0.00000000000E+00  0.45593999997E+02  0.45594000000E+02  0.51100000000E-03 0. -1.
         11   -1    0    0    0    0 -0.00000000000E+00 -0.00000000000E+00 -0.45593999997E+02  0.45594000000E+02  0.51100000000E-03 0.  1.
    9900012    2    1    2    0    0 -0.35459427452E+02  0.89059467558E+01 -0.26314003652E+02  0.46142315733E+02  0.99999815067E+01 0.  0.
         12    1    1    2    0    0  0.35459427452E+02 -0.89059467558E+01  0.26314003652E+02  0.45045684267E+02  0.00000000000E+00 0. -1.
         11    1    3    3    0    0 -0.15680275181E+02  0.49614333117E+01 -0.80522562139E+01  0.18311899974E+02  0.51100000000E-03 0. -1.
        -11    1    3    3    0    0 -0.90645166047E+01  0.10862054916E+01 -0.45643422646E+01  0.10206788144E+02  0.51100000000E-03 0.  1.
         12    1    3    3    0    0 -0.10714635666E+02  0.28583079525E+01 -0.13697405174E+02  0.17623627615E+02  0.00000000000E+00 0. -1.
</event>
<event>
 7    1  0.1541902E-008  0.4614232E+02  0.7816164E-02  0.1320468E+00
        -11   -1    0    0    0    0  0.00000000000E+00  0.00000000000E+00  0.45593999997E+02  0.45594000000E+02  0.51100000000E-03 0.  1.
         11   -1    0    0    0    0 -0.00000000000E+00 -0.00000000000E+00 -0.45593999997E+02  0.45594000000E+02  0.51100000000E-03 0. -1.
    9900012    2    1    2    0    0 -0.23774846356E+02  0.36828637980E+02  0.10369260466E+02  0.46142318105E+02  0.10000003135E+02 0.  0.
         12    1    1    2    0    0  0.23774846356E+02 -0.36828637980E+02 -0.10369260466E+02  0.45045681895E+02  0.00000000000E+00 0. -1.
         11    1    3    3    0    0 -0.22802382858E+02  0.35438264294E+02  0.79705785711E+01  0.42887636484E+02  0.51100000000E-03 0. -1.
        -11    1    3    3    0    0  0.11364920657E+00  0.97760127142E+00  0.14611700406E+01  0.17617146582E+01  0.51100000000E-03 0.  1.
         12    1    3    3    0    0 -0.10861127053E+01  0.41277241553E+00  0.93751185462E+00  0.14929669632E+01  0.00000000000E+00 0. -1.
</event>
<event>
 7    1  0.1541902E-008  0.4614232E+02  0.7816164E-02  0.1320468E+00
        -11   -1    0    0    0    0  0.00000000000E+00  0.00000000000E+00  0.45593999997E+02  0.45594000000E+02  0.51100000000E-03 0. -1.
         11   -1    0    0    0    0 -0.00000000000E+00 -0.00000000000E+00 -0.45593999997E+02  0.45594000000E+02  0.51100000000E-03 0.  1.
    9900012    2    1    2    0    0 -0.21135115058E+02  0.39764612802E+02 -0.10936848086E+01  0.46142315786E+02  0.99999819923E+01 0.  0.
         12    1    1    2    0    0  0.21135115058E+02 -0.39764612802E+02  0.10936848086E+01  0.45045684214E+02  0.00000000000E+00 0. -1.
         11    1    3    3    0    0 -0.11997394179E+02  0.23895668572E+02  0.11598526908E+01  0.26763514382E+02  0.51100000000E-03 0. -1.
        -11    1    3    3    0    0 -0.58870905601E+01  0.93636840678E+01  0.15555132180E+01  0.11169424167E+02  0.51100000000E-03 0.  1.
         12    1    3    3    0    0 -0.32506303190E+01  0.65052601627E+01 -0.38090507174E+01  0.82093772372E+01  0.00000000000E+00 0. -1.
</event>
<event>
 7    1  0.1541902E-008  0.4614232E+02  0.7816164E-02  0.1320468E+00
        -11   -1    0    0    0    0  0.00000000000E+00  0.00000000000E+00  0.45593999997E+02  0.45594000000E+02  0.51100000000E-03 0.  1.
         11   -1    0    0    0    0 -0.00000000000E+00 -0.00000000000E+00 -0.45593999997E+02  0.45594000000E+02  0.51100000000E-03 0. -1.
    9900012    2    1    2    0    0  0.17157619513E+02 -0.34470488115E+02  0.23377660694E+02  0.46142317879E+02  0.10000001074E+02 0.  0.
         12    1    1    2    0    0 -0.17157619513E+02  0.34470488115E+02 -0.23377660694E+02  0.45045682121E+02  0.00000000000E+00 0. -1.
         11    1    3    3    0    0  0.29572085815E+01 -0.13399762708E+01  0.16465904001E+01  0.36403130645E+01  0.51100000000E-03 0. -1.
        -11    1    3    3    0    0  0.12592434987E+02 -0.24860807755E+02  0.14580199427E+02  0.31451731219E+02  0.51100000000E-03 0.  1.
         12    1    3    3    0    0  0.16079759444E+01 -0.82697040896E+01  0.71508708672E+01  0.11050273595E+02  0.00000000000E+00 0. -1.
</event>
<event>
 7    1  0.1541902E-008  0.4614232E+02  0.7816164E-02  0.1320468E+00
        -11   -1    0    0    0    0  0.00000000000E+00  0.00000000000E+00  0.45593999997E+02  0.45594000000E+02  0.51100000000E-03 0. -1.
         11   -1    0    0    0    0 -0.00000000000E+00 -0.00000000000E+00 -0.45593999997E+02  0.45594000000E+02  0.51100000000E-03 0.  1.
    9900012    2    1    2    0    0  0.17891878528E+02  0.41339980662E+02 -0.12042089259E-01  0.46142318039E+02  0.10000002532E+02 0.  0.
         12    1    1    2    0    0 -0.17891878528E+02 -0.41339980662E+02  0.12042089259E-01  0.45045681961E+02  0.00000000000E+00 0. -1.
         11    1    3    3    0    0  0.14688657407E+02  0.31264839082E+02  0.24846797533E+01  0.34632650100E+02  0.51100000000E-03 0. -1.
        -11    1    3    3    0    0  0.37107624248E+01  0.73855722569E+01 -0.83443146989E+00  0.83073889685E+01  0.51100000000E-03 0.  1.
         12    1    3    3    0    0 -0.50754130428E+00  0.26895693227E+01 -0.16622903727E+01  0.32022789698E+01  0.00000000000E+00 0. -1.
</event>
<event>
 7    1  0.1541902E-008  0.4614232E+02  0.7816164E-02  0.1320468E+00
        -11   -1    0    0    0    0  0.00000000000E+00  0.00000000000E+00  0.45593999997E+02  0.45594000000E+02  0.51100000000E-03 0. -1.
         11   -1    0    0    0    0 -0.00000000000E+00 -0.00000000000E+00 -0.45593999997E+02  0.45594000000E+02  0.51100000000E-03 0.  1.
    9900012    2    1    2    0    0  0.20278503102E+02 -0.26262618585E+02 -0.30465891526E+02  0.46142319081E+02  0.10000012038E+02 0.  0.
         12    1    1    2    0    0 -0.20278503102E+02  0.26262618585E+02  0.30465891526E+02  0.45045680919E+02  0.00000000000E+00 0. -1.
         11    1    3    3    0    0 -0.64978890279E+00 -0.20918199770E+01 -0.11218464450E+01  0.24609908862E+01  0.51100000000E-03 0. -1.
        -11    1    3    3    0    0  0.12634006209E+02 -0.16557416278E+02 -0.21670813977E+02  0.30056452309E+02  0.51100000000E-03 0.  1.
         12    1    3    3    0    0  0.82942857949E+01 -0.76133823295E+01 -0.76732311042E+01  0.13624875886E+02  0.00000000000E+00 0. -1.
</event>
<event>
 7    1  0.1541902E-008  0.4614232E+02  0.7816164E-02  0.1320468E+00
        -11   -1    0    0    0    0  0.00000000000E+00  0.00000000000E+00  0.45593999997E+02  0.45594000000E+02  0.51100000000E-03 0. -1.
         11   -1    0    0    0    0 -0.00000000000E+00 -0.00000000000E+00 -0.45593999997E+02  0.45594000000E+02  0.51100000000E-03 0.  1.
    9900012    2    1    2    0    0 -0.37097735224E+02 -0.22624393149E+02  0.11874693748E+02  0.46142317901E+02  0.10000001278E+02 0.  0.
         12    1    1    2    0    0  0.37097735224E+02  0.22624393149E+02 -0.11874693748E+02  0.45045682099E+02  0.00000000000E+00 0. -1.
         11    1    3    3    0    0 -0.74103340795E+01 -0.52991627498E+01  0.38147782048E+01  0.98765738003E+01  0.51100000000E-03 0. -1.
        -11    1    3    3    0    0 -0.16870480623E+02 -0.14090617254E+02  0.66887926021E+01  0.22976043127E+02  0.51100000000E-03 0.  1.
        -12    1    3    3    0    0 -0.12816920522E+02 -0.32346131459E+01  0.13711229409E+01  0.13289700974E+02  0.00000000000E+00 0.  1.
</event>
<event>
 7    1  0.1541902E-008  0.4614232E+02  0.7816164E-02  0.1320468E+00
        -11   -1    0    0    0    0  0.00000000000E+00  0.00000000000E+00  0.45593999997E+02  0.45594000000E+02  0.51100000000E-03 0.  1.
         11   -1    0    0    0    0 -0.00000000000E+00 -0.00000000000E+00 -0.45593999997E+02  0.45594000000E+02  0.51100000000E-03 0. -1.
    9900012    2    1    2    0    0 -0.37549413396E+02  0.21752126938E+02  0.12083043764E+02  0.46142318528E+02  0.10000006991E+02 0.  0.
         12    1    1    2    0    0  0.37549413396E+02 -0.21752126938E+02 -0.12083043764E+02  0.45045681472E+02  0.00000000000E+00 0. -1.
         11    1    3    3    0    0 -0.70514850455E+01  0.49846869984E+01  0.43171299383E+01  0.96544371656E+01  0.51100000000E-03 0. -1.
        -11    1    3    3    0    0 -0.15886793749E+02  0.78206052904E+01  0.73740129265E-01  0.17707555466E+02  0.51100000000E-03 0.  1.
        -12    1    3    3    0    0 -0.14611134601E+02  0.89468346493E+01  0.76921736961E+01  0.18780325896E+02  0.00000000000E+00 0.  1.
</event>
<event>
 7    1  0.1541902E-008  0.4614232E+02  0.7816164E-02  0.1320468E+00
        -11   -1    0    0    0    0  0.00000000000E+00  0.00000000000E+00  0.45593999997E+02  0.45594000000E+02  0.51100000000E-03 0. -1.
         11   -1    0    0    0    0 -0.00000000000E+00 -0.00000000000E+00 -0.45593999997E+02  0.45594000000E+02  0.51100000000E-03 0.  1.
    9900012    2    1    2    0    0 -0.28587627798E+02 -0.32830541858E+02 -0.11576550787E+02  0.46142317966E+02  0.10000001867E+02 0.  0.
         12    1    1    2    0    0  0.28587627798E+02  0.32830541858E+02  0.11576550787E+02  0.45045682034E+02  0.00000000000E+00 0. -1.
         11    1    3    3    0    0 -0.11076414667E+02 -0.97859967552E+01 -0.22330955575E+01  0.14947889831E+02  0.51100000000E-03 0. -1.
        -11    1    3    3    0    0 -0.87021939160E+01 -0.16006270933E+02 -0.77821509491E+01  0.19811379603E+02  0.51100000000E-03 0.  1.
        -12    1    3    3    0    0 -0.88090192141E+01 -0.70382741700E+01 -0.15613042800E+01  0.11383048531E+02  0.00000000000E+00 0.  1.
</event>
<event>
 7    1  0.1541902E-008  0.4614232E+02  0.7816164E-02  0.1320468E+00
        -11   -1    0    0    0    0  0.00000000000E+00  0.00000000000E+00  0.45593999997E+02  0.45594000000E+02  0.51100000000E-03 0. -1.
         11   -1    0    0    0    0 -0.00000000000E+00 -0.00000000000E+00 -0.45593999997E+02  0.45594000000E+02  0.51100000000E-03 0.  1.
    9900012    2    1    2    0    0  0.39960351022E+02  0.98677212753E+01 -0.18300598782E+02  0.46142317712E+02  0.99999995561E+01 0.  0.
         12    1    1    2    0    0 -0.39960351022E+02 -0.98677212753E+01  0.18300598782E+02  0.45045682288E+02  0.00000000000E+00 0. -1.
         11    1    3    3    0    0  0.11777135519E+01  0.18901437649E+01 -0.59606010533E+00  0.23054154880E+01  0.51100000000E-03 0. -1.
        -11    1    3    3    0    0  0.32345729451E+02  0.85104662274E+01 -0.13174651223E+02  0.35947818908E+02  0.51100000000E-03 0.  1.
        -12    1    3    3    0    0  0.64369080192E+01 -0.53288871697E+00 -0.45298874538E+01  0.78890833166E+01  0.00000000000E+00 0.  1.
</event>
<event>
 7    1  0.1541902E-008  0.4614232E+02  0.7816164E-02  0.1320468E+00
        -11   -1    0    0    0    0  0.00000000000E+00  0.00000000000E+00  0.45593999997E+02  0.45594000000E+02  0.51100000000E-03 0. -1.
         11   -1    0    0    0    0 -0.00000000000E+00 -0.00000000000E+00 -0.45593999997E+02  0.45594000000E+02  0.51100000000E-03 0.  1.
    9900012    2    1    2    0    0  0.42768973718E+02  0.12247564174E+02  0.70657858742E+01  0.46142320172E+02  0.10000021987E+02 0.  0.
         12    1    1    2    0    0 -0.42768973718E+02 -0.12247564174E+02 -0.70657858742E+01  0.45045679828E+02  0.00000000000E+00 0. -1.
         11    1    3    3    0    0  0.22522191154E+02  0.39885365590E+01  0.25732930956E+01  0.23016936283E+02  0.51100000000E-03 0. -1.
        -11    1    3    3    0    0  0.12481550720E+02  0.79628131964E+01  0.40142208513E+01  0.15339800249E+02  0.51100000000E-03 0.  1.
        -12    1    3    3    0    0  0.77652318441E+01  0.29621441881E+00  0.47827192731E+00  0.77855836397E+01  0.00000000000E+00 0.  1.
</event>
<event>
 7    1  0.1541902E-008  0.4614232E+02  0.7816164E-02  0.1320468E+00
        -11   -1    0    0    0    0  0.00000000000E+00  0.00000000000E+00  0.45593999997E+02  0.45594000000E+02  0.51100000000E-03 0.  1.
         11   -1    0    0    0    0 -0.00000000000E+00 -0.00000000000E+00 -0.45593999997E+02  0.45594000000E+02  0.51100000000E-03 0. -1.
    9900012    2    1    2    0    0  0.10165690309E+02 -0.19637941325E+02  0.39244407477E+02  0.46142317441E+02  0.99999970824E+01 0.  0.
         12    1    1    2    0    0 -0.10165690309E+02  0.19637941325E+02 -0.39244407477E+02  0.45045682559E+02  0.00000000000E+00 0. -1.
         11    1    3    3    0    0 -0.60706469034E+00 -0.34645149731E+00  0.66330764073E+01  0.66698020259E+01  0.51100000000E-03 0. -1.
        -11    1    3    3    0    0  0.81432456940E+01 -0.15282802515E+02  0.23686581522E+02  0.29341619717E+02  0.51100000000E-03 0.  1.
        -12    1    3    3    0    0  0.26295093050E+01 -0.40086873128E+01  0.89247495482E+01  0.10130895699E+02  0.00000000000E+00 0.  1.
</event>
<event>
 7    1  0.1541902E-008  0.4614232E+02  0.7816164E-02  0.1320468E+00
        -11   -1    0    0    0    0  0.00000000000E+00  0.00000000000E+00  0.45593999997E+02  0.45594000000E+02  0.51100000000E-03 0.  1.
         11   -1    0    0    0    0 -0.00000000000E+00 -0.00000000000E+00 -0.45593999997E+02  0.45594000000E+02  0.51100000000E-03 0. -1.
    9900012    2    1    2    0    0 -0.11581480456E+02  0.14216415332E+02  0.41144573057E+02  0.46142322666E+02  0.10000044726E+02 0.  0.
         12    1    1    2    0    0  0.11581480456E+02 -0.14216415332E+02 -0.41144573057E+02  0.45045677334E+02  0.00000000000E+00 0. -1.
         11    1    3    3    0    0 -0.25244889318E+01 -0.12466392528E+01  0.41119185733E+01  0.49834755350E+01  0.51100000000E-03 0. -1.
        -11    1    3    3    0    0 -0.37276691647E+01  0.54946493076E+01  0.12808465893E+02  0.14427178768E+02  0.51100000000E-03 0.  1.
         12    1    3    3    0    0 -0.53293223598E+01  0.99684052770E+01  0.24224188591E+02  0.26731668363E+02  0.00000000000E+00 0. -1.
</event>
<event>
 7    1  0.1541902E-008  0.4614232E+02  0.7816164E-02  0.1320468E+00
        -11   -1    0    0    0    0  0.00000000000E+00  0.00000000000E+00  0.45593999997E+02  0.45594000000E+02  0.51100000000E-03 0.  1.
         11   -1    0    0    0    0 -0.00000000000E+00 -0.00000000000E+00 -0.45593999997E+02  0.45594000000E+02  0.51100000000E-03 0. -1.
    9900012    2    1    2    0    0  0.26447224330E+02 -0.31739520374E+02  0.17951614919E+02  0.46142319779E+02  0.10000018400E+02 0.  0.
         12    1    1    2    0    0 -0.26447224330E+02  0.31739520374E+02 -0.17951614919E+02  0.45045680221E+02  0.00000000000E+00 0. -1.
         11    1    3    3    0    0  0.74738036492E+01 -0.44509737117E+01  0.55021272456E+01  0.10292828205E+02  0.51100000000E-03 0. -1.
        -11    1    3    3    0    0  0.11077944249E+02 -0.16986253882E+02  0.10112737854E+02  0.22661004764E+02  0.51100000000E-03 0.  1.
        -12    1    3    3    0    0  0.78954764316E+01 -0.10302292781E+02  0.23367498190E+01  0.13188486810E+02  0.00000000000E+00 0.  1.
</event>
<event>
 7    1  0.1541902E-008  0.4614232E+02  0.7816164E-02  0.1320468E+00
        -11   -1    0    0    0    0  0.00000000000E+00  0.00000000000E+00  0.45593999997E+02  0.45594000000E+02  0.51100000000E-03 0.  1.
         11   -1    0    0    0    0 -0.00000000000E+00 -0.00000000000E+00 -0.45593999997E+02  0.45594000000E+02  0.51100000000E-03 0. -1.
    9900012    2    1    2    0    0 -0.25887016525E+01 -0.10121934210E+01  0.44959843773E+02  0.46142318034E+02  0.10000002485E+02 0.  0.
         12    1    1    2    0    0  0.25887016525E+01  0.10121934210E+01 -0.44959843773E+02  0.45045681966E+02  0.00000000000E+00 0. -1.
         11    1    3    3    0    0  0.27880850320E+01  0.55734762210E+00  0.67043523074E+01  0.72823344224E+01  0.51100000000E-03 0. -1.
        -11    1    3    3    0    0 -0.45464715726E+01 -0.49106508216E+00  0.18467919507E+02  0.19025656358E+02  0.51100000000E-03 0.  1.
        -12    1    3    3    0    0 -0.83031511187E+00 -0.10784759609E+01  0.19787571958E+02  0.19834327253E+02  0.00000000000E+00 0.  1.
</event>
<event>
 7    1  0.1541902E-008  0.4614232E+02  0.7816164E-02  0.1320468E+00
        -11   -1    0    0    0    0  0.00000000000E+00  0.00000000000E+00  0.45593999997E+02  0.45594000000E+02  0.51100000000E-03 0.  1.
         11   -1    0    0    0    0 -0.00000000000E+00 -0.00000000000E+00 -0.45593999997E+02  0.45594000000E+02  0.51100000000E-03 0. -1.
    9900012    2    1    2    0    0 -0.38449213946E+02  0.14321505876E+02  0.18592087932E+02  0.46142319660E+02  0.10000017315E+02 0.  0.
         12    1    1    2    0    0  0.38449213946E+02 -0.14321505876E+02 -0.18592087932E+02  0.45045680340E+02  0.00000000000E+00 0. -1.
         11    1    3    3    0    0 -0.77428218092E+01  0.60611812785E+01  0.73405894404E+01  0.12270837855E+02  0.51100000000E-03 0. -1.
        -11    1    3    3    0    0 -0.12776988008E+02  0.21239340352E+01  0.54570667595E+01  0.14054966959E+02  0.51100000000E-03 0.  1.
         12    1    3    3    0    0 -0.17929404129E+02  0.61363905627E+01  0.57944317320E+01  0.19816514846E+02  0.00000000000E+00 0. -1.
</event>
<event>
 7    1  0.1541902E-008  0.4614232E+02  0.7816164E-02  0.1320468E+00
        -11   -1    0    0    0    0  0.00000000000E+00  0.00000000000E+00  0.45593999997E+02  0.45594000000E+02  0.51100000000E-03 0.  1.
         11   -1    0    0    0    0 -0.00000000000E+00 -0.00000000000E+00 -0.45593999997E+02  0.45594000000E+02  0.51100000000E-03 0. -1.
    9900012    2    1    2    0    0  0.76105499307E+01 -0.43880682261E+02 -0.67586019947E+01  0.46142318222E+02  0.10000004201E+02 0.  0.
         12    1    1    2    0    0 -0.76105499307E+01  0.43880682261E+02  0.67586019947E+01  0.45045681778E+02  0.00000000000E+00 0. -1.
         11    1    3    3    0    0  0.75961409140E+01 -0.37903074099E+02 -0.78690029112E+01  0.39449532190E+02  0.51100000000E-03 0.  1.
        -11    1    3    3    0    0 -0.11438845353E+01 -0.30268446385E+01  0.13665166319E+01  0.35124960159E+01  0.51100000000E-03 0. -1.
         12    1    3    3    0    0  0.11582935520E+01 -0.29507635232E+01 -0.25611571540E+00  0.31802900154E+01  0.00000000000E+00 0. -1.
</event>
<event>
 7    1  0.1541902E-008  0.4614232E+02  0.7816164E-02  0.1320468E+00
        -11   -1    0    0    0    0  0.00000000000E+00  0.00000000000E+00  0.45593999997E+02  0.45594000000E+02  0.51100000000E-03 0. -1.
         11   -1    0    0    0    0 -0.00000000000E+00 -0.00000000000E+00 -0.45593999997E+02  0.45594000000E+02  0.51100000000E-03 0.  1.
    9900012    2    1    2    0    0  0.44860793838E+02 -0.23676898811E+01 -0.33191422093E+01  0.46142317808E+02  0.10000000431E+02 0.  0.
         12    1    1    2    0    0 -0.44860793838E+02  0.23676898811E+01  0.33191422093E+01  0.45045682192E+02  0.00000000000E+00 0. -1.
         11    1    3    3    0    0  0.31657118734E+01  0.23297415928E+01 -0.60706168018E+00  0.39771788619E+01  0.51100000000E-03 0. -1.
        -11    1    3    3    0    0  0.17612603868E+02 -0.32887860718E+01 -0.28007449196E+00  0.17919217919E+02  0.51100000000E-03 0.  1.
         12    1    3    3    0    0  0.24082478096E+02 -0.14086454021E+01 -0.24320060372E+01  0.24245921028E+02  0.00000000000E+00 0. -1.
</event>
<event>
 7    1  0.1541902E-008  0.4614232E+02  0.7816164E-02  0.1320468E+00
        -11   -1    0    0    0    0  0.00000000000E+00  0.00000000000E+00  0.45593999997E+02  0.45594000000E+02  0.51100000000E-03 0.  1.
         11   -1    0    0    0    0 -0.00000000000E+00 -0.00000000000E+00 -0.45593999997E+02  0.45594000000E+02  0.51100000000E-03 0. -1.
    9900012    2    1    2    0    0 -0.28138979453E+00 -0.37459474131E+02  0.25016437980E+02  0.46142317059E+02  0.99999935995E+01 0.  0.
         12    1    1    2    0    0  0.28138979453E+00  0.37459474131E+02 -0.25016437980E+02  0.45045682941E+02  0.00000000000E+00 0. -1.
         11    1    3    3    0    0  0.18402915661E+01 -0.23743135230E+01  0.19591735190E+00  0.30103856271E+01  0.51100000000E-03 0. -1.
        -11    1    3    3    0    0 -0.73336209576E+00 -0.28576549683E+02  0.19380159128E+02  0.34536177841E+02  0.51100000000E-03 0.  1.
        -12    1    3    3    0    0 -0.13883192649E+01 -0.65086109253E+01  0.54403614996E+01  0.85957535914E+01  0.00000000000E+00 0.  1.
</event>
<event>
 7    1  0.1541902E-008  0.4614232E+02  0.7816164E-02  0.1320468E+00
        -11   -1    0    0    0    0  0.00000000000E+00  0.00000000000E+00  0.45593999997E+02  0.45594000000E+02  0.51100000000E-03 0.  1.
         11   -1    0    0    0    0 -0.00000000000E+00 -0.00000000000E+00 -0.45593999997E+02  0.45594000000E+02  0.51100000000E-03 0. -1.
    9900012    2    1    2    0    0  0.28218624635E+02  0.30245768775E+02  0.17833005752E+02  0.46142318750E+02  0.10000009021E+02 0.  0.
         12    1    1    2    0    0 -0.28218624635E+02 -0.30245768775E+02 -0.17833005752E+02  0.45045681250E+02  0.00000000000E+00 0. -1.
         11    1    3    3    0    0  0.45752895312E+01  0.55795294969E+01  0.53644114449E+00  0.72354815364E+01  0.51100000000E-03 0. -1.
        -11    1    3    3    0    0  0.21712681433E+02  0.19351529668E+02  0.15594653779E+02  0.33001749381E+02  0.51100000000E-03 0.  1.
         12    1    3    3    0    0  0.19306536707E+01  0.53147096107E+01  0.17019108283E+01  0.59050878325E+01  0.00000000000E+00 0. -1.
</event>
<event>
 7    1  0.1541902E-008  0.4614232E+02  0.7816164E-02  0.1320468E+00
        -11   -1    0    0    0    0  0.00000000000E+00  0.00000000000E+00  0.45593999997E+02  0.45594000000E+02  0.51100000000E-03 0.  1.
         11   -1    0    0    0    0 -0.00000000000E+00 -0.00000000000E+00 -0.45593999997E+02  0.45594000000E+02  0.51100000000E-03 0. -1.
    9900012    2    1    2    0    0  0.88569015223E+01  0.65691631031E+01  0.43675106869E+02  0.46142316872E+02  0.99999918948E+01 0.  0.
         12    1    1    2    0    0 -0.88569015223E+01 -0.65691631031E+01 -0.43675106869E+02  0.45045683128E+02  0.00000000000E+00 0. -1.
         11    1    3    3    0    0  0.28004768059E+01 -0.17609960843E+01  0.12675301091E+02  0.13099886852E+02  0.51100000000E-03 0. -1.
        -11    1    3    3    0    0  0.58348939736E+01  0.70006556036E+01  0.30028760063E+02  0.31381230023E+02  0.51100000000E-03 0.  1.
         12    1    3    3    0    0  0.22153074279E+00  0.13295035839E+01  0.97104571550E+00  0.16611999973E+01  0.00000000000E+00 0. -1.
</event>
<event>
 7    1  0.1541902E-008  0.4614232E+02  0.7816164E-02  0.1320468E+00
        -11   -1    0    0    0    0  0.00000000000E+00  0.00000000000E+00  0.45593999997E+02  0.45594000000E+02  0.51100000000E-03 0.  1.
         11   -1    0    0    0    0 -0.00000000000E+00 -0.00000000000E+00 -0.45593999997E+02  0.45594000000E+02  0.51100000000E-03 0. -1.
    9900012    2    1    2    0    0  0.38153557310E+02 -0.41157700814E+01  0.23589827199E+02  0.46142318231E+02  0.10000004285E+02 0.  0.
         12    1    1    2    0    0 -0.38153557310E+02  0.41157700814E+01 -0.23589827199E+02  0.45045681769E+02  0.00000000000E+00 0. -1.
         11    1    3    3    0    0  0.76581450606E+00 -0.86610757601E+00  0.17172069714E+00  0.11688038543E+01  0.51100000000E-03 0. -1.
        -11    1    3    3    0    0  0.14484625785E+02  0.26582395517E+01  0.83551077893E+01  0.16931581382E+02  0.51100000000E-03 0.  1.
        -12    1    3    3    0    0  0.22903117019E+02 -0.59079020571E+01  0.15062998713E+02  0.28041932995E+02  0.00000000000E+00 0.  1.
</event>
<event>
 7    1  0.1541902E-008  0.4614232E+02  0.7816164E-02  0.1320468E+00
        -11   -1    0    0    0    0  0.00000000000E+00  0.00000000000E+00  0.45593999997E+02  0.45594000000E+02  0.51100000000E-03 0.  1.
         11   -1    0    0    0    0 -0.00000000000E+00 -0.00000000000E+00 -0.45593999997E+02  0.45594000000E+02  0.51100000000E-03 0. -1.
    9900012    2    1    2    0    0 -0.30436452078E+02  0.31168083084E+02  0.11458030168E+02  0.46142317925E+02  0.10000001495E+02 0.  0.
         12    1    1    2    0    0  0.30436452078E+02 -0.31168083084E+02 -0.11458030168E+02  0.45045682075E+02  0.00000000000E+00 0. -1.
         11    1    3    3    0    0 -0.15585478181E+02  0.15871863453E+02  0.25018132594E+01  0.22384866527E+02  0.51100000000E-03 0. -1.
        -11    1    3    3    0    0 -0.13206508212E+02  0.10870772802E+02  0.82255888407E+01  0.18980144165E+02  0.51100000000E-03 0.  1.
         12    1    3    3    0    0 -0.16444656856E+01  0.44254468294E+01  0.73062806827E+00  0.47773072336E+01  0.00000000000E+00 0. -1.
</event>
<event>
 7    1  0.1541902E-008  0.4614232E+02  0.7816164E-02  0.1320468E+00
        -11   -1    0    0    0    0  0.00000000000E+00  0.00000000000E+00  0.45593999997E+02  0.45594000000E+02  0.51100000000E-03 0.  1.
         11   -1    0    0    0    0 -0.00000000000E+00 -0.00000000000E+00 -0.45593999997E+02  0.45594000000E+02  0.51100000000E-03 0. -1.
    9900012    2    1    2    0    0  0.35032292327E+02  0.19664038364E+02  0.20375909151E+02  0.46142316698E+02  0.99999903053E+01 0.  0.
         12    1    1    2    0    0 -0.35032292327E+02 -0.19664038364E+02 -0.20375909151E+02  0.45045683302E+02  0.00000000000E+00 0. -1.
         11    1    3    3    0    0  0.11719346873E+02  0.34787866584E+01  0.28101284879E+01  0.12543598771E+02  0.51100000000E-03 0. -1.
        -11    1    3    3    0    0  0.21617752337E+02  0.13618148277E+02  0.16010895832E+02  0.30151782106E+02  0.51100000000E-03 0.  1.
        -12    1    3    3    0    0  0.16951931170E+01  0.25671034284E+01  0.15548848314E+01  0.34469358212E+01  0.00000000000E+00 0.  1.
</event>
<event>
 7    1  0.1541902E-008  0.4614232E+02  0.7816164E-02  0.1320468E+00
        -11   -1    0    0    0    0  0.00000000000E+00  0.00000000000E+00  0.45593999997E+02  0.45594000000E+02  0.51100000000E-03 0.  1.
         11   -1    0    0    0    0 -0.00000000000E+00 -0.00000000000E+00 -0.45593999997E+02  0.45594000000E+02  0.51100000000E-03 0. -1.
    9900012    2    1    2    0    0 -0.18692126135E+02  0.39228765957E+02  0.11866838672E+02  0.46142317432E+02  0.99999969998E+01 0.  0.
         12    1    1    2    0    0  0.18692126135E+02 -0.39228765957E+02 -0.11866838672E+02  0.45045682568E+02  0.00000000000E+00 0. -1.
         11    1    3    3    0    0 -0.11518487819E+02  0.20980629615E+02  0.47713351400E+01  0.24405491594E+02  0.51100000000E-03 0. -1.
        -11    1    3    3    0    0 -0.52796567409E+01  0.17487359774E+02  0.53050050843E+01  0.19021714075E+02  0.51100000000E-03 0.  1.
         12    1    3    3    0    0 -0.18939815753E+01  0.76077656851E+00  0.17904984474E+01  0.27151117629E+01  0.00000000000E+00 0. -1.
</event>
<event>
 7    1  0.1541902E-008  0.4614232E+02  0.7816164E-02  0.1320468E+00
        -11   -1    0    0    0    0  0.00000000000E+00  0.00000000000E+00  0.45593999997E+02  0.45594000000E+02  0.51100000000E-03 0. -1.
         11   -1    0    0    0    0 -0.00000000000E+00 -0.00000000000E+00 -0.45593999997E+02  0.45594000000E+02  0.51100000000E-03 0.  1.
    9900012    2    1    2    0    0 -0.37815040706E+02 -0.18030882434E+02 -0.16553651575E+02  0.46142318682E+02  0.10000008393E+02 0.  0.
         12    1    1    2    0    0  0.37815040706E+02  0.18030882434E+02  0.16553651575E+02  0.45045681318E+02  0.00000000000E+00 0. -1.
         11    1    3    3    0    0 -0.28569272292E+01 -0.51829088795E+00 -0.14147044071E+01  0.32298680248E+01  0.51100000000E-03 0. -1.
        -11    1    3    3    0    0 -0.20927580609E+02 -0.71833087732E+01 -0.12126534378E+02  0.25231258220E+02  0.51100000000E-03 0.  1.
        -12    1    3    3    0    0 -0.14030532868E+02 -0.10329282773E+02 -0.30124127900E+01  0.17681192436E+02  0.00000000000E+00 0.  1.
</event>
<event>
 7    1  0.1541902E-008  0.4614232E+02  0.7816164E-02  0.1320468E+00
        -11   -1    0    0    0    0  0.00000000000E+00  0.00000000000E+00  0.45593999997E+02  0.45594000000E+02  0.51100000000E-03 0. -1.
         11   -1    0    0    0    0 -0.00000000000E+00 -0.00000000000E+00 -0.45593999997E+02  0.45594000000E+02  0.51100000000E-03 0.  1.
    9900012    2    1    2    0    0 -0.41139967251E+02  0.67327123188E+01 -0.17067140764E+02  0.46142316362E+02  0.99999872388E+01 0.  0.
         12    1    1    2    0    0  0.41139967251E+02 -0.67327123188E+01  0.17067140764E+02  0.45045683638E+02  0.00000000000E+00 0. -1.
         11    1    3    3    0    0 -0.14437106609E+02  0.86969941512E+00 -0.10831469065E+02  0.18069508756E+02  0.51100000000E-03 0. -1.
        -11    1    3    3    0    0 -0.15623170627E+02  0.40318520782E+01 -0.39767806652E+01  0.16617884232E+02  0.51100000000E-03 0.  1.
         12    1    3    3    0    0 -0.11079690015E+02  0.18311608255E+01 -0.22588910334E+01  0.11454923374E+02  0.00000000000E+00 0. -1.
</event>
<event>
 7    1  0.1541902E-008  0.4614232E+02  0.7816164E-02  0.1320468E+00
        -11   -1    0    0    0    0  0.00000000000E+00  0.00000000000E+00  0.45593999997E+02  0.45594000000E+02  0.51100000000E-03 0. -1.
         11   -1    0    0    0    0 -0.00000000000E+00 -0.00000000000E+00 -0.45593999997E+02  0.45594000000E+02  0.51100000000E-03 0.  1.
    9900012    2    1    2    0    0 -0.35391946578E+02  0.10123132559E+02 -0.25962389899E+02  0.46142318912E+02  0.10000010495E+02 0.  0.
         12    1    1    2    0    0  0.35391946578E+02 -0.10123132559E+02  0.25962389899E+02  0.45045681088E+02  0.00000000000E+00 0. -1.
         11    1    3    3    0    0 -0.23864243061E+02  0.34853235375E+01 -0.12837110975E+02  0.27321072370E+02  0.51100000000E-03 0. -1.
        -11    1    3    3    0    0 -0.38746548268E+01  0.21091466631E+01 -0.29459926647E+01  0.53047453016E+01  0.51100000000E-03 0.  1.
         12    1    3    3    0    0 -0.76530486905E+01  0.45286623586E+01 -0.10179286260E+02  0.13516501240E+02  0.00000000000E+00 0. -1.
</event>
<event>
 7    1  0.1541902E-008  0.4614232E+02  0.7816164E-02  0.1320468E+00
        -11   -1    0    0    0    0  0.00000000000E+00  0.00000000000E+00  0.45593999997E+02  0.45594000000E+02  0.51100000000E-03 0. -1.
         11   -1    0    0    0    0 -0.00000000000E+00 -0.00000000000E+00 -0.45593999997E+02  0.45594000000E+02  0.51100000000E-03 0.  1.
    9900012    2    1    2    0    0  0.19089784922E+02 -0.28106324950E+02 -0.29575799082E+02  0.46142320053E+02  0.10000020898E+02 0.  0.
         12    1    1    2    0    0 -0.19089784922E+02  0.28106324950E+02  0.29575799082E+02  0.45045679947E+02  0.00000000000E+00 0. -1.
         11    1    3    3    0    0  0.21726882602E+01 -0.23599854455E+01 -0.13920621234E+01  0.34968475510E+01  0.51100000000E-03 0. -1.
        -11    1    3    3    0    0  0.54212480428E+01 -0.90602143896E+01 -0.15452087956E+02  0.18714818663E+02  0.51100000000E-03 0.  1.
        -12    1    3    3    0    0  0.11495848619E+02 -0.16686125115E+02 -0.12731649002E+02  0.23930653839E+02  0.00000000000E+00 0.  1.
</event>
<event>
 7    1  0.1541902E-008  0.4614232E+02  0.7816164E-02  0.1320468E+00
        -11   -1    0    0    0    0  0.00000000000E+00  0.00000000000E+00  0.45593999997E+02  0.45594000000E+02  0.51100000000E-03 0.  1.
         11   -1    0    0    0    0 -0.00000000000E+00 -0.00000000000E+00 -0.45593999997E+02  0.45594000000E+02  0.51100000000E-03 0. -1.
    9900012    2    1    2    0    0  0.19574403458E+02  0.24886485181E+02  0.32040896644E+02  0.46142317930E+02  0.10000001543E+02 0.  0.
         12    1    1    2    0    0 -0.19574403458E+02 -0.24886485181E+02 -0.32040896644E+02  0.45045682070E+02  0.00000000000E+00 0. -1.
         11    1    3    3    0    0  0.14402238203E+02  0.12176690383E+02  0.20867759062E+02  0.28127559839E+02  0.51100000000E-03 0. -1.
        -11    1    3    3    0    0  0.20653086748E+01  0.78392307007E+01  0.81466322675E+01  0.11492895869E+02  0.51100000000E-03 0.  1.
        -12    1    3    3    0    0  0.31068565796E+01  0.48705640965E+01  0.30265053146E+01  0.65218622221E+01  0.00000000000E+00 0.  1.
</event>
<event>
 7    1  0.1541902E-008  0.4614232E+02  0.7816164E-02  0.1320468E+00
        -11   -1    0    0    0    0  0.00000000000E+00  0.00000000000E+00  0.45593999997E+02  0.45594000000E+02  0.51100000000E-03 0.  1.
         11   -1    0    0    0    0 -0.00000000000E+00 -0.00000000000E+00 -0.45593999997E+02  0.45594000000E+02  0.51100000000E-03 0. -1.
    9900012    2    1    2    0    0  0.42096418364E+02  0.99583617325E+01  0.12563279606E+02  0.46142318721E+02  0.10000008749E+02 0.  0.
         12    1    1    2    0    0 -0.42096418364E+02 -0.99583617325E+01 -0.12563279606E+02  0.45045681279E+02  0.00000000000E+00 0. -1.
         11    1    3    3    0    0  0.42582435122E+01  0.56276795860E+00 -0.28077070964E+00  0.43044370175E+01  0.51100000000E-03 0. -1.
        -11    1    3    3    0    0  0.29029088472E+02  0.88103071551E+01  0.13008024654E+02  0.33007850511E+02  0.51100000000E-03 0.  1.
        -12    1    3    3    0    0  0.88090863797E+01  0.58528661883E+00 -0.16397433885E+00  0.88300311922E+01  0.00000000000E+00 0.  1.
</event>
<event>
 7    1  0.1541902E-008  0.4614232E+02  0.7816164E-02  0.1320468E+00
        -11   -1    0    0    0    0  0.00000000000E+00  0.00000000000E+00  0.45593999997E+02  0.45594000000E+02  0.51100000000E-03 0.  1.
         11   -1    0    0    0    0 -0.00000000000E+00 -0.00000000000E+00 -0.45593999997E+02  0.45594000000E+02  0.51100000000E-03 0. -1.
    9900012    2    1    2    0    0 -0.10633526441E+02 -0.41692725268E+02  0.13332601299E+02  0.46142317829E+02  0.10000000615E+02 0.  0.
         12    1    1    2    0    0  0.10633526441E+02  0.41692725268E+02 -0.13332601299E+02  0.45045682171E+02  0.00000000000E+00 0. -1.
         11    1    3    3    0    0 -0.14810203850E+01 -0.14545938513E+02  0.48595813965E+01  0.15407572171E+02  0.51100000000E-03 0. -1.
        -11    1    3    3    0    0 -0.68600080873E+01 -0.19692535554E+02  0.94134539502E+01  0.22879440182E+02  0.51100000000E-03 0.  1.
         12    1    3    3    0    0 -0.22924979691E+01 -0.74542512013E+01 -0.94043404767E+00  0.78553054751E+01  0.00000000000E+00 0. -1.
</event>
<event>
 7    1  0.1541902E-008  0.4614232E+02  0.7816164E-02  0.1320468E+00
        -11   -1    0    0    0    0  0.00000000000E+00  0.00000000000E+00  0.45593999997E+02  0.45594000000E+02  0.51100000000E-03 0.  1.
         11   -1    0    0    0    0 -0.00000000000E+00 -0.00000000000E+00 -0.45593999997E+02  0.45594000000E+02  0.51100000000E-03 0. -1.
    9900012    2    1    2    0    0 -0.15585127103E+02  0.34438649055E+02  0.24498912132E+02  0.46142318396E+02  0.10000005786E+02 0.  0.
         12    1    1    2    0    0  0.15585127103E+02 -0.34438649055E+02 -0.24498912132E+02  0.45045681604E+02  0.00000000000E+00 0. -1.
         11    1    3    3    0    0  0.51004106039E+00  0.51918073073E+01  0.27433708572E+01  0.58941571849E+01  0.51100000000E-03 0. -1.
        -11    1    3    3    0    0 -0.12458102085E+02  0.25514482644E+02  0.20071129779E+02  0.34771301141E+02  0.51100000000E-03 0.  1.
        -12    1    3    3    0    0 -0.36370660791E+01  0.37323591029E+01  0.16844114961E+01  0.54768600699E+01  0.00000000000E+00 0.  1.
</event>
<event>
 7    1  0.1541902E-008  0.4614232E+02  0.7816164E-02  0.1320468E+00
        -11   -1    0    0    0    0  0.00000000000E+00  0.00000000000E+00  0.45593999997E+02  0.45594000000E+02  0.51100000000E-03 0. -1.
         11   -1    0    0    0    0 -0.00000000000E+00 -0.00000000000E+00 -0.45593999997E+02  0.45594000000E+02  0.51100000000E-03 0.  1.
    9900012    2    1    2    0    0 -0.41492983879E+01  0.20695037673E+02 -0.39794625810E+02  0.46142317580E+02  0.99999983443E+01 0.  0.
         12    1    1    2    0    0  0.41492983879E+01 -0.20695037673E+02  0.39794625810E+02  0.45045682420E+02  0.00000000000E+00 0. -1.
         11    1    3    3    0    0 -0.40808815008E+01  0.13531620546E+02 -0.22891601139E+02  0.26903229386E+02  0.51100000000E-03 0. -1.
        -11    1    3    3    0    0 -0.25918440513E+01  0.56918487831E+01 -0.11993956338E+02  0.13526632510E+02  0.51100000000E-03 0.  1.
         12    1    3    3    0    0  0.25234271643E+01  0.14715683434E+01 -0.49090683332E+01  0.57124556841E+01  0.00000000000E+00 0. -1.
</event>
<event>
 7    1  0.1541902E-008  0.4614232E+02  0.7816164E-02  0.1320468E+00
        -11   -1    0    0    0    0  0.00000000000E+00  0.00000000000E+00  0.45593999997E+02  0.45594000000E+02  0.51100000000E-03 0.  1.
         11   -1    0    0    0    0 -0.00000000000E+00 -0.00000000000E+00 -0.45593999997E+02  0.45594000000E+02  0.51100000000E-03 0. -1.
    9900012    2    1    2    0    0 -0.17842182374E+02  0.31414962970E+02  0.26904833807E+02  0.46142318159E+02  0.10000003632E+02 0.  0.
         12    1    1    2    0    0  0.17842182374E+02 -0.31414962970E+02 -0.26904833807E+02  0.45045681841E+02  0.00000000000E+00 0. -1.
         11    1    3    3    0    0 -0.34594598673E+01  0.55984904622E+01  0.95920723478E+01  0.11632661356E+02  0.51100000000E-03 0. -1.
        -11    1    3    3    0    0 -0.11470209931E+02  0.17275238598E+02  0.10796155817E+02  0.23378549253E+02  0.51100000000E-03 0.  1.
         12    1    3    3    0    0 -0.29125125757E+01  0.85412339100E+01  0.65166056425E+01  0.11131107551E+02  0.00000000000E+00 0. -1.
</event>
<event>
 7    1  0.1541902E-008  0.4614232E+02  0.7816164E-02  0.1320468E+00
        -11   -1    0    0    0    0  0.00000000000E+00  0.00000000000E+00  0.45593999997E+02  0.45594000000E+02  0.51100000000E-03 0.  1.
         11   -1    0    0    0    0 -0.00000000000E+00 -0.00000000000E+00 -0.45593999997E+02  0.45594000000E+02  0.51100000000E-03 0. -1.
    9900012    2    1    2    0    0 -0.37528589436E+02  0.15496955843E+02  0.19508020498E+02  0.46142317308E+02  0.99999958641E+01 0.  0.
         12    1    1    2    0    0  0.37528589436E+02 -0.15496955843E+02 -0.19508020498E+02  0.45045682692E+02  0.00000000000E+00 0. -1.
         11    1    3    3    0    0 -0.25213666186E+02  0.79821751398E+01  0.12215322852E+02  0.29131738622E+02  0.51100000000E-03 0. -1.
        -11    1    3    3    0    0 -0.11845407497E+02  0.58394219693E+01  0.76096726333E+01  0.15242035479E+02  0.51100000000E-03 0.  1.
         12    1    3    3    0    0 -0.46951575368E+00  0.16753587341E+01 -0.31697498730E+00  0.17685432066E+01  0.00000000000E+00 0. -1.
</event>
<event>
 7    1  0.1541902E-008  0.4614232E+02  0.7816164E-02  0.1320468E+00
        -11   -1    0    0    0    0  0.00000000000E+00  0.00000000000E+00  0.45593999997E+02  0.45594000000E+02  0.51100000000E-03 0. -1.
         11   -1    0    0    0    0 -0.00000000000E+00 -0.00000000000E+00 -0.45593999997E+02  0.45594000000E+02  0.51100000000E-03 0.  1.
    9900012    2    1    2    0    0  0.16810828476E+02  0.36361834815E+02 -0.20599189019E+02  0.46142316817E+02  0.99999913892E+01 0.  0.
         12    1    1    2    0    0 -0.16810828476E+02 -0.36361834815E+02  0.20599189019E+02  0.45045683183E+02  0.00000000000E+00 0. -1.
         11    1    3    3    0    0  0.95126699339E+01  0.21183055130E+02 -0.14412320926E+02  0.27329978204E+02  0.51100000000E-03 0. -1.
        -11    1    3    3    0    0  0.76190956578E+01  0.11985288336E+02 -0.64376426314E+01  0.15592979127E+02  0.51100000000E-03 0.  1.
         12    1    3    3    0    0 -0.32093711528E+00  0.31934913492E+01  0.25077453817E+00  0.32193594857E+01  0.00000000000E+00 0. -1.
</event>
<event>
 7    1  0.1541902E-008  0.4614232E+02  0.7816164E-02  0.1320468E+00
        -11   -1    0    0    0    0  0.00000000000E+00  0.00000000000E+00  0.45593999997E+02  0.45594000000E+02  0.51100000000E-03 0.  1.
         11   -1    0    0    0    0 -0.00000000000E+00 -0.00000000000E+00 -0.45593999997E+02  0.45594000000E+02  0.51100000000E-03 0. -1.
    9900012    2    1    2    0    0  0.44983996415E+02 -0.20657606989E+01  0.11341185202E+01  0.46142317349E+02  0.99999962408E+01 0.  0.
         12    1    1    2    0    0 -0.44983996415E+02  0.20657606989E+01 -0.11341185202E+01  0.45045682651E+02  0.00000000000E+00 0. -1.
         11    1    3    3    0    0  0.29338212310E+01 -0.62716234938E+00  0.18358633656E+01  0.35172480985E+01  0.51100000000E-03 0. -1.
        -11    1    3    3    0    0  0.36876520995E+02  0.10211872449E+01 -0.60411448586E+00  0.36895603785E+02  0.51100000000E-03 0.  1.
        -12    1    3    3    0    0  0.51736541887E+01 -0.24597855944E+01 -0.97630359462E-01  0.57294654656E+01  0.00000000000E+00 0.  1.
</event>
<event>
 7    1  0.1541902E-008  0.4614232E+02  0.7816164E-02  0.1320468E+00
        -11   -1    0    0    0    0  0.00000000000E+00  0.00000000000E+00  0.45593999997E+02  0.45594000000E+02  0.51100000000E-03 0. -1.
         11   -1    0    0    0    0 -0.00000000000E+00 -0.00000000000E+00 -0.45593999997E+02  0.45594000000E+02  0.51100000000E-03 0.  1.
    9900012    2    1    2    0    0 -0.21874509633E+02  0.40546277092E+01 -0.39168600979E+02  0.46142317851E+02  0.10000000824E+02 0.  0.
         12    1    1    2    0    0  0.21874509633E+02 -0.40546277092E+01  0.39168600979E+02  0.45045682149E+02  0.00000000000E+00 0. -1.
         11    1    3    3    0    0 -0.24725151974E+01  0.24578874758E+01 -0.25046086434E+01  0.42927388650E+01  0.51100000000E-03 0. -1.
        -11    1    3    3    0    0 -0.14932397191E+02  0.54596351247E+00 -0.31937241952E+02  0.35259920389E+02  0.51100000000E-03 0.  1.
        -12    1    3    3    0    0 -0.44695972446E+01  0.10507767209E+01 -0.47267503836E+01  0.65896585977E+01  0.00000000000E+00 0.  1.
</event>
<event>
 7    1  0.1541902E-008  0.4614232E+02  0.7816164E-02  0.1320468E+00
        -11   -1    0    0    0    0  0.00000000000E+00  0.00000000000E+00  0.45593999997E+02  0.45594000000E+02  0.51100000000E-03 0. -1.
         11   -1    0    0    0    0 -0.00000000000E+00 -0.00000000000E+00 -0.45593999997E+02  0.45594000000E+02  0.51100000000E-03 0.  1.
    9900012    2    1    2    0    0 -0.41805764291E+02  0.54605119620E+01  0.15861093030E+02  0.46142318842E+02  0.10000009861E+02 0.  0.
         12    1    1    2    0    0  0.41805764291E+02 -0.54605119620E+01 -0.15861093030E+02  0.45045681158E+02  0.00000000000E+00 0. -1.
         11    1    3    3    0    0 -0.17289148989E+02 -0.99358457221E+00  0.89668612360E+01  0.19501448247E+02  0.51100000000E-03 0. -1.
        -11    1    3    3    0    0 -0.19168889911E+02  0.56018590455E+01  0.71696882075E+01  0.21218661466E+02  0.51100000000E-03 0.  1.
         12    1    3    3    0    0 -0.53477253914E+01  0.85223748871E+00 -0.27545641337E+00  0.54222091287E+01  0.00000000000E+00 0. -1.
</event>
<event>
 7    1  0.1541902E-008  0.4614232E+02  0.7816164E-02  0.1320468E+00
        -11   -1    0    0    0    0  0.00000000000E+00  0.00000000000E+00  0.45593999997E+02  0.45594000000E+02  0.51100000000E-03 0.  1.
         11   -1    0    0    0    0 -0.00000000000E+00 -0.00000000000E+00 -0.45593999997E+02  0.45594000000E+02  0.51100000000E-03 0. -1.
    9900012    2    1    2    0    0  0.16209546803E-01 -0.35819725924E+02  0.27314107124E+02  0.46142317899E+02  0.10000001255E+02 0.  0.
         12    1    1    2    0    0 -0.16209546803E-01  0.35819725924E+02 -0.27314107124E+02  0.45045682101E+02  0.00000000000E+00 0. -1.
         11    1    3    3    0    0 -0.20553477064E+01 -0.41157633141E+01  0.17735488502E+01  0.49304601851E+01  0.51100000000E-03 0. -1.
        -11    1    3    3    0    0  0.18401943480E+01 -0.31401277171E+02  0.25855363400E+02  0.40717641631E+02  0.51100000000E-03 0.  1.
         12    1    3    3    0    0  0.23136290519E+00 -0.30268543860E+00 -0.31480512629E+00  0.49421608248E+00  0.00000000000E+00 0. -1.
</event>
<event>
 7    1  0.1541902E-008  0.4614232E+02  0.7816164E-02  0.1320468E+00
        -11   -1    0    0    0    0  0.00000000000E+00  0.00000000000E+00  0.45593999997E+02  0.45594000000E+02  0.51100000000E-03 0.  1.
         11   -1    0    0    0    0 -0.00000000000E+00 -0.00000000000E+00 -0.45593999997E+02  0.45594000000E+02  0.51100000000E-03 0. -1.
    9900012    2    1    2    0    0 -0.37165487374E+02 -0.17415840856E+02  0.18561475826E+02  0.46142319305E+02  0.10000014080E+02 0.  0.
         12    1    1    2    0    0  0.37165487374E+02  0.17415840856E+02 -0.18561475826E+02  0.45045680695E+02  0.00000000000E+00 0. -1.
         11    1    3    3    0    0 -0.22248572293E+02 -0.82219611944E+01  0.59686169688E+01  0.24458618190E+02  0.51100000000E-03 0. -1.
        -11    1    3    3    0    0 -0.44325153140E+01 -0.17095804133E+01  0.38554958017E+01  0.61183907473E+01  0.51100000000E-03 0.  1.
         12    1    3    3    0    0 -0.10484399766E+02 -0.74842992482E+01  0.87373630550E+01  0.15565310368E+02  0.00000000000E+00 0. -1.
</event>
<event>
 7    1  0.1541902E-008  0.4614232E+02  0.7816164E-02  0.1320468E+00
        -11   -1    0    0    0    0  0.00000000000E+00  0.00000000000E+00  0.45593999997E+02  0.45594000000E+02  0.51100000000E-03 0. -1.
         11   -1    0    0    0    0 -0.00000000000E+00 -0.00000000000E+00 -0.45593999997E+02  0.45594000000E+02  0.51100000000E-03 0.  1.
    9900012    2    1    2    0    0  0.26972252059E+02 -0.10603762972E+02 -0.34484362546E+02  0.46142318403E+02  0.10000005856E+02 0.  0.
         12    1    1    2    0    0 -0.26972252059E+02  0.10603762972E+02  0.34484362546E+02  0.45045681597E+02  0.00000000000E+00 0. -1.
         11    1    3    3    0    0  0.15466703723E+02 -0.77577144022E+01 -0.24860148696E+02  0.30289074767E+02  0.51100000000E-03 0. -1.
        -11    1    3    3    0    0  0.11372911696E+02 -0.18086085775E+01 -0.84674984038E+01  0.14293799877E+02  0.51100000000E-03 0.  1.
        -12    1    3    3    0    0  0.13263664003E+00 -0.10374399922E+01 -0.11567154465E+01  0.15594437598E+01  0.00000000000E+00 0.  1.
</event>
<event>
 7    1  0.1541902E-008  0.4614232E+02  0.7816164E-02  0.1320468E+00
        -11   -1    0    0    0    0  0.00000000000E+00  0.00000000000E+00  0.45593999997E+02  0.45594000000E+02  0.51100000000E-03 0.  1.
         11   -1    0    0    0    0 -0.00000000000E+00 -0.00000000000E+00 -0.45593999997E+02  0.45594000000E+02  0.51100000000E-03 0. -1.
    9900012    2    1    2    0    0  0.15466397714E+02  0.36232558184E+02  0.21842749962E+02  0.46142318112E+02  0.10000003202E+02 0.  0.
         12    1    1    2    0    0 -0.15466397714E+02 -0.36232558184E+02 -0.21842749962E+02  0.45045681888E+02  0.00000000000E+00 0. -1.
         11    1    3    3    0    0  0.33652936712E+01  0.11964393298E+02  0.27291766081E+01  0.12724791303E+02  0.51100000000E-03 0. -1.
        -11    1    3    3    0    0  0.92231797541E+01  0.19667609405E+02  0.17038190652E+02  0.27607641070E+02  0.51100000000E-03 0.  1.
        -12    1    3    3    0    0  0.28779242885E+01  0.46005554813E+01  0.20753827023E+01  0.58098857397E+01  0.00000000000E+00 0.  1.
</event>
<event>
 7    1  0.1541902E-008  0.4614232E+02  0.7816164E-02  0.1320468E+00
        -11   -1    0    0    0    0  0.00000000000E+00  0.00000000000E+00  0.45593999997E+02  0.45594000000E+02  0.51100000000E-03 0.  1.
         11   -1    0    0    0    0 -0.00000000000E+00 -0.00000000000E+00 -0.45593999997E+02  0.45594000000E+02  0.51100000000E-03 0. -1.
    9900012    2    1    2    0    0 -0.17207083294E+02 -0.10145040884E+02  0.40374593783E+02  0.46142318818E+02  0.10000009637E+02 0.  0.
         12    1    1    2    0    0  0.17207083294E+02  0.10145040884E+02 -0.40374593783E+02  0.45045681182E+02  0.00000000000E+00 0. -1.
         11    1    3    3    0    0 -0.12259297736E+02 -0.55117648569E+01  0.22212204692E+02  0.25962510864E+02  0.51100000000E-03 0. -1.
        -11    1    3    3    0    0 -0.55368086210E+01 -0.52668670762E+01  0.17481982817E+02  0.19079199720E+02  0.51100000000E-03 0.  1.
         12    1    3    3    0    0  0.58902306306E+00  0.63359104902E+00  0.68040627383E+00  0.11006082335E+01  0.00000000000E+00 0. -1.
</event>
<event>
 7    1  0.1541902E-008  0.4614232E+02  0.7816164E-02  0.1320468E+00
        -11   -1    0    0    0    0  0.00000000000E+00  0.00000000000E+00  0.45593999997E+02  0.45594000000E+02  0.51100000000E-03 0.  1.
         11   -1    0    0    0    0 -0.00000000000E+00 -0.00000000000E+00 -0.45593999997E+02  0.45594000000E+02  0.51100000000E-03 0. -1.
    9900012    2    1    2    0    0  0.22327071544E+01  0.32692985501E+02  0.30907882108E+02  0.46142318092E+02  0.10000003013E+02 0.  0.
         12    1    1    2    0    0 -0.22327071544E+01 -0.32692985501E+02 -0.30907882108E+02  0.45045681908E+02  0.00000000000E+00 0. -1.
         11    1    3    3    0    0 -0.15753528514E+01  0.72518879336E+01  0.11367775963E+02  0.13575637952E+02  0.51100000000E-03 0. -1.
        -11    1    3    3    0    0  0.16754095157E+01  0.99030758638E+01  0.10187644711E+02  0.14306152999E+02  0.51100000000E-03 0.  1.
         12    1    3    3    0    0  0.21326504900E+01  0.15538021703E+02  0.93524614345E+01  0.18260527141E+02  0.00000000000E+00 0. -1.
</event>
<event>
 7    1  0.1541902E-008  0.4614232E+02  0.7816164E-02  0.1320468E+00
        -11   -1    0    0    0    0  0.00000000000E+00  0.00000000000E+00  0.45593999997E+02  0.45594000000E+02  0.51100000000E-03 0. -1.
         11   -1    0    0    0    0 -0.00000000000E+00 -0.00000000000E+00 -0.45593999997E+02  0.45594000000E+02  0.51100000000E-03 0.  1.
    9900012    2    1    2    0    0 -0.43338899227E+02  0.93289200386E+01 -0.79890250235E+01  0.46142318119E+02  0.10000003263E+02 0.  0.
         12    1    1    2    0    0  0.43338899227E+02 -0.93289200386E+01  0.79890250235E+01  0.45045681881E+02  0.00000000000E+00 0. -1.
         11    1    3    3    0    0 -0.93228129081E+01  0.40125518592E+01  0.17016365691E+01  0.10291306050E+02  0.51100000000E-03 0. -1.
        -11    1    3    3    0    0 -0.27229942893E+02  0.33156344227E+01 -0.80584673568E+01  0.28590245154E+02  0.51100000000E-03 0.  1.
        -12    1    3    3    0    0 -0.67861434265E+01  0.20007337567E+01 -0.16321942357E+01  0.72607669149E+01  0.00000000000E+00 0.  1.
</event>
<event>
 7    1  0.1541902E-008  0.4614232E+02  0.7816164E-02  0.1320468E+00
        -11   -1    0    0    0    0  0.00000000000E+00  0.00000000000E+00  0.45593999997E+02  0.45594000000E+02  0.51100000000E-03 0. -1.
         11   -1    0    0    0    0 -0.00000000000E+00 -0.00000000000E+00 -0.45593999997E+02  0.45594000000E+02  0.51100000000E-03 0.  1.
    9900012    2    1    2    0    0 -0.89573889247E+00 -0.40557279988E+02 -0.19581065961E+02  0.46142318161E+02  0.10000003650E+02 0.  0.
         12    1    1    2    0    0  0.89573889247E+00  0.40557279988E+02  0.19581065961E+02  0.45045681839E+02  0.00000000000E+00 0. -1.
         11    1    3    3    0    0  0.18107337068E+01 -0.32527484928E+01 -0.19169496045E+01  0.41873410850E+01  0.51100000000E-03 0. -1.
        -11    1    3    3    0    0 -0.17206961801E+01 -0.43967465810E+01 -0.29270664019E+00  0.47305235736E+01  0.51100000000E-03 0.  1.
        -12    1    3    3    0    0 -0.98577641917E+00 -0.32907784914E+02 -0.17371409716E+02  0.37224453503E+02  0.00000000000E+00 0.  1.
</event>
<event>
 7    1  0.1541902E-008  0.4614232E+02  0.7816164E-02  0.1320468E+00
        -11   -1    0    0    0    0  0.00000000000E+00  0.00000000000E+00  0.45593999997E+02  0.45594000000E+02  0.51100000000E-03 0.  1.
         11   -1    0    0    0    0 -0.00000000000E+00 -0.00000000000E+00 -0.45593999997E+02  0.45594000000E+02  0.51100000000E-03 0. -1.
    9900012    2    1    2    0    0  0.22808665384E+01 -0.37349689106E+02  0.25078117329E+02  0.46142316553E+02  0.99999889809E+01 0.  0.
         12    1    1    2    0    0 -0.22808665384E+01  0.37349689106E+02 -0.25078117329E+02  0.45045683447E+02  0.00000000000E+00 0. -1.
         11    1    3    3    0    0 -0.34012411371E+01 -0.16337442013E+02  0.11996156662E+02  0.20552085727E+02  0.51100000000E-03 0. -1.
        -11    1    3    3    0    0  0.41092509345E+01 -0.16915120031E+02  0.11758288045E+02  0.21006298268E+02  0.51100000000E-03 0.  1.
         12    1    3    3    0    0  0.15728567410E+01 -0.40971270621E+01  0.13236726225E+01  0.45839325587E+01  0.00000000000E+00 0. -1.
</event>
<event>
 7    1  0.1541902E-008  0.4614232E+02  0.7816164E-02  0.1320468E+00
        -11   -1    0    0    0    0  0.00000000000E+00  0.00000000000E+00  0.45593999997E+02  0.45594000000E+02  0.51100000000E-03 0. -1.
         11   -1    0    0    0    0 -0.00000000000E+00 -0.00000000000E+00 -0.45593999997E+02  0.45594000000E+02  0.51100000000E-03 0.  1.
    9900012    2    1    2    0    0 -0.38020792813E+02  0.23381038507E+02  0.60712268358E+01  0.46142318263E+02  0.10000004578E+02 0.  0.
         12    1    1    2    0    0  0.38020792813E+02 -0.23381038507E+02 -0.60712268358E+01  0.45045681737E+02  0.00000000000E+00 0. -1.
         11    1    3    3    0    0 -0.75162514155E+01  0.77974486701E+01  0.19522789712E+01  0.11004800523E+02  0.51100000000E-03 0. -1.
        -11    1    3    3    0    0 -0.14079973196E+02  0.10003376733E+02 -0.15377276726E+00  0.17272429985E+02  0.51100000000E-03 0.  1.
        -12    1    3    3    0    0 -0.16424568202E+02  0.55802131044E+01  0.42727206318E+01  0.17865087755E+02  0.00000000000E+00 0.  1.
</event>
<event>
 7    1  0.1541902E-008  0.4614232E+02  0.7816164E-02  0.1320468E+00
        -11   -1    0    0    0    0  0.00000000000E+00  0.00000000000E+00  0.45593999997E+02  0.45594000000E+02  0.51100000000E-03 0.  1.
         11   -1    0    0    0    0 -0.00000000000E+00 -0.00000000000E+00 -0.45593999997E+02  0.45594000000E+02  0.51100000000E-03 0. -1.
    9900012    2    1    2    0    0 -0.11630882407E+02  0.40447231943E+02  0.16057943673E+02  0.46142317050E+02  0.99999935172E+01 0.  0.
         12    1    1    2    0    0  0.11630882407E+02 -0.40447231943E+02 -0.16057943673E+02  0.45045682950E+02  0.00000000000E+00 0. -1.
         11    1    3    3    0    0 -0.27853978608E+01  0.17255761089E+01  0.95286181528E+00  0.34123305893E+01  0.51100000000E-03 0. -1.
        -11    1    3    3    0    0 -0.85443614455E+01  0.32972874445E+02  0.11564046681E+02  0.35971429463E+02  0.51100000000E-03 0.  1.
         12    1    3    3    0    0 -0.30112310108E+00  0.57487813891E+01  0.35410351759E+01  0.67585569982E+01  0.00000000000E+00 0. -1.
</event>
<event>
 7    1  0.1541902E-008  0.4614232E+02  0.7816164E-02  0.1320468E+00
        -11   -1    0    0    0    0  0.00000000000E+00  0.00000000000E+00  0.45593999997E+02  0.45594000000E+02  0.51100000000E-03 0.  1.
         11   -1    0    0    0    0 -0.00000000000E+00 -0.00000000000E+00 -0.45593999997E+02  0.45594000000E+02  0.51100000000E-03 0. -1.
    9900012    2    1    2    0    0 -0.15151923335E+02  0.70340820996E+01  0.41833651230E+02  0.46142317998E+02  0.10000002163E+02 0.  0.
         12    1    1    2    0    0  0.15151923335E+02 -0.70340820996E+01 -0.41833651230E+02  0.45045682002E+02  0.00000000000E+00 0. -1.
         11    1    3    3    0    0 -0.30934822204E+01  0.42665380113E+01  0.14141809866E+02  0.15091844333E+02  0.51100000000E-03 0. -1.
        -11    1    3    3    0    0 -0.78876617998E+01  0.31651123821E+01  0.24020745119E+02  0.25479979227E+02  0.51100000000E-03 0.  1.
         12    1    3    3    0    0 -0.41707793146E+01 -0.39756829384E+00  0.36710962458E+01  0.55704944381E+01  0.00000000000E+00 0. -1.
</event>
<event>
 7    1  0.1541902E-008  0.4614232E+02  0.7816164E-02  0.1320468E+00
        -11   -1    0    0    0    0  0.00000000000E+00  0.00000000000E+00  0.45593999997E+02  0.45594000000E+02  0.51100000000E-03 0. -1.
         11   -1    0    0    0    0 -0.00000000000E+00 -0.00000000000E+00 -0.45593999997E+02  0.45594000000E+02  0.51100000000E-03 0.  1.
    9900012    2    1    2    0    0 -0.45175885979E+01  0.19587853544E+02 -0.40311547841E+02  0.46142317604E+02  0.99999985653E+01 0.  0.
         12    1    1    2    0    0  0.45175885979E+01 -0.19587853544E+02  0.40311547841E+02  0.45045682396E+02  0.00000000000E+00 0. -1.
         11    1    3    3    0    0 -0.30525028648E+01  0.33602042166E+01 -0.64121824254E+01  0.78565151202E+01  0.51100000000E-03 0. -1.
        -11    1    3    3    0    0  0.27019568644E+01  0.36424528430E+01 -0.88886204738E+01  0.99787578284E+01  0.51100000000E-03 0.  1.
        -12    1    3    3    0    0 -0.41670425975E+01  0.12585196485E+02 -0.25010744942E+02  0.28307044655E+02  0.00000000000E+00 0.  1.
</event>
<event>
 7    1  0.1541902E-008  0.4614232E+02  0.7816164E-02  0.1320468E+00
        -11   -1    0    0    0    0  0.00000000000E+00  0.00000000000E+00  0.45593999997E+02  0.45594000000E+02  0.51100000000E-03 0. -1.
         11   -1    0    0    0    0 -0.00000000000E+00 -0.00000000000E+00 -0.45593999997E+02  0.45594000000E+02  0.51100000000E-03 0.  1.
    9900012    2    1    2    0    0  0.14067817818E+02 -0.36486764859E+02 -0.22359022475E+02  0.46142318807E+02  0.10000009539E+02 0.  0.
         12    1    1    2    0    0 -0.14067817818E+02  0.36486764859E+02  0.22359022475E+02  0.45045681193E+02  0.00000000000E+00 0. -1.
         11    1    3    3    0    0  0.13265228190E+01 -0.47738686552E+01 -0.12814646512E+00  0.49564005593E+01  0.51100000000E-03 0. -1.
        -11    1    3    3    0    0  0.39024587397E+01 -0.17293334395E+02 -0.12228366660E+02  0.21536516667E+02  0.51100000000E-03 0.  1.
         12    1    3    3    0    0  0.88388362591E+01 -0.14419561809E+02 -0.10002509350E+02  0.19649401581E+02  0.00000000000E+00 0. -1.
</event>
<event>
 7    1  0.1541902E-008  0.4614231E+02  0.7816164E-02  0.1320468E+00
        -11   -1    0    0    0    0  0.00000000000E+00  0.00000000000E+00  0.45593999997E+02  0.45594000000E+02  0.51100000000E-03 0.  1.
         11   -1    0    0    0    0 -0.00000000000E+00 -0.00000000000E+00 -0.45593999997E+02  0.45594000000E+02  0.51100000000E-03 0. -1.
    9900012    2    1    2    0    0  0.31536135606E+02 -0.48942795799E+01  0.31790443811E+02  0.46142310536E+02  0.99999341166E+01 0.  0.
         12    1    1    2    0    0 -0.31536135606E+02  0.48942795799E+01 -0.31790443811E+02  0.45045689464E+02  0.00000000000E+00 0. -1.
         11    1    3    3    0    0  0.19578206286E+02 -0.38843946284E+01  0.24026658562E+02  0.31235796851E+02  0.51100000000E-03 0. -1.
        -11    1    3    3    0    0  0.11656755461E+02 -0.14701310434E+01  0.62758961667E+01  0.13320214192E+02  0.51100000000E-03 0.  1.
         12    1    3    3    0    0  0.30117385824E+00  0.46024609201E+00  0.14878890829E+01  0.15862994929E+01  0.00000000000E+00 0. -1.
</event>
<event>
 7    1  0.1541902E-008  0.4614232E+02  0.7816164E-02  0.1320468E+00
        -11   -1    0    0    0    0  0.00000000000E+00  0.00000000000E+00  0.45593999997E+02  0.45594000000E+02  0.51100000000E-03 0.  1.
         11   -1    0    0    0    0 -0.00000000000E+00 -0.00000000000E+00 -0.45593999997E+02  0.45594000000E+02  0.51100000000E-03 0. -1.
    9900012    2    1    2    0    0  0.30796054018E+02  0.23364991452E+01  0.32791120216E+02  0.46142315008E+02  0.99999748990E+01 0.  0.
         12    1    1    2    0    0 -0.30796054018E+02 -0.23364991452E+01 -0.32791120216E+02  0.45045684992E+02  0.00000000000E+00 0. -1.
         11    1    3    3    0    0  0.31384031496E+01 -0.15817267253E+01  0.97087078724E+00  0.36460971064E+01  0.51100000000E-03 0. -1.
        -11    1    3    3    0    0  0.16813926852E+02  0.35047098780E+01  0.17399061290E+02  0.24448281362E+02  0.51100000000E-03 0.  1.
        -12    1    3    3    0    0  0.10843724016E+02  0.41351599255E+00  0.14421188139E+02  0.18047936540E+02  0.00000000000E+00 0.  1.
</event>
<event>
 7    1  0.1541902E-008  0.4614232E+02  0.7816164E-02  0.1320468E+00
        -11   -1    0    0    0    0  0.00000000000E+00  0.00000000000E+00  0.45593999997E+02  0.45594000000E+02  0.51100000000E-03 0. -1.
         11   -1    0    0    0    0 -0.00000000000E+00 -0.00000000000E+00 -0.45593999997E+02  0.45594000000E+02  0.51100000000E-03 0.  1.
    9900012    2    1    2    0    0 -0.23755395692E+02  0.29728076496E+02 -0.24104689568E+02  0.46142318567E+02  0.10000007348E+02 0.  0.
         12    1    1    2    0    0  0.23755395692E+02 -0.29728076496E+02  0.24104689568E+02  0.45045681433E+02  0.00000000000E+00 0. -1.
         11    1    3    3    0    0 -0.49073281164E+01  0.21234387792E+01 -0.36393730586E+01  0.64680675639E+01  0.51100000000E-03 0. -1.
        -11    1    3    3    0    0 -0.61313614690E+01  0.86576181259E+01 -0.99660437220E+01  0.14555753942E+02  0.51100000000E-03 0.  1.
         12    1    3    3    0    0 -0.12716706106E+02  0.18947019591E+02 -0.10499272787E+02  0.25118497061E+02  0.00000000000E+00 0. -1.
</event>
<event>
 7    1  0.1541902E-008  0.4614232E+02  0.7816164E-02  0.1320468E+00
        -11   -1    0    0    0    0  0.00000000000E+00  0.00000000000E+00  0.45593999997E+02  0.45594000000E+02  0.51100000000E-03 0.  1.
         11   -1    0    0    0    0 -0.00000000000E+00 -0.00000000000E+00 -0.45593999997E+02  0.45594000000E+02  0.51100000000E-03 0. -1.
    9900012    2    1    2    0    0  0.23533966454E+02 -0.34485069652E+02  0.16912896407E+02  0.46142315736E+02  0.99999815330E+01 0.  0.
         12    1    1    2    0    0 -0.23533966454E+02  0.34485069652E+02 -0.16912896407E+02  0.45045684264E+02  0.00000000000E+00 0. -1.
         11    1    3    3    0    0  0.55461144012E+01 -0.51828011940E+01  0.69388474111E+00  0.76224857798E+01  0.51100000000E-03 0. -1.
        -11    1    3    3    0    0  0.36383219702E+01 -0.50027746264E+01  0.56736585948E+01  0.83937800086E+01  0.51100000000E-03 0.  1.
         12    1    3    3    0    0  0.14349530082E+02 -0.24299493831E+02  0.10545353072E+02  0.30126049947E+02  0.00000000000E+00 0. -1.
</event>
<event>
 7    1  0.1541902E-008  0.4614232E+02  0.7816164E-02  0.1320468E+00
        -11   -1    0    0    0    0  0.00000000000E+00  0.00000000000E+00  0.45593999997E+02  0.45594000000E+02  0.51100000000E-03 0.  1.
         11   -1    0    0    0    0 -0.00000000000E+00 -0.00000000000E+00 -0.45593999997E+02  0.45594000000E+02  0.51100000000E-03 0. -1.
    9900012    2    1    2    0    0  0.13844481686E+02 -0.11394036306E+02  0.41323356938E+02  0.46142316910E+02  0.99999922344E+01 0.  0.
         12    1    1    2    0    0 -0.13844481686E+02  0.11394036306E+02 -0.41323356938E+02  0.45045683090E+02  0.00000000000E+00 0. -1.
         11    1    3    3    0    0  0.14956310601E-01  0.24279533085E+00  0.10532599213E+00  0.26507940254E+00  0.51100000000E-03 0. -1.
        -11    1    3    3    0    0  0.39230866275E+01 -0.27352835939E+01  0.21880938716E+02  0.22397496833E+02  0.51100000000E-03 0.  1.
        -12    1    3    3    0    0  0.99064387484E+01 -0.89015480426E+01  0.19337092229E+02  0.23479740674E+02  0.00000000000E+00 0.  1.
</event>
<event>
 7    1  0.1541902E-008  0.4614232E+02  0.7816164E-02  0.1320468E+00
        -11   -1    0    0    0    0  0.00000000000E+00  0.00000000000E+00  0.45593999997E+02  0.45594000000E+02  0.51100000000E-03 0.  1.
         11   -1    0    0    0    0 -0.00000000000E+00 -0.00000000000E+00 -0.45593999997E+02  0.45594000000E+02  0.51100000000E-03 0. -1.
    9900012    2    1    2    0    0  0.19616495074E+02 -0.31585964639E+02  0.25428989274E+02  0.46142317225E+02  0.99999951131E+01 0.  0.
         12    1    1    2    0    0 -0.19616495074E+02  0.31585964639E+02 -0.25428989274E+02  0.45045682775E+02  0.00000000000E+00 0. -1.
         11    1    3    3    0    0  0.81761601671E-01 -0.52493907904E+01  0.48146513365E+01  0.71234581759E+01  0.51100000000E-03 0. -1.
        -11    1    3    3    0    0  0.94613260498E+01 -0.16050402261E+02  0.13124223030E+02  0.22789851552E+02  0.51100000000E-03 0.  1.
         12    1    3    3    0    0  0.10073407422E+02 -0.10286171587E+02  0.74901149081E+01  0.16229007497E+02  0.00000000000E+00 0. -1.
</event>
<event>
 7    1  0.1541902E-008  0.4614232E+02  0.7816164E-02  0.1320468E+00
        -11   -1    0    0    0    0  0.00000000000E+00  0.00000000000E+00  0.45593999997E+02  0.45594000000E+02  0.51100000000E-03 0.  1.
         11   -1    0    0    0    0 -0.00000000000E+00 -0.00000000000E+00 -0.45593999997E+02  0.45594000000E+02  0.51100000000E-03 0. -1.
    9900012    2    1    2    0    0 -0.33283750266E+02  0.23334831553E+02  0.19411095766E+02  0.46142322802E+02  0.10000045968E+02 0.  0.
         12    1    1    2    0    0  0.33283750266E+02 -0.23334831553E+02 -0.19411095766E+02  0.45045677198E+02  0.00000000000E+00 0. -1.
         11    1    3    3    0    0 -0.73986843615E+01  0.74278713746E+01  0.36018288480E+01  0.11085439763E+02  0.51100000000E-03 0. -1.
        -11    1    3    3    0    0 -0.40828275967E+01 -0.23966241147E+00  0.13058700086E+01  0.42932756721E+01  0.51100000000E-03 0.  1.
         12    1    3    3    0    0 -0.21802238308E+02  0.16146622590E+02  0.14503396909E+02  0.30763607367E+02  0.00000000000E+00 0. -1.
</event>
<event>
 7    1  0.1541902E-008  0.4614232E+02  0.7816164E-02  0.1320468E+00
        -11   -1    0    0    0    0  0.00000000000E+00  0.00000000000E+00  0.45593999997E+02  0.45594000000E+02  0.51100000000E-03 0.  1.
         11   -1    0    0    0    0 -0.00000000000E+00 -0.00000000000E+00 -0.45593999997E+02  0.45594000000E+02  0.51100000000E-03 0. -1.
    9900012    2    1    2    0    0 -0.68935999544E+01  0.45526543278E+00  0.44512744168E+02  0.46142318960E+02  0.10000010937E+02 0.  0.
         12    1    1    2    0    0  0.68935999544E+01 -0.45526543278E+00 -0.44512744168E+02  0.45045681040E+02  0.00000000000E+00 0. -1.
         11    1    3    3    0    0 -0.10790472192E+01 -0.10788264578E+01  0.24266264879E+01  0.28664831764E+01  0.51100000000E-03 0. -1.
        -11    1    3    3    0    0 -0.47653978969E+01  0.13341176557E+01  0.41900583656E+02  0.42191797757E+02  0.51100000000E-03 0.  1.
        -12    1    3    3    0    0 -0.10491548383E+01  0.19997423492E+00  0.18553402431E+00  0.10840380268E+01  0.00000000000E+00 0.  1.
</event>
<event>
 7    1  0.1541902E-008  0.4614232E+02  0.7816164E-02  0.1320468E+00
        -11   -1    0    0    0    0  0.00000000000E+00  0.00000000000E+00  0.45593999997E+02  0.45594000000E+02  0.51100000000E-03 0. -1.
         11   -1    0    0    0    0 -0.00000000000E+00 -0.00000000000E+00 -0.45593999997E+02  0.45594000000E+02  0.51100000000E-03 0.  1.
    9900012    2    1    2    0    0 -0.43218104281E+02  0.10357847878E+02 -0.73501032953E+01  0.46142316869E+02  0.99999918605E+01 0.  0.
         12    1    1    2    0    0  0.43218104281E+02 -0.10357847878E+02  0.73501032953E+01  0.45045683131E+02  0.00000000000E+00 0. -1.
         11    1    3    3    0    0 -0.13355205959E+02  0.30775055940E+01 -0.47810894390E+01  0.14515212137E+02  0.51100000000E-03 0. -1.
        -11    1    3    3    0    0 -0.56977195967E+01  0.31671456286E+01  0.17201648704E+01  0.67419424113E+01  0.51100000000E-03 0.  1.
        -12    1    3    3    0    0 -0.24165178725E+02  0.41131966549E+01 -0.42891787266E+01  0.24885162320E+02  0.00000000000E+00 0.  1.
</event>
<event>
 7    1  0.1541902E-008  0.4614232E+02  0.7816164E-02  0.1320468E+00
        -11   -1    0    0    0    0  0.00000000000E+00  0.00000000000E+00  0.45593999997E+02  0.45594000000E+02  0.51100000000E-03 0.  1.
         11   -1    0    0    0    0 -0.00000000000E+00 -0.00000000000E+00 -0.45593999997E+02  0.45594000000E+02  0.51100000000E-03 0. -1.
    9900012    2    1    2    0    0  0.36384804517E+02  0.94320731221E+01  0.24825300362E+02  0.46142317175E+02  0.99999946568E+01 0.  0.
         12    1    1    2    0    0 -0.36384804517E+02 -0.94320731221E+01 -0.24825300362E+02  0.45045682825E+02  0.00000000000E+00 0. -1.
         11    1    3    3    0    0  0.69913237724E+01  0.50208220373E+01  0.72507569400E+01  0.11254365308E+02  0.51100000000E-03 0.  1.
        -11    1    3    3    0    0  0.24504692322E+02  0.28521662731E+01  0.16399944847E+02  0.29623858450E+02  0.51100000000E-03 0. -1.
         12    1    3    3    0    0  0.48887884224E+01  0.15590848117E+01  0.11745985748E+01  0.52640934169E+01  0.00000000000E+00 0. -1.
</event>
<event>
 7    1  0.1541902E-008  0.4614232E+02  0.7816164E-02  0.1320468E+00
        -11   -1    0    0    0    0  0.00000000000E+00  0.00000000000E+00  0.45593999997E+02  0.45594000000E+02  0.51100000000E-03 0.  1.
         11   -1    0    0    0    0 -0.00000000000E+00 -0.00000000000E+00 -0.45593999997E+02  0.45594000000E+02  0.51100000000E-03 0. -1.
    9900012    2    1    2    0    0 -0.14766669409E+02 -0.32548496160E+02  0.27416314519E+02  0.46142318414E+02  0.10000005957E+02 0.  0.
         12    1    1    2    0    0  0.14766669409E+02  0.32548496160E+02 -0.27416314519E+02  0.45045681586E+02  0.00000000000E+00 0. -1.
         11    1    3    3    0    0 -0.64734581376E+01 -0.19310220280E+02  0.99177504810E+01  0.22652859475E+02  0.51100000000E-03 0. -1.
        -11    1    3    3    0    0 -0.66711045130E+01 -0.11331974904E+02  0.14281796279E+02  0.19413577616E+02  0.51100000000E-03 0.  1.
         12    1    3    3    0    0 -0.16221067584E+01 -0.19063009759E+01  0.32167677590E+01  0.40758813233E+01  0.00000000000E+00 0. -1.
</event>
<event>
 7    1  0.1541902E-008  0.4614232E+02  0.7816164E-02  0.1320468E+00
        -11   -1    0    0    0    0  0.00000000000E+00  0.00000000000E+00  0.45593999997E+02  0.45594000000E+02  0.51100000000E-03 0. -1.
         11   -1    0    0    0    0 -0.00000000000E+00 -0.00000000000E+00 -0.45593999997E+02  0.45594000000E+02  0.51100000000E-03 0.  1.
    9900012    2    1    2    0    0 -0.10855095671E+02 -0.43653232364E+02  0.23823711798E+01  0.46142317740E+02  0.99999998060E+01 0.  0.
         12    1    1    2    0    0  0.10855095671E+02  0.43653232364E+02 -0.23823711798E+01  0.45045682260E+02  0.00000000000E+00 0. -1.
         11    1    3    3    0    0 -0.76060260728E+01 -0.13754944774E+02  0.21386727615E+01  0.15862662444E+02  0.51100000000E-03 0. -1.
        -11    1    3    3    0    0 -0.14082039768E+01 -0.24142516130E+02 -0.51632559862E+00  0.24189061906E+02  0.51100000000E-03 0.  1.
        -12    1    3    3    0    0 -0.18408656209E+01 -0.57557714601E+01  0.76002401692E+00  0.60905933899E+01  0.00000000000E+00 0.  1.
</event>
<event>
 7    1  0.1541902E-008  0.4614232E+02  0.7816164E-02  0.1320468E+00
        -11   -1    0    0    0    0  0.00000000000E+00  0.00000000000E+00  0.45593999997E+02  0.45594000000E+02  0.51100000000E-03 0.  1.
         11   -1    0    0    0    0 -0.00000000000E+00 -0.00000000000E+00 -0.45593999997E+02  0.45594000000E+02  0.51100000000E-03 0. -1.
    9900012    2    1    2    0    0 -0.10731694242E+02  0.38030675526E+02  0.21624335086E+02  0.46142318629E+02  0.10000007916E+02 0.  0.
         12    1    1    2    0    0  0.10731694242E+02 -0.38030675526E+02 -0.21624335086E+02  0.45045681371E+02  0.00000000000E+00 0. -1.
         11    1    3    3    0    0 -0.43374040007E+01  0.24892997913E+02  0.10597525188E+02  0.27400400708E+02  0.51100000000E-03 0. -1.
        -11    1    3    3    0    0 -0.48213792078E+01  0.12142606429E+02  0.84353493250E+01  0.15551324923E+02  0.51100000000E-03 0.  1.
        -12    1    3    3    0    0 -0.15729110331E+01  0.99507118289E+00  0.25914605736E+01  0.31905929984E+01  0.00000000000E+00 0.  1.
</event>
<event>
 7    1  0.1541902E-008  0.4614232E+02  0.7816164E-02  0.1320468E+00
        -11   -1    0    0    0    0  0.00000000000E+00  0.00000000000E+00  0.45593999997E+02  0.45594000000E+02  0.51100000000E-03 0.  1.
         11   -1    0    0    0    0 -0.00000000000E+00 -0.00000000000E+00 -0.45593999997E+02  0.45594000000E+02  0.51100000000E-03 0. -1.
    9900012    2    1    2    0    0 -0.25212994400E+01  0.44947376730E+02  0.15779501464E+01  0.46142317049E+02  0.99999935105E+01 0.  0.
         12    1    1    2    0    0  0.25212994400E+01 -0.44947376730E+02 -0.15779501464E+01  0.45045682951E+02  0.00000000000E+00 0. -1.
         11    1    3    3    0    0  0.29946747594E+01  0.15920333956E+02  0.76586794539E+00  0.16217634357E+02  0.51100000000E-03 0. -1.
        -11    1    3    3    0    0 -0.61131079433E+01  0.24354684148E+02 -0.18076542173E+00  0.25110822469E+02  0.51100000000E-03 0.  1.
        -12    1    3    3    0    0  0.59713374385E+00  0.46723586267E+01  0.99284762279E+00  0.48138602230E+01  0.00000000000E+00 0.  1.
</event>
<event>
 7    1  0.1541902E-008  0.4614232E+02  0.7816164E-02  0.1320468E+00
        -11   -1    0    0    0    0  0.00000000000E+00  0.00000000000E+00  0.45593999997E+02  0.45594000000E+02  0.51100000000E-03 0. -1.
         11   -1    0    0    0    0 -0.00000000000E+00 -0.00000000000E+00 -0.45593999997E+02  0.45594000000E+02  0.51100000000E-03 0.  1.
    9900012    2    1    2    0    0  0.24473561577E+02 -0.23974920697E+02 -0.29246564113E+02  0.46142317065E+02  0.99999936542E+01 0.  0.
         12    1    1    2    0    0 -0.24473561577E+02  0.23974920697E+02  0.29246564113E+02  0.45045682935E+02  0.00000000000E+00 0. -1.
         11    1    3    3    0    0  0.55822155934E+01 -0.89290403361E+01 -0.11530415563E+02  0.15615357043E+02  0.51100000000E-03 0. -1.
        -11    1    3    3    0    0  0.89362840406E+01 -0.10847474729E+02 -0.98358862456E+01  0.17154286314E+02  0.51100000000E-03 0.  1.
         12    1    3    3    0    0  0.99550619428E+01 -0.41984056320E+01 -0.78802623041E+01  0.13372673709E+02  0.00000000000E+00 0. -1.
</event>
<event>
 7    1  0.1541902E-008  0.4614232E+02  0.7816164E-02  0.1320468E+00
        -11   -1    0    0    0    0  0.00000000000E+00  0.00000000000E+00  0.45593999997E+02  0.45594000000E+02  0.51100000000E-03 0.  1.
         11   -1    0    0    0    0 -0.00000000000E+00 -0.00000000000E+00 -0.45593999997E+02  0.45594000000E+02  0.51100000000E-03 0. -1.
    9900012    2    1    2    0    0 -0.44653910896E+02  0.56996693547E+00  0.59005647368E+01  0.46142320020E+02  0.10000020601E+02 0.  0.
         12    1    1    2    0    0  0.44653910896E+02 -0.56996693547E+00 -0.59005647368E+01  0.45045679980E+02  0.00000000000E+00 0. -1.
         11    1    3    3    0    0 -0.24322763989E+02 -0.16439403931E+01  0.61400891892E+01  0.25139611843E+02  0.51100000000E-03 0. -1.
        -11    1    3    3    0    0 -0.20240651783E+02  0.15367085356E+01 -0.71063024147E-01  0.20299027266E+02  0.51100000000E-03 0.  1.
         12    1    3    3    0    0 -0.90495123775E-01  0.67719879298E+00 -0.16846142823E+00  0.70368091166E+00  0.00000000000E+00 0. -1.
</event>
<event>
 7    1  0.1541902E-008  0.4614232E+02  0.7816164E-02  0.1320468E+00
        -11   -1    0    0    0    0  0.00000000000E+00  0.00000000000E+00  0.45593999997E+02  0.45594000000E+02  0.51100000000E-03 0.  1.
         11   -1    0    0    0    0 -0.00000000000E+00 -0.00000000000E+00 -0.45593999997E+02  0.45594000000E+02  0.51100000000E-03 0. -1.
    9900012    2    1    2    0    0  0.69252005502E+01 -0.27868538490E+02  0.34705901707E+02  0.46142318148E+02  0.10000003527E+02 0.  0.
         12    1    1    2    0    0 -0.69252005502E+01  0.27868538490E+02 -0.34705901707E+02  0.45045681852E+02  0.00000000000E+00 0. -1.
         11    1    3    3    0    0  0.52333178913E+01 -0.52414905526E+01  0.95728152234E+01  0.12103703191E+02  0.51100000000E-03 0. -1.
        -11    1    3    3    0    0 -0.19187786743E+00 -0.17119309736E+02  0.18228327902E+02  0.25007589274E+02  0.51100000000E-03 0.  1.
        -12    1    3    3    0    0  0.18837605263E+01 -0.55077382013E+01  0.69047585816E+01  0.90310256829E+01  0.00000000000E+00 0.  1.
</event>
<event>
 7    1  0.1541902E-008  0.4614232E+02  0.7816164E-02  0.1320468E+00
        -11   -1    0    0    0    0  0.00000000000E+00  0.00000000000E+00  0.45593999997E+02  0.45594000000E+02  0.51100000000E-03 0.  1.
         11   -1    0    0    0    0 -0.00000000000E+00 -0.00000000000E+00 -0.45593999997E+02  0.45594000000E+02  0.51100000000E-03 0. -1.
    9900012    2    1    2    0    0 -0.14878608759E+02  0.41255584170E+02 -0.10281890069E+02  0.46142317774E+02  0.10000000117E+02 0.  0.
         12    1    1    2    0    0  0.14878608759E+02 -0.41255584170E+02  0.10281890069E+02  0.45045682226E+02  0.00000000000E+00 0. -1.
         11    1    3    3    0    0 -0.50641394968E+00  0.97601891278E+01 -0.55870188238E+00  0.97892744856E+01  0.51100000000E-03 0. -1.
        -11    1    3    3    0    0 -0.14611220154E+02  0.30910919329E+02 -0.10057122402E+02  0.35638720508E+02  0.51100000000E-03 0.  1.
        -12    1    3    3    0    0  0.23902534454E+00  0.58447571334E+00  0.33393421555E+00  0.71432278077E+00  0.00000000000E+00 0.  1.
</event>
<event>
 7    1  0.1541902E-008  0.4614232E+02  0.7816164E-02  0.1320468E+00
        -11   -1    0    0    0    0  0.00000000000E+00  0.00000000000E+00  0.45593999997E+02  0.45594000000E+02  0.51100000000E-03 0.  1.
         11   -1    0    0    0    0 -0.00000000000E+00 -0.00000000000E+00 -0.45593999997E+02  0.45594000000E+02  0.51100000000E-03 0. -1.
    9900012    2    1    2    0    0  0.26383946901E+02  0.36505653327E+02 -0.58150784241E+00  0.46142317296E+02  0.99999957603E+01 0.  0.
         12    1    1    2    0    0 -0.26383946901E+02 -0.36505653327E+02  0.58150784241E+00  0.45045682704E+02  0.00000000000E+00 0. -1.
         11    1    3    3    0    0  0.68400499431E+01  0.60768889434E+01 -0.24639904284E+01  0.94755533637E+01  0.51100000000E-03 0. -1.
        -11    1    3    3    0    0  0.14749871141E+02  0.22990950475E+02  0.38948448965E+01  0.27591888653E+02  0.51100000000E-03 0.  1.
        -12    1    3    3    0    0  0.47940258166E+01  0.74378139086E+01 -0.20123623105E+01  0.90748752795E+01  0.00000000000E+00 0.  1.
</event>
<event>
 7    1  0.1541902E-008  0.4614232E+02  0.7816164E-02  0.1320468E+00
        -11   -1    0    0    0    0  0.00000000000E+00  0.00000000000E+00  0.45593999997E+02  0.45594000000E+02  0.51100000000E-03 0.  1.
         11   -1    0    0    0    0 -0.00000000000E+00 -0.00000000000E+00 -0.45593999997E+02  0.45594000000E+02  0.51100000000E-03 0. -1.
    9900012    2    1    2    0    0  0.22603316689E+02 -0.27423105777E+02  0.27679899791E+02  0.46142317541E+02  0.99999979918E+01 0.  0.
         12    1    1    2    0    0 -0.22603316689E+02  0.27423105777E+02 -0.27679899791E+02  0.45045682459E+02  0.00000000000E+00 0. -1.
         11    1    3    3    0    0  0.12344228847E+02 -0.19156426773E+02  0.16680744613E+02  0.28241740627E+02  0.51100000000E-03 0. -1.
        -11    1    3    3    0    0  0.62921895164E+01 -0.48036674533E+01  0.33082689466E+01  0.85797152398E+01  0.51100000000E-03 0.  1.
         12    1    3    3    0    0  0.39668983253E+01 -0.34630115504E+01  0.76908862317E+01  0.93208616743E+01  0.00000000000E+00 0. -1.
</event>
<event>
 7    1  0.1541902E-008  0.4614232E+02  0.7816164E-02  0.1320468E+00
        -11   -1    0    0    0    0  0.00000000000E+00  0.00000000000E+00  0.45593999997E+02  0.45594000000E+02  0.51100000000E-03 0.  1.
         11   -1    0    0    0    0 -0.00000000000E+00 -0.00000000000E+00 -0.45593999997E+02  0.45594000000E+02  0.51100000000E-03 0. -1.
    9900012    2    1    2    0    0  0.13435020732E+02  0.31103676539E+02  0.29684592575E+02  0.46142317492E+02  0.99999975452E+01 0.  0.
         12    1    1    2    0    0 -0.13435020732E+02 -0.31103676539E+02 -0.29684592575E+02  0.45045682508E+02  0.00000000000E+00 0. -1.
         11    1    3    3    0    0  0.56400931329E+01  0.76446224264E+01  0.45291690867E+01  0.10524460816E+02  0.51100000000E-03 0. -1.
        -11    1    3    3    0    0  0.67056078274E+00  0.27598249905E+01  0.55343559905E+01  0.62205612474E+01  0.51100000000E-03 0.  1.
         12    1    3    3    0    0  0.71243668163E+01  0.20699229122E+02  0.19621067498E+02  0.29397295429E+02  0.00000000000E+00 0. -1.
</event>
<event>
 7    1  0.1541902E-008  0.4614232E+02  0.7816164E-02  0.1320468E+00
        -11   -1    0    0    0    0  0.00000000000E+00  0.00000000000E+00  0.45593999997E+02  0.45594000000E+02  0.51100000000E-03 0.  1.
         11   -1    0    0    0    0 -0.00000000000E+00 -0.00000000000E+00 -0.45593999997E+02  0.45594000000E+02  0.51100000000E-03 0. -1.
    9900012    2    1    2    0    0  0.34086680341E+02  0.25128652025E+02  0.15354561500E+02  0.46142317764E+02  0.10000000029E+02 0.  0.
         12    1    1    2    0    0 -0.34086680341E+02 -0.25128652025E+02 -0.15354561500E+02  0.45045682236E+02  0.00000000000E+00 0. -1.
         11    1    3    3    0    0  0.14234371517E+01  0.20235653101E+01  0.42065537791E+00  0.25095699028E+01  0.51100000000E-03 0. -1.
        -11    1    3    3    0    0  0.31592843839E+02  0.20299546141E+02  0.15412264381E+02  0.40592083576E+02  0.51100000000E-03 0.  1.
        -12    1    3    3    0    0  0.10703993497E+01  0.28055405732E+01 -0.47835825876E+00  0.30406642858E+01  0.00000000000E+00 0.  1.
</event>
<event>
 7    1  0.1541902E-008  0.4614232E+02  0.7816164E-02  0.1320468E+00
        -11   -1    0    0    0    0  0.00000000000E+00  0.00000000000E+00  0.45593999997E+02  0.45594000000E+02  0.51100000000E-03 0.  1.
         11   -1    0    0    0    0 -0.00000000000E+00 -0.00000000000E+00 -0.45593999997E+02  0.45594000000E+02  0.51100000000E-03 0. -1.
    9900012    2    1    2    0    0 -0.20922039597E+02  0.20702060069E+02  0.34099945636E+02  0.46142319581E+02  0.10000016597E+02 0.  0.
         12    1    1    2    0    0  0.20922039597E+02 -0.20702060069E+02 -0.34099945636E+02  0.45045680419E+02  0.00000000000E+00 0. -1.
         11    1    3    3    0    0 -0.47536999895E+01  0.55975551664E+01  0.11072447707E+02  0.13286436163E+02  0.51100000000E-03 0. -1.
        -11    1    3    3    0    0 -0.35207498804E+01  0.25206038570E+01  0.95834819987E+01  0.10516285038E+02  0.51100000000E-03 0.  1.
        -12    1    3    3    0    0 -0.12647589727E+02  0.12583901046E+02  0.13444015930E+02  0.22339598380E+02  0.00000000000E+00 0.  1.
</event>
<event>
 7    1  0.1541902E-008  0.4614231E+02  0.7816164E-02  0.1320468E+00
        -11   -1    0    0    0    0  0.00000000000E+00  0.00000000000E+00  0.45593999997E+02  0.45594000000E+02  0.51100000000E-03 0.  1.
         11   -1    0    0    0    0 -0.00000000000E+00 -0.00000000000E+00 -0.45593999997E+02  0.45594000000E+02  0.51100000000E-03 0. -1.
    9900012    2    1    2    0    0 -0.19833625835E+02  0.81334544549E+00  0.40436117906E+02  0.46142313459E+02  0.99999607712E+01 0.  0.
         12    1    1    2    0    0  0.19833625835E+02 -0.81334544549E+00 -0.40436117906E+02  0.45045686541E+02  0.00000000000E+00 0. -1.
         11    1    3    3    0    0 -0.10692174629E+02 -0.12435380488E+01  0.13038337211E+02  0.16907608426E+02  0.51100000000E-03 0. -1.
        -11    1    3    3    0    0 -0.17102681098E+01  0.18512918067E+01  0.44668056809E+01  0.51288060611E+01  0.51100000000E-03 0.  1.
         12    1    3    3    0    0 -0.74311830963E+01  0.20559168763E+00  0.22930975014E+02  0.24105898972E+02  0.00000000000E+00 0. -1.
</event>
<event>
 7    1  0.1541902E-008  0.4614232E+02  0.7816164E-02  0.1320468E+00
        -11   -1    0    0    0    0  0.00000000000E+00  0.00000000000E+00  0.45593999997E+02  0.45594000000E+02  0.51100000000E-03 0.  1.
         11   -1    0    0    0    0 -0.00000000000E+00 -0.00000000000E+00 -0.45593999997E+02  0.45594000000E+02  0.51100000000E-03 0. -1.
    9900012    2    1    2    0    0  0.11512991645E+02  0.34043684320E+02  0.27158645114E+02  0.46142318485E+02  0.10000006602E+02 0.  0.
         12    1    1    2    0    0 -0.11512991645E+02 -0.34043684320E+02 -0.27158645114E+02  0.45045681515E+02  0.00000000000E+00 0. -1.
         11    1    3    3    0    0  0.17930733316E+01  0.17239469466E+02  0.11897403211E+02  0.21022907098E+02  0.51100000000E-03 0. -1.
        -11    1    3    3    0    0  0.29635755823E+01  0.77258547109E+01  0.41390236965E+01  0.92521958835E+01  0.51100000000E-03 0.  1.
         12    1    3    3    0    0  0.67563427310E+01  0.90783601433E+01  0.11122218207E+02  0.15867215503E+02  0.00000000000E+00 0. -1.
</event>
<event>
 7    1  0.1541902E-008  0.4614232E+02  0.7816164E-02  0.1320468E+00
        -11   -1    0    0    0    0  0.00000000000E+00  0.00000000000E+00  0.45593999997E+02  0.45594000000E+02  0.51100000000E-03 0. -1.
         11   -1    0    0    0    0 -0.00000000000E+00 -0.00000000000E+00 -0.45593999997E+02  0.45594000000E+02  0.51100000000E-03 0.  1.
    9900012    2    1    2    0    0  0.79456028936E+01  0.44167549849E+02 -0.38997952742E+01  0.46142317985E+02  0.10000002045E+02 0.  0.
         12    1    1    2    0    0 -0.79456028936E+01 -0.44167549849E+02  0.38997952742E+01  0.45045682015E+02  0.00000000000E+00 0. -1.
         11    1    3    3    0    0 -0.69168775654E+00 -0.52463055220E-01 -0.28387645613E+00  0.74951346097E+00  0.51100000000E-03 0. -1.
        -11    1    3    3    0    0  0.76793930140E+01  0.29449819041E+02 -0.29376721799E+01  0.30576050050E+02  0.51100000000E-03 0.  1.
        -12    1    3    3    0    0  0.95789763615E+00  0.14770193863E+02 -0.67824663816E+00  0.14816754474E+02  0.00000000000E+00 0.  1.
</event>
<event>
 7    1  0.1541902E-008  0.4614232E+02  0.7816164E-02  0.1320468E+00
        -11   -1    0    0    0    0  0.00000000000E+00  0.00000000000E+00  0.45593999997E+02  0.45594000000E+02  0.51100000000E-03 0.  1.
         11   -1    0    0    0    0 -0.00000000000E+00 -0.00000000000E+00 -0.45593999997E+02  0.45594000000E+02  0.51100000000E-03 0. -1.
    9900012    2    1    2    0    0 -0.29732952575E+02  0.32460188343E+02  0.95603949707E+01  0.46142318208E+02  0.10000004075E+02 0.  0.
         12    1    1    2    0    0  0.29732952575E+02 -0.32460188343E+02 -0.95603949707E+01  0.45045681792E+02  0.00000000000E+00 0. -1.
         11    1    3    3    0    0 -0.13715973739E+02  0.19196617577E+02  0.20203019973E+01  0.23679520317E+02  0.51100000000E-03 0. -1.
        -11    1    3    3    0    0 -0.10694715504E+02  0.93526080974E+01  0.32107162699E+01  0.14565607339E+02  0.51100000000E-03 0.  1.
         12    1    3    3    0    0 -0.53222633325E+01  0.39109626687E+01  0.43293767035E+01  0.78971905522E+01  0.00000000000E+00 0. -1.
</event>
<event>
 7    1  0.1541902E-008  0.4614232E+02  0.7816164E-02  0.1320468E+00
        -11   -1    0    0    0    0  0.00000000000E+00  0.00000000000E+00  0.45593999997E+02  0.45594000000E+02  0.51100000000E-03 0. -1.
         11   -1    0    0    0    0 -0.00000000000E+00 -0.00000000000E+00 -0.45593999997E+02  0.45594000000E+02  0.51100000000E-03 0.  1.
    9900012    2    1    2    0    0 -0.41727735494E+02 -0.80392676219E+00  0.16948839954E+02  0.46142318925E+02  0.10000010617E+02 0.  0.
         12    1    1    2    0    0  0.41727735494E+02  0.80392676219E+00 -0.16948839954E+02  0.45045681075E+02  0.00000000000E+00 0. -1.
         11    1    3    3    0    0 -0.27286528887E+01 -0.23735632930E+01  0.23014472294E+00  0.36238537701E+01  0.51100000000E-03 0. -1.
        -11    1    3    3    0    0 -0.22652928398E+02  0.14308874914E+01  0.10762746068E+02  0.25120495760E+02  0.51100000000E-03 0.  1.
        -12    1    3    3    0    0 -0.16346154207E+02  0.13874903938E+00  0.59559491632E+01  0.17397969395E+02  0.00000000000E+00 0.  1.
</event>
<event>
 7    1  0.1541902E-008  0.4614232E+02  0.7816164E-02  0.1320468E+00
        -11   -1    0    0    0    0  0.00000000000E+00  0.00000000000E+00  0.45593999997E+02  0.45594000000E+02  0.51100000000E-03 0.  1.
         11   -1    0    0    0    0 -0.00000000000E+00 -0.00000000000E+00 -0.45593999997E+02  0.45594000000E+02  0.51100000000E-03 0. -1.
    9900012    2    1    2    0    0  0.24593155549E+02 -0.29732024887E+02  0.23244288316E+02  0.46142317154E+02  0.99999944669E+01 0.  0.
         12    1    1    2    0    0 -0.24593155549E+02  0.29732024887E+02 -0.23244288316E+02  0.45045682846E+02  0.00000000000E+00 0. -1.
         11    1    3    3    0    0  0.59709799015E+01 -0.53503974965E+01  0.86536064005E+01  0.11796790172E+02  0.51100000000E-03 0. -1.
        -11    1    3    3    0    0  0.13682635567E+02 -0.16063120783E+02  0.76740633220E+01  0.22452830857E+02  0.51100000000E-03 0.  1.
        -12    1    3    3    0    0  0.49395400803E+01 -0.83185066067E+01  0.69166185936E+01  0.11892696126E+02  0.00000000000E+00 0.  1.
</event>
<event>
 7    1  0.1541902E-008  0.4614231E+02  0.7816164E-02  0.1320468E+00
        -11   -1    0    0    0    0  0.00000000000E+00  0.00000000000E+00  0.45593999997E+02  0.45594000000E+02  0.51100000000E-03 0.  1.
         11   -1    0    0    0    0 -0.00000000000E+00 -0.00000000000E+00 -0.45593999997E+02  0.45594000000E+02  0.51100000000E-03 0. -1.
    9900012    2    1    2    0    0 -0.25667495204E+02 -0.24458639065E+01  0.36936591599E+02  0.46142308094E+02  0.99999118481E+01 0.  0.
         12    1    1    2    0    0  0.25667495204E+02  0.24458639065E+01 -0.36936591599E+02  0.45045691906E+02  0.00000000000E+00 0. -1.
         11    1    3    3    0    0 -0.93964924160E+01 -0.38767492675E+01  0.12828422116E+02  0.16367396520E+02  0.51100000000E-03 0. -1.
        -11    1    3    3    0    0 -0.13088729273E+02  0.34521691441E+01  0.20433025069E+02  0.24510014678E+02  0.51100000000E-03 0.  1.
        -12    1    3    3    0    0 -0.31822735157E+01 -0.20212837831E+01  0.36751444146E+01  0.52648968963E+01  0.00000000000E+00 0.  1.
</event>
<event>
 7    1  0.1541902E-008  0.4614232E+02  0.7816164E-02  0.1320468E+00
        -11   -1    0    0    0    0  0.00000000000E+00  0.00000000000E+00  0.45593999997E+02  0.45594000000E+02  0.51100000000E-03 0.  1.
         11   -1    0    0    0    0 -0.00000000000E+00 -0.00000000000E+00 -0.45593999997E+02  0.45594000000E+02  0.51100000000E-03 0. -1.
    9900012    2    1    2    0    0  0.39991987724E+02 -0.12745195467E+02 -0.16349753746E+02  0.46142317219E+02  0.99999950582E+01 0.  0.
         12    1    1    2    0    0 -0.39991987724E+02  0.12745195467E+02  0.16349753746E+02  0.45045682781E+02  0.00000000000E+00 0. -1.
         11    1    3    3    0    0  0.14915321959E+02 -0.41520957600E+01 -0.87377211358E+01  0.17777921679E+02  0.51100000000E-03 0. -1.
        -11    1    3    3    0    0  0.97629555992E+01 -0.14515213710E+01 -0.95125687144E-01  0.98707277078E+01  0.51100000000E-03 0.  1.
         12    1    3    3    0    0  0.15313710167E+02 -0.71415783360E+01 -0.75169069229E+01  0.18493667832E+02  0.00000000000E+00 0. -1.
</event>
<event>
 7    1  0.1541902E-008  0.4614232E+02  0.7816164E-02  0.1320468E+00
        -11   -1    0    0    0    0  0.00000000000E+00  0.00000000000E+00  0.45593999997E+02  0.45594000000E+02  0.51100000000E-03 0.  1.
         11   -1    0    0    0    0 -0.00000000000E+00 -0.00000000000E+00 -0.45593999997E+02  0.45594000000E+02  0.51100000000E-03 0. -1.
    9900012    2    1    2    0    0 -0.10654757961E+02  0.26365675384E+02  0.34934808163E+02  0.46142317332E+02  0.99999960879E+01 0.  0.
         12    1    1    2    0    0  0.10654757961E+02 -0.26365675384E+02 -0.34934808163E+02  0.45045682668E+02  0.00000000000E+00 0. -1.
         11    1    3    3    0    0 -0.62206795728E+01  0.12498567254E+02  0.13024023135E+02  0.19092831551E+02  0.51100000000E-03 0. -1.
        -11    1    3    3    0    0 -0.14625612667E+01  0.84524860613E+01  0.75913138272E+01  0.11454765469E+02  0.51100000000E-03 0.  1.
         12    1    3    3    0    0 -0.29715171215E+01  0.54146220691E+01  0.14319471200E+02  0.15594720312E+02  0.00000000000E+00 0. -1.
</event>
<event>
 7    1  0.1541902E-008  0.4614232E+02  0.7816164E-02  0.1320468E+00
        -11   -1    0    0    0    0  0.00000000000E+00  0.00000000000E+00  0.45593999997E+02  0.45594000000E+02  0.51100000000E-03 0.  1.
         11   -1    0    0    0    0 -0.00000000000E+00 -0.00000000000E+00 -0.45593999997E+02  0.45594000000E+02  0.51100000000E-03 0. -1.
    9900012    2    1    2    0    0  0.21326098281E+02 -0.49991318277E+01  0.39361398956E+02  0.46142317469E+02  0.99999973365E+01 0.  0.
         12    1    1    2    0    0 -0.21326098281E+02  0.49991318277E+01 -0.39361398956E+02  0.45045682531E+02  0.00000000000E+00 0. -1.
         11    1    3    3    0    0  0.62515008764E+01 -0.40027189841E+01  0.18929091923E+02  0.20332573466E+02  0.51100000000E-03 0. -1.
        -11    1    3    3    0    0  0.11134036191E+02 -0.11451284555E+01  0.11509929566E+02  0.16054798658E+02  0.51100000000E-03 0.  1.
        -12    1    3    3    0    0  0.39405612138E+01  0.14871561192E+00  0.89223774666E+01  0.97549453442E+01  0.00000000000E+00 0.  1.
</event>
<event>
 7    1  0.1541902E-008  0.4614232E+02  0.7816164E-02  0.1320468E+00
        -11   -1    0    0    0    0  0.00000000000E+00  0.00000000000E+00  0.45593999997E+02  0.45594000000E+02  0.51100000000E-03 0.  1.
         11   -1    0    0    0    0 -0.00000000000E+00 -0.00000000000E+00 -0.45593999997E+02  0.45594000000E+02  0.51100000000E-03 0. -1.
    9900012    2    1    2    0    0  0.27508132726E+02 -0.37405708525E+01  0.35474275853E+02  0.46142317813E+02  0.10000000475E+02 0.  0.
         12    1    1    2    0    0 -0.27508132726E+02  0.37405708525E+01 -0.35474275853E+02  0.45045682187E+02  0.00000000000E+00 0. -1.
         11    1    3    3    0    0  0.17624128392E+01  0.26147314052E+00  0.54094738199E+00  0.18620127685E+01  0.51100000000E-03 0.  1.
        -11    1    3    3    0    0  0.77422484242E+00 -0.15181519941E+01  0.71912085997E+00  0.18496877186E+01  0.51100000000E-03 0. -1.
        -12    1    3    3    0    0  0.24971495045E+02 -0.24838919989E+01  0.34214207611E+02  0.42430617326E+02  0.00000000000E+00 0.  1.
</event>
<event>
 7    1  0.1541902E-008  0.4614232E+02  0.7816164E-02  0.1320468E+00
        -11   -1    0    0    0    0  0.00000000000E+00  0.00000000000E+00  0.45593999997E+02  0.45594000000E+02  0.51100000000E-03 0. -1.
         11   -1    0    0    0    0 -0.00000000000E+00 -0.00000000000E+00 -0.45593999997E+02  0.45594000000E+02  0.51100000000E-03 0.  1.
    9900012    2    1    2    0    0  0.87253288999E+01  0.33401324034E+02 -0.28936713105E+02  0.46142321218E+02  0.10000031520E+02 0.  0.
         12    1    1    2    0    0 -0.87253288999E+01 -0.33401324034E+02  0.28936713105E+02  0.45045678782E+02  0.00000000000E+00 0. -1.
         11    1    3    3    0    0  0.84828264348E+01  0.27148125085E+02 -0.22687493641E+02  0.36382707540E+02  0.51100000000E-03 0. -1.
        -11    1    3    3    0    0 -0.36279082741E+00  0.28911708508E+01 -0.55562622129E+01  0.62739569741E+01  0.51100000000E-03 0.  1.
         12    1    3    3    0    0  0.60529329245E+00  0.33620280983E+01 -0.69295725060E+00  0.34856567036E+01  0.00000000000E+00 0. -1.
</event>
<event>
 7    1  0.1541902E-008  0.4614232E+02  0.7816164E-02  0.1320468E+00
        -11   -1    0    0    0    0  0.00000000000E+00  0.00000000000E+00  0.45593999997E+02  0.45594000000E+02  0.51100000000E-03 0.  1.
         11   -1    0    0    0    0 -0.00000000000E+00 -0.00000000000E+00 -0.45593999997E+02  0.45594000000E+02  0.51100000000E-03 0. -1.
    9900012    2    1    2    0    0 -0.47474553285E-01  0.13630211385E+02  0.42934004040E+02  0.46142316309E+02  0.99999867627E+01 0.  0.
         12    1    1    2    0    0  0.47474553285E-01 -0.13630211385E+02 -0.42934004040E+02  0.45045683691E+02  0.00000000000E+00 0. -1.
         11    1    3    3    0    0  0.28375006202E+01  0.46519695442E+01  0.20212972119E+02  0.20934576007E+02  0.51100000000E-03 0. -1.
        -11    1    3    3    0    0 -0.26878362003E+01  0.20150088225E+01  0.11674614045E+02  0.12148305946E+02  0.51100000000E-03 0.  1.
        -12    1    3    3    0    0 -0.19713897326E+00  0.69632330182E+01  0.11046417875E+02  0.13059434357E+02  0.00000000000E+00 0.  1.
</event>
<event>
 7    1  0.1541902E-008  0.4614232E+02  0.7816164E-02  0.1320468E+00
        -11   -1    0    0    0    0  0.00000000000E+00  0.00000000000E+00  0.45593999997E+02  0.45594000000E+02  0.51100000000E-03 0. -1.
         11   -1    0    0    0    0 -0.00000000000E+00 -0.00000000000E+00 -0.45593999997E+02  0.45594000000E+02  0.51100000000E-03 0.  1.
    9900012    2    1    2    0    0 -0.41585884717E+02  0.13177801685E+02 -0.11228233803E+02  0.46142317640E+02  0.99999988919E+01 0.  0.
         12    1    1    2    0    0  0.41585884717E+02 -0.13177801685E+02  0.11228233803E+02  0.45045682360E+02  0.00000000000E+00 0. -1.
         11    1    3    3    0    0 -0.78453597933E+01  0.58776690463E+01 -0.36480282891E+01  0.10459673722E+02  0.51100000000E-03 0. -1.
        -11    1    3    3    0    0 -0.28957714087E+02  0.78897904023E+01 -0.70852682022E+01  0.30838272058E+02  0.51100000000E-03 0.  1.
         12    1    3    3    0    0 -0.47828108367E+01 -0.58965776312E+00 -0.49493731209E+00  0.48443718603E+01  0.00000000000E+00 0. -1.
</event>
<event>
 7    1  0.1541902E-008  0.4614232E+02  0.7816164E-02  0.1320468E+00
        -11   -1    0    0    0    0  0.00000000000E+00  0.00000000000E+00  0.45593999997E+02  0.45594000000E+02  0.51100000000E-03 0.  1.
         11   -1    0    0    0    0 -0.00000000000E+00 -0.00000000000E+00 -0.45593999997E+02  0.45594000000E+02  0.51100000000E-03 0. -1.
    9900012    2    1    2    0    0  0.37356996795E+02  0.20170693001E+02  0.15056938954E+02  0.46142317894E+02  0.10000001213E+02 0.  0.
         12    1    1    2    0    0 -0.37356996795E+02 -0.20170693001E+02 -0.15056938954E+02  0.45045682106E+02  0.00000000000E+00 0. -1.
         11    1    3    3    0    0  0.28996410824E+02  0.12659848128E+02  0.87105597032E+01  0.32816725094E+02  0.51100000000E-03 0.  1.
        -11    1    3    3    0    0  0.29230916530E+01  0.39698021352E+01  0.42429005717E+01  0.65043062141E+01  0.51100000000E-03 0. -1.
         12    1    3    3    0    0  0.54374943181E+01  0.35410427378E+01  0.21034786790E+01  0.68212865856E+01  0.00000000000E+00 0. -1.
</event>
<event>
 7    1  0.1541902E-008  0.4614233E+02  0.7816164E-02  0.1320468E+00
        -11   -1    0    0    0    0  0.00000000000E+00  0.00000000000E+00  0.45593999997E+02  0.45594000000E+02  0.51100000000E-03 0. -1.
         11   -1    0    0    0    0 -0.00000000000E+00 -0.00000000000E+00 -0.45593999997E+02  0.45594000000E+02  0.51100000000E-03 0.  1.
    9900012    2    1    2    0    0  0.31896781413E+02 -0.20644717816E+02 -0.24197184627E+02  0.46142325601E+02  0.10000071490E+02 0.  0.
         12    1    1    2    0    0 -0.31896781413E+02  0.20644717816E+02  0.24197184627E+02  0.45045674399E+02  0.00000000000E+00 0. -1.
         11    1    3    3    0    0 -0.45821785334E+00 -0.11797752048E+01 -0.14590457835E-01  0.12657196678E+01  0.51100000000E-03 0. -1.
        -11    1    3    3    0    0  0.28987430665E+02 -0.17613285272E+02 -0.21063382066E+02  0.39926996117E+02  0.51100000000E-03 0.  1.
         12    1    3    3    0    0  0.33675686017E+01 -0.18516573384E+01 -0.31192121026E+01  0.49496098157E+01  0.00000000000E+00 0. -1.
</event>
<event>
 7    1  0.1541902E-008  0.4614232E+02  0.7816164E-02  0.1320468E+00
        -11   -1    0    0    0    0  0.00000000000E+00  0.00000000000E+00  0.45593999997E+02  0.45594000000E+02  0.51100000000E-03 0.  1.
         11   -1    0    0    0    0 -0.00000000000E+00 -0.00000000000E+00 -0.45593999997E+02  0.45594000000E+02  0.51100000000E-03 0. -1.
    9900012    2    1    2    0    0 -0.69410252195E+01  0.31934953158E+02  0.31001523307E+02  0.46142317503E+02  0.99999976426E+01 0.  0.
         12    1    1    2    0    0  0.69410252195E+01 -0.31934953158E+02 -0.31001523307E+02  0.45045682497E+02  0.00000000000E+00 0. -1.
         11    1    3    3    0    0  0.46478438766E+00  0.47321972280E+01  0.11392614015E+01  0.48895431212E+01  0.51100000000E-03 0. -1.
        -11    1    3    3    0    0 -0.29295241744E+01  0.75187663749E+01  0.63825679709E+01  0.10288398022E+02  0.51100000000E-03 0.  1.
         12    1    3    3    0    0 -0.44762854328E+01  0.19683989555E+02  0.23479693935E+02  0.30964376360E+02  0.00000000000E+00 0. -1.
</event>
<event>
 7    1  0.1541902E-008  0.4614232E+02  0.7816164E-02  0.1320468E+00
        -11   -1    0    0    0    0  0.00000000000E+00  0.00000000000E+00  0.45593999997E+02  0.45594000000E+02  0.51100000000E-03 0. -1.
         11   -1    0    0    0    0 -0.00000000000E+00 -0.00000000000E+00 -0.45593999997E+02  0.45594000000E+02  0.51100000000E-03 0.  1.
    9900012    2    1    2    0    0  0.11223843969E+02 -0.40379623858E+02  0.16511352953E+02  0.46142317935E+02  0.10000001586E+02 0.  0.
         12    1    1    2    0    0 -0.11223843969E+02  0.40379623858E+02 -0.16511352953E+02  0.45045682065E+02  0.00000000000E+00 0. -1.
         11    1    3    3    0    0  0.80258380135E+01 -0.13090717131E+02  0.77546839209E+01  0.17202211305E+02  0.51100000000E-03 0. -1.
        -11    1    3    3    0    0 -0.28759455414E+00 -0.61817960231E+01  0.18176211543E+01  0.64498883417E+01  0.51100000000E-03 0.  1.
        -12    1    3    3    0    0  0.34856005096E+01 -0.21107110705E+02  0.69390478774E+01  0.22490218288E+02  0.00000000000E+00 0.  1.
</event>
<event>
 7    1  0.1541902E-008  0.4614232E+02  0.7816164E-02  0.1320468E+00
        -11   -1    0    0    0    0  0.00000000000E+00  0.00000000000E+00  0.45593999997E+02  0.45594000000E+02  0.51100000000E-03 0. -1.
         11   -1    0    0    0    0 -0.00000000000E+00 -0.00000000000E+00 -0.45593999997E+02  0.45594000000E+02  0.51100000000E-03 0.  1.
    9900012    2    1    2    0    0  0.31380505387E+02 -0.26769319065E+02 -0.18104722192E+02  0.46142317330E+02  0.99999960711E+01 0.  0.
         12    1    1    2    0    0 -0.31380505387E+02  0.26769319065E+02  0.18104722192E+02  0.45045682670E+02  0.00000000000E+00 0. -1.
         11    1    3    3    0    0  0.82188208989E+01 -0.43274518066E+01 -0.54866891723E+01  0.10787938378E+02  0.51100000000E-03 0. -1.
        -11    1    3    3    0    0  0.20990601692E+02 -0.22543649251E+02 -0.11287162288E+02  0.32805815242E+02  0.51100000000E-03 0.  1.
        -12    1    3    3    0    0  0.21710827960E+01  0.10178199245E+00 -0.13308707317E+01  0.25485637103E+01  0.00000000000E+00 0.  1.
</event>
<event>
 7    1  0.1541902E-008  0.4614232E+02  0.7816164E-02  0.1320468E+00
        -11   -1    0    0    0    0  0.00000000000E+00  0.00000000000E+00  0.45593999997E+02  0.45594000000E+02  0.51100000000E-03 0.  1.
         11   -1    0    0    0    0 -0.00000000000E+00 -0.00000000000E+00 -0.45593999997E+02  0.45594000000E+02  0.51100000000E-03 0. -1.
    9900012    2    1    2    0    0  0.26054279279E+02 -0.87413775879E+01  0.35691404216E+02  0.46142317790E+02  0.10000000260E+02 0.  0.
         12    1    1    2    0    0 -0.26054279279E+02  0.87413775879E+01 -0.35691404216E+02  0.45045682210E+02  0.00000000000E+00 0. -1.
         11    1    3    3    0    0  0.46301653796E+01 -0.22829376545E+01  0.99194661000E+01  0.11182398837E+02  0.51100000000E-03 0. -1.
        -11    1    3    3    0    0  0.15211873193E+02 -0.44122957748E+01  0.12548216074E+02  0.20207106843E+02  0.51100000000E-03 0.  1.
        -12    1    3    3    0    0  0.62122407058E+01 -0.20461441586E+01  0.13223722042E+02  0.14752812110E+02  0.00000000000E+00 0.  1.
</event>
<event>
 7    1  0.1541902E-008  0.4614232E+02  0.7816164E-02  0.1320468E+00
        -11   -1    0    0    0    0  0.00000000000E+00  0.00000000000E+00  0.45593999997E+02  0.45594000000E+02  0.51100000000E-03 0. -1.
         11   -1    0    0    0    0 -0.00000000000E+00 -0.00000000000E+00 -0.45593999997E+02  0.45594000000E+02  0.51100000000E-03 0.  1.
    9900012    2    1    2    0    0 -0.15869135721E+01  0.31064442749E+02 -0.32582136567E+02  0.46142317396E+02  0.99999966734E+01 0.  0.
         12    1    1    2    0    0  0.15869135721E+01 -0.31064442749E+02  0.32582136567E+02  0.45045682604E+02  0.00000000000E+00 0. -1.
         11    1    3    3    0    0  0.36159269349E+00  0.39654319306E+00 -0.25386594351E+01  0.25947616014E+01  0.51100000000E-03 0. -1.
        -11    1    3    3    0    0 -0.32200702306E+01  0.28419749505E+02 -0.29086634026E+02  0.40793177045E+02  0.51100000000E-03 0.  1.
         12    1    3    3    0    0  0.12715639650E+01  0.22481500504E+01 -0.95684310561E+00  0.27543787494E+01  0.00000000000E+00 0. -1.
</event>
<event>
 7    1  0.1541902E-008  0.4614232E+02  0.7816164E-02  0.1320468E+00
        -11   -1    0    0    0    0  0.00000000000E+00  0.00000000000E+00  0.45593999997E+02  0.45594000000E+02  0.51100000000E-03 0.  1.
         11   -1    0    0    0    0 -0.00000000000E+00 -0.00000000000E+00 -0.45593999997E+02  0.45594000000E+02  0.51100000000E-03 0. -1.
    9900012    2    1    2    0    0 -0.12700703356E+02 -0.37190612461E+02  0.22015084665E+02  0.46142317923E+02  0.10000001477E+02 0.  0.
         12    1    1    2    0    0  0.12700703356E+02  0.37190612461E+02 -0.22015084665E+02  0.45045682077E+02  0.00000000000E+00 0. -1.
         11    1    3    3    0    0 -0.22047585188E+01 -0.64842192416E+01  0.73512834971E+01  0.10047259756E+02  0.51100000000E-03 0.  1.
        -11    1    3    3    0    0 -0.47353218636E+01 -0.18079539747E+02  0.55678508573E+01  0.19501128020E+02  0.51100000000E-03 0. -1.
        -12    1    3    3    0    0 -0.57606229737E+01 -0.12626853472E+02  0.90959503103E+01  0.16593930146E+02  0.00000000000E+00 0.  1.
</event>
<event>
 7    1  0.1541902E-008  0.4614232E+02  0.7816164E-02  0.1320468E+00
        -11   -1    0    0    0    0  0.00000000000E+00  0.00000000000E+00  0.45593999997E+02  0.45594000000E+02  0.51100000000E-03 0.  1.
         11   -1    0    0    0    0 -0.00000000000E+00 -0.00000000000E+00 -0.45593999997E+02  0.45594000000E+02  0.51100000000E-03 0. -1.
    9900012    2    1    2    0    0 -0.58803124507E+01 -0.26998758243E+02  0.35575306472E+02  0.46142318167E+02  0.10000003703E+02 0.  0.
         12    1    1    2    0    0  0.58803124507E+01  0.26998758243E+02 -0.35575306472E+02  0.45045681833E+02  0.00000000000E+00 0. -1.
         11    1    3    3    0    0 -0.96665747835E-01 -0.12093084342E+02  0.94470649558E+01  0.15345978943E+02  0.51100000000E-03 0. -1.
        -11    1    3    3    0    0 -0.19864836253E+01 -0.73096876418E+01  0.14936159843E+02  0.16747134732E+02  0.51100000000E-03 0.  1.
         12    1    3    3    0    0 -0.37971630776E+01 -0.75959862594E+01  0.11192081674E+02  0.14049204493E+02  0.00000000000E+00 0. -1.
</event>
<event>
 7    1  0.1541902E-008  0.4614232E+02  0.7816164E-02  0.1320468E+00
        -11   -1    0    0    0    0  0.00000000000E+00  0.00000000000E+00  0.45593999997E+02  0.45594000000E+02  0.51100000000E-03 0.  1.
         11   -1    0    0    0    0 -0.00000000000E+00 -0.00000000000E+00 -0.45593999997E+02  0.45594000000E+02  0.51100000000E-03 0. -1.
    9900012    2    1    2    0    0  0.10326004957E+02  0.89424638728E+01  0.42924578623E+02  0.46142317761E+02  0.99999999946E+01 0.  0.
         12    1    1    2    0    0 -0.10326004957E+02 -0.89424638728E+01 -0.42924578623E+02  0.45045682239E+02  0.00000000000E+00 0. -1.
         11    1    3    3    0    0  0.77641516158E+01  0.77953704174E+01  0.28100545007E+02  0.30177648686E+02  0.51100000000E-03 0.  1.
        -11    1    3    3    0    0  0.12899023063E+01 -0.15729682452E+01  0.22335400705E+01  0.30210558697E+01  0.51100000000E-03 0. -1.
         12    1    3    3    0    0  0.12719510354E+01  0.27200617006E+01  0.12590493545E+02  0.12943613205E+02  0.00000000000E+00 0. -1.
</event>
<event>
 7    1  0.1541902E-008  0.4614232E+02  0.7816164E-02  0.1320468E+00
        -11   -1    0    0    0    0  0.00000000000E+00  0.00000000000E+00  0.45593999997E+02  0.45594000000E+02  0.51100000000E-03 0. -1.
         11   -1    0    0    0    0 -0.00000000000E+00 -0.00000000000E+00 -0.45593999997E+02  0.45594000000E+02  0.51100000000E-03 0.  1.
    9900012    2    1    2    0    0 -0.50038361002E+01 -0.41840675947E+02  0.15919578675E+02  0.46142317358E+02  0.99999963284E+01 0.  0.
         12    1    1    2    0    0  0.50038361002E+01  0.41840675947E+02 -0.15919578675E+02  0.45045682642E+02  0.00000000000E+00 0. -1.
         11    1    3    3    0    0 -0.23597034330E+01 -0.18199650296E+02  0.42332644595E+01  0.18833905581E+02  0.51100000000E-03 0. -1.
        -11    1    3    3    0    0 -0.34470208106E+01 -0.13777353802E+02  0.39328676841E+01  0.14736515149E+02  0.51100000000E-03 0.  1.
         12    1    3    3    0    0  0.80288814344E+00 -0.98636718498E+01  0.77534465316E+01  0.12571896629E+02  0.00000000000E+00 0. -1.
</event>
<event>
 7    1  0.1541902E-008  0.4614232E+02  0.7816164E-02  0.1320468E+00
        -11   -1    0    0    0    0  0.00000000000E+00  0.00000000000E+00  0.45593999997E+02  0.45594000000E+02  0.51100000000E-03 0.  1.
         11   -1    0    0    0    0 -0.00000000000E+00 -0.00000000000E+00 -0.45593999997E+02  0.45594000000E+02  0.51100000000E-03 0. -1.
    9900012    2    1    2    0    0  0.11539893656E+02  0.13969272902E+02  0.41240802283E+02  0.46142317589E+02  0.99999984267E+01 0.  0.
         12    1    1    2    0    0 -0.11539893656E+02 -0.13969272902E+02 -0.41240802283E+02  0.45045682411E+02  0.00000000000E+00 0. -1.
         11    1    3    3    0    0  0.31065769933E+01  0.73609977198E+01  0.12345910346E+02  0.14705665934E+02  0.51100000000E-03 0. -1.
        -11    1    3    3    0    0  0.77662234268E+01  0.35431041610E+01  0.15663897133E+02  0.17838875723E+02  0.51100000000E-03 0.  1.
         12    1    3    3    0    0  0.66709323619E+00  0.30651710208E+01  0.13230994804E+02  0.13597775931E+02  0.00000000000E+00 0. -1.
</event>
<event>
 7    1  0.1541902E-008  0.4614232E+02  0.7816164E-02  0.1320468E+00
        -11   -1    0    0    0    0  0.00000000000E+00  0.00000000000E+00  0.45593999997E+02  0.45594000000E+02  0.51100000000E-03 0.  1.
         11   -1    0    0    0    0 -0.00000000000E+00 -0.00000000000E+00 -0.45593999997E+02  0.45594000000E+02  0.51100000000E-03 0. -1.
    9900012    2    1    2    0    0 -0.15712899189E+02  0.33789745623E+02  0.25307536573E+02  0.46142317437E+02  0.99999970406E+01 0.  0.
         12    1    1    2    0    0  0.15712899189E+02 -0.33789745623E+02 -0.25307536573E+02  0.45045682563E+02  0.00000000000E+00 0. -1.
         11    1    3    3    0    0  0.44504550639E+00  0.57341407391E+00  0.53405966584E-02  0.72587739048E+00  0.51100000000E-03 0. -1.
        -11    1    3    3    0    0 -0.85924644173E+01  0.17886207857E+02  0.89801864683E+01  0.21780510222E+02  0.51100000000E-03 0.  1.
        -12    1    3    3    0    0 -0.75654802784E+01  0.15330123692E+02  0.16322009508E+02  0.23635929824E+02  0.00000000000E+00 0.  1.
</event>
<event>
 7    1  0.1541902E-008  0.4614232E+02  0.7816164E-02  0.1320468E+00
        -11   -1    0    0    0    0  0.00000000000E+00  0.00000000000E+00  0.45593999997E+02  0.45594000000E+02  0.51100000000E-03 0. -1.
         11   -1    0    0    0    0 -0.00000000000E+00 -0.00000000000E+00 -0.45593999997E+02  0.45594000000E+02  0.51100000000E-03 0.  1.
    9900012    2    1    2    0    0 -0.42409566175E+02 -0.15136839930E+02  0.11909989170E+01  0.46142315361E+02  0.99999781139E+01 0.  0.
         12    1    1    2    0    0  0.42409566175E+02  0.15136839930E+02 -0.11909989170E+01  0.45045684639E+02  0.00000000000E+00 0. -1.
         11    1    3    3    0    0 -0.10457009655E+01 -0.15393177140E+01  0.11853364947E+00  0.18646822842E+01  0.51100000000E-03 0. -1.
        -11    1    3    3    0    0 -0.23295067900E+02 -0.73884843719E+01  0.45478761851E+01  0.24858259550E+02  0.51100000000E-03 0.  1.
        -12    1    3    3    0    0 -0.18068797309E+02 -0.62090378438E+01 -0.34754109176E+01  0.19419373527E+02  0.00000000000E+00 0.  1.
</event>
<event>
 7    1  0.1541902E-008  0.4614232E+02  0.7816164E-02  0.1320468E+00
        -11   -1    0    0    0    0  0.00000000000E+00  0.00000000000E+00  0.45593999997E+02  0.45594000000E+02  0.51100000000E-03 0. -1.
         11   -1    0    0    0    0 -0.00000000000E+00 -0.00000000000E+00 -0.45593999997E+02  0.45594000000E+02  0.51100000000E-03 0.  1.
    9900012    2    1    2    0    0 -0.43853866807E+02  0.10264802706E+02  0.76531653566E+00  0.46142317433E+02  0.99999970050E+01 0.  0.
         12    1    1    2    0    0  0.43853866807E+02 -0.10264802706E+02 -0.76531653566E+00  0.45045682567E+02  0.00000000000E+00 0. -1.
         11    1    3    3    0    0 -0.12136638102E+02  0.25280848985E+01  0.20165583999E+01  0.12560083825E+02  0.51100000000E-03 0. -1.
        -11    1    3    3    0    0 -0.24686624218E+02  0.65836615988E+01 -0.41616639252E+01  0.25886163528E+02  0.51100000000E-03 0.  1.
        -12    1    3    3    0    0 -0.70306044880E+01  0.11530562085E+01  0.29104220610E+01  0.76960700789E+01  0.00000000000E+00 0.  1.
</event>
<event>
 7    1  0.1541902E-008  0.4614232E+02  0.7816164E-02  0.1320468E+00
        -11   -1    0    0    0    0  0.00000000000E+00  0.00000000000E+00  0.45593999997E+02  0.45594000000E+02  0.51100000000E-03 0.  1.
         11   -1    0    0    0    0 -0.00000000000E+00 -0.00000000000E+00 -0.45593999997E+02  0.45594000000E+02  0.51100000000E-03 0. -1.
    9900012    2    1    2    0    0  0.11662870276E+02  0.43316313100E+02 -0.40973341199E+01  0.46142315739E+02  0.99999815585E+01 0.  0.
         12    1    1    2    0    0 -0.11662870276E+02 -0.43316313100E+02  0.40973341199E+01  0.45045684261E+02  0.00000000000E+00 0. -1.
         11    1    3    3    0    0  0.10844096849E+00  0.16144017541E+02  0.66497320009E+00  0.16158070783E+02  0.51100000000E-03 0. -1.
        -11    1    3    3    0    0  0.71036295956E+01  0.17366752195E+02 -0.20176914862E+01  0.18871584841E+02  0.51100000000E-03 0.  1.
         12    1    3    3    0    0  0.44507997117E+01  0.98055433649E+01 -0.27446158338E+01  0.11112660115E+02  0.00000000000E+00 0. -1.
</event>
<event>
 7    1  0.1541902E-008  0.4614231E+02  0.7816164E-02  0.1320468E+00
        -11   -1    0    0    0    0  0.00000000000E+00  0.00000000000E+00  0.45593999997E+02  0.45594000000E+02  0.51100000000E-03 0. -1.
         11   -1    0    0    0    0 -0.00000000000E+00 -0.00000000000E+00 -0.45593999997E+02  0.45594000000E+02  0.51100000000E-03 0.  1.
    9900012    2    1    2    0    0  0.26389666877E+02  0.35496597280E+02 -0.85259371288E+01  0.46142306085E+02  0.99998935315E+01 0.  0.
         12    1    1    2    0    0 -0.26389666877E+02 -0.35496597280E+02  0.85259371288E+01  0.45045693915E+02  0.00000000000E+00 0. -1.
         11    1    3    3    0    0  0.99853191851E+00  0.45305017411E+01  0.11552430765E+01  0.47809098344E+01  0.51100000000E-03 0. -1.
        -11    1    3    3    0    0  0.20999783328E+02  0.27589778550E+02 -0.82695243509E+01  0.35645081197E+02  0.51100000000E-03 0.  1.
        -12    1    3    3    0    0  0.43913516303E+01  0.33763169888E+01 -0.14116558544E+01  0.57163150544E+01  0.00000000000E+00 0.  1.
</event>
<event>
 7    1  0.1541902E-008  0.4614232E+02  0.7816164E-02  0.1320468E+00
        -11   -1    0    0    0    0  0.00000000000E+00  0.00000000000E+00  0.45593999997E+02  0.45594000000E+02  0.51100000000E-03 0.  1.
         11   -1    0    0    0    0 -0.00000000000E+00 -0.00000000000E+00 -0.45593999997E+02  0.45594000000E+02  0.51100000000E-03 0. -1.
    9900012    2    1    2    0    0 -0.20494889960E+02 -0.16719998276E+02  0.36462509504E+02  0.46142318118E+02  0.10000003258E+02 0.  0.
         12    1    1    2    0    0  0.20494889960E+02  0.16719998276E+02 -0.36462509504E+02  0.45045681882E+02  0.00000000000E+00 0. -1.
         11    1    3    3    0    0 -0.40840407062E+01 -0.22998082528E+01  0.79148128583E+01  0.91985199534E+01  0.51100000000E-03 0.  1.
        -11    1    3    3    0    0 -0.44560788790E+01 -0.37878086770E+01  0.14566530735E+02  0.15696749711E+02  0.51100000000E-03 0. -1.
        -12    1    3    3    0    0 -0.11954770375E+02 -0.10632381346E+02  0.13981165911E+02  0.21247048454E+02  0.00000000000E+00 0.  1.
</event>
<event>
 7    1  0.1541902E-008  0.4614232E+02  0.7816164E-02  0.1320468E+00
        -11   -1    0    0    0    0  0.00000000000E+00  0.00000000000E+00  0.45593999997E+02  0.45594000000E+02  0.51100000000E-03 0. -1.
         11   -1    0    0    0    0 -0.00000000000E+00 -0.00000000000E+00 -0.45593999997E+02  0.45594000000E+02  0.51100000000E-03 0.  1.
    9900012    2    1    2    0    0 -0.23578595234E+02  0.22031415453E+02 -0.31428968666E+02  0.46142317727E+02  0.99999996903E+01 0.  0.
         12    1    1    2    0    0  0.23578595234E+02 -0.22031415453E+02  0.31428968666E+02  0.45045682273E+02  0.00000000000E+00 0. -1.
         11    1    3    3    0    0 -0.63547375015E+01  0.34713596320E+01 -0.60483869151E+01  0.94348296722E+01  0.51100000000E-03 0. -1.
        -11    1    3    3    0    0 -0.14609121122E+02  0.16477932183E+02 -0.25042762553E+02  0.33347992826E+02  0.51100000000E-03 0.  1.
         12    1    3    3    0    0 -0.26147366104E+01  0.20821236373E+01 -0.33781919777E+00  0.33594952289E+01  0.00000000000E+00 0. -1.
</event>
<event>
 7    1  0.1541902E-008  0.4614232E+02  0.7816164E-02  0.1320468E+00
        -11   -1    0    0    0    0  0.00000000000E+00  0.00000000000E+00  0.45593999997E+02  0.45594000000E+02  0.51100000000E-03 0.  1.
         11   -1    0    0    0    0 -0.00000000000E+00 -0.00000000000E+00 -0.45593999997E+02  0.45594000000E+02  0.51100000000E-03 0. -1.
    9900012    2    1    2    0    0 -0.40160016330E+02 -0.67250506139E+01  0.19262924254E+02  0.46142317985E+02  0.10000002044E+02 0.  0.
         12    1    1    2    0    0  0.40160016330E+02  0.67250506139E+01 -0.19262924254E+02  0.45045682015E+02  0.00000000000E+00 0. -1.
         11    1    3    3    0    0 -0.10934805304E+02 -0.51821471528E+01  0.57482921456E+01  0.13396547279E+02  0.51100000000E-03 0. -1.
        -11    1    3    3    0    0 -0.26127718558E+02 -0.14894037694E+01  0.13885464536E+02  0.29625700435E+02  0.51100000000E-03 0.  1.
         12    1    3    3    0    0 -0.30974924680E+01 -0.53499691734E-01 -0.37083242804E+00  0.31200702710E+01  0.00000000000E+00 0. -1.
</event>
<event>
 7    1  0.1541902E-008  0.4614231E+02  0.7816164E-02  0.1320468E+00
        -11   -1    0    0    0    0  0.00000000000E+00  0.00000000000E+00  0.45593999997E+02  0.45594000000E+02  0.51100000000E-03 0. -1.
         11   -1    0    0    0    0 -0.00000000000E+00 -0.00000000000E+00 -0.45593999997E+02  0.45594000000E+02  0.51100000000E-03 0.  1.
    9900012    2    1    2    0    0 -0.15831138556E+02  0.10191023005E+02 -0.40922266602E+02  0.46142314283E+02  0.99999682817E+01 0.  0.
         12    1    1    2    0    0  0.15831138556E+02 -0.10191023005E+02  0.40922266602E+02  0.45045685717E+02  0.00000000000E+00 0. -1.
         11    1    3    3    0    0 -0.41176598417E+01 -0.12194151462E+01 -0.10261989374E+02  0.11124321194E+02  0.51100000000E-03 0. -1.
        -11    1    3    3    0    0 -0.86396743466E+01  0.68647816050E+01 -0.16684468973E+02  0.20003517303E+02  0.51100000000E-03 0.  1.
         12    1    3    3    0    0 -0.30738043680E+01  0.45456565464E+01 -0.13975808255E+02  0.15014475786E+02  0.00000000000E+00 0. -1.
</event>
<event>
 7    1  0.1541902E-008  0.4614233E+02  0.7816164E-02  0.1320468E+00
        -11   -1    0    0    0    0  0.00000000000E+00  0.00000000000E+00  0.45593999997E+02  0.45594000000E+02  0.51100000000E-03 0.  1.
         11   -1    0    0    0    0 -0.00000000000E+00 -0.00000000000E+00 -0.45593999997E+02  0.45594000000E+02  0.51100000000E-03 0. -1.
    9900012    2    1    2    0    0 -0.22298583251E+02 -0.24417909414E+02  0.30588420073E+02  0.46142328091E+02  0.10000094196E+02 0.  0.
         12    1    1    2    0    0  0.22298583251E+02  0.24417909414E+02 -0.30588420073E+02  0.45045671909E+02  0.00000000000E+00 0. -1.
         11    1    3    3    0    0 -0.63911344896E+01 -0.20663265881E+01  0.88068721652E+01  0.11075978658E+02  0.51100000000E-03 0. -1.
        -11    1    3    3    0    0 -0.13325195362E+02 -0.19292447783E+02  0.19175044291E+02  0.30289300037E+02  0.51100000000E-03 0.  1.
         12    1    3    3    0    0 -0.25822533996E+01 -0.30591350431E+01  0.26065036164E+01  0.47770493962E+01  0.00000000000E+00 0. -1.
</event>
<event>
 7    1  0.1541902E-008  0.4614232E+02  0.7816164E-02  0.1320468E+00
        -11   -1    0    0    0    0  0.00000000000E+00  0.00000000000E+00  0.45593999997E+02  0.45594000000E+02  0.51100000000E-03 0.  1.
         11   -1    0    0    0    0 -0.00000000000E+00 -0.00000000000E+00 -0.45593999997E+02  0.45594000000E+02  0.51100000000E-03 0. -1.
    9900012    2    1    2    0    0 -0.35280194889E+02  0.13844476343E+02  0.24346495201E+02  0.46142317575E+02  0.99999982986E+01 0.  0.
         12    1    1    2    0    0  0.35280194889E+02 -0.13844476343E+02 -0.24346495201E+02  0.45045682425E+02  0.00000000000E+00 0. -1.
         11    1    3    3    0    0 -0.49130481589E+01  0.24292417072E+01  0.11266546787E+01  0.55954095927E+01  0.51100000000E-03 0. -1.
        -11    1    3    3    0    0 -0.25027881705E+02  0.97066786496E+01  0.22230904735E+02  0.34854377037E+02  0.51100000000E-03 0.  1.
        -12    1    3    3    0    0 -0.53392650247E+01  0.17085559867E+01  0.98893578679E+00  0.56925309445E+01  0.00000000000E+00 0.  1.
</event>
<event>
 7    1  0.1541902E-008  0.4614232E+02  0.7816164E-02  0.1320468E+00
        -11   -1    0    0    0    0  0.00000000000E+00  0.00000000000E+00  0.45593999997E+02  0.45594000000E+02  0.51100000000E-03 0.  1.
         11   -1    0    0    0    0 -0.00000000000E+00 -0.00000000000E+00 -0.45593999997E+02  0.45594000000E+02  0.51100000000E-03 0. -1.
    9900012    2    1    2    0    0  0.42084131859E+02 -0.11319156527E+02  0.11398062550E+02  0.46142319977E+02  0.10000020210E+02 0.  0.
         12    1    1    2    0    0 -0.42084131859E+02  0.11319156527E+02 -0.11398062550E+02  0.45045680023E+02  0.00000000000E+00 0. -1.
         11    1    3    3    0    0  0.12247067357E+02 -0.85072939408E+00  0.72093367717E-01  0.12276790992E+02  0.51100000000E-03 0. -1.
        -11    1    3    3    0    0  0.85473843746E+01 -0.44358938561E+01  0.19093720366E+01  0.98173639937E+01  0.51100000000E-03 0.  1.
         12    1    3    3    0    0  0.21289680128E+02 -0.60325332764E+01  0.94165971459E+01  0.24048164992E+02  0.00000000000E+00 0. -1.
</event>
<event>
 7    1  0.1541902E-008  0.4614232E+02  0.7816164E-02  0.1320468E+00
        -11   -1    0    0    0    0  0.00000000000E+00  0.00000000000E+00  0.45593999997E+02  0.45594000000E+02  0.51100000000E-03 0.  1.
         11   -1    0    0    0    0 -0.00000000000E+00 -0.00000000000E+00 -0.45593999997E+02  0.45594000000E+02  0.51100000000E-03 0. -1.
    9900012    2    1    2    0    0  0.95332300933E+01  0.43271896080E+02  0.81101165853E+01  0.46142318105E+02  0.10000003136E+02 0.  0.
         12    1    1    2    0    0 -0.95332300933E+01 -0.43271896080E+02 -0.81101165853E+01  0.45045681895E+02  0.00000000000E+00 0. -1.
         11    1    3    3    0    0  0.41936288516E+01  0.84730677162E+01  0.19532375071E+01  0.96537317390E+01  0.51100000000E-03 0. -1.
        -11    1    3    3    0    0  0.57306311420E+01  0.23970500959E+02  0.69990154426E+01  0.25620524330E+02  0.51100000000E-03 0.  1.
         12    1    3    3    0    0 -0.39102990038E+00  0.10828327404E+02 -0.84213636442E+00  0.10868062036E+02  0.00000000000E+00 0. -1.
</event>
<event>
 7    1  0.1541902E-008  0.4614232E+02  0.7816164E-02  0.1320468E+00
        -11   -1    0    0    0    0  0.00000000000E+00  0.00000000000E+00  0.45593999997E+02  0.45594000000E+02  0.51100000000E-03 0. -1.
         11   -1    0    0    0    0 -0.00000000000E+00 -0.00000000000E+00 -0.45593999997E+02  0.45594000000E+02  0.51100000000E-03 0.  1.
    9900012    2    1    2    0    0 -0.71783741259E+01 -0.42097742414E+02  0.14330545409E+02  0.46142317597E+02  0.99999985047E+01 0.  0.
         12    1    1    2    0    0  0.71783741259E+01  0.42097742414E+02 -0.14330545409E+02  0.45045682403E+02  0.00000000000E+00 0. -1.
         11    1    3    3    0    0 -0.38204411789E+01 -0.60844867072E+01 -0.13155547207E+00  0.71856841285E+01  0.51100000000E-03 0. -1.
        -11    1    3    3    0    0 -0.26052571092E+01 -0.26894444171E+02  0.11005453241E+02  0.29175648976E+02  0.51100000000E-03 0.  1.
         12    1    3    3    0    0 -0.75267583785E+00 -0.91188115351E+01  0.34566476407E+01  0.97809844924E+01  0.00000000000E+00 0. -1.
</event>
<event>
 7    1  0.1541902E-008  0.4614232E+02  0.7816164E-02  0.1320468E+00
        -11   -1    0    0    0    0  0.00000000000E+00  0.00000000000E+00  0.45593999997E+02  0.45594000000E+02  0.51100000000E-03 0.  1.
         11   -1    0    0    0    0 -0.00000000000E+00 -0.00000000000E+00 -0.45593999997E+02  0.45594000000E+02  0.51100000000E-03 0. -1.
    9900012    2    1    2    0    0  0.20819151726E+02 -0.71041137636E+01  0.39309134018E+02  0.46142317319E+02  0.99999959690E+01 0.  0.
         12    1    1    2    0    0 -0.20819151726E+02  0.71041137636E+01 -0.39309134018E+02  0.45045682681E+02  0.00000000000E+00 0. -1.
         11    1    3    3    0    0  0.30950842879E+01 -0.35718665471E-01  0.16958399961E+01  0.35294045002E+01  0.51100000000E-03 0. -1.
        -11    1    3    3    0    0  0.10419882506E+02 -0.20305238386E+01  0.25288375161E+02  0.27426244676E+02  0.51100000000E-03 0.  1.
        -12    1    3    3    0    0  0.73041849325E+01 -0.50378712595E+01  0.12324918861E+02  0.15186668143E+02  0.00000000000E+00 0.  1.
</event>
<event>
 7    1  0.1541902E-008  0.4614232E+02  0.7816164E-02  0.1320468E+00
        -11   -1    0    0    0    0  0.00000000000E+00  0.00000000000E+00  0.45593999997E+02  0.45594000000E+02  0.51100000000E-03 0.  1.
         11   -1    0    0    0    0 -0.00000000000E+00 -0.00000000000E+00 -0.45593999997E+02  0.45594000000E+02  0.51100000000E-03 0. -1.
    9900012    2    1    2    0    0 -0.16548957929E+02 -0.36238912209E+02  0.21023481195E+02  0.46142317319E+02  0.99999959669E+01 0.  0.
         12    1    1    2    0    0  0.16548957929E+02  0.36238912209E+02 -0.21023481195E+02  0.45045682681E+02  0.00000000000E+00 0. -1.
         11    1    3    3    0    0 -0.10085474943E+02 -0.23858399782E+02  0.90764057975E+01  0.27446697204E+02  0.51100000000E-03 0. -1.
        -11    1    3    3    0    0 -0.23556097800E+01 -0.40733472852E+01  0.62277979402E+01  0.78055443748E+01  0.51100000000E-03 0.  1.
         12    1    3    3    0    0 -0.41078732059E+01 -0.83071651426E+01  0.57192774573E+01  0.10890075740E+02  0.00000000000E+00 0. -1.
</event>
<event>
 7    1  0.1541902E-008  0.4614232E+02  0.7816164E-02  0.1320468E+00
        -11   -1    0    0    0    0  0.00000000000E+00  0.00000000000E+00  0.45593999997E+02  0.45594000000E+02  0.51100000000E-03 0.  1.
         11   -1    0    0    0    0 -0.00000000000E+00 -0.00000000000E+00 -0.45593999997E+02  0.45594000000E+02  0.51100000000E-03 0. -1.
    9900012    2    1    2    0    0 -0.69366085326E+01 -0.39792845840E+02  0.19938054641E+02  0.46142321618E+02  0.10000035174E+02 0.  0.
         12    1    1    2    0    0  0.69366085326E+01  0.39792845840E+02 -0.19938054641E+02  0.45045678382E+02  0.00000000000E+00 0. -1.
         11    1    3    3    0    0  0.27889617000E+00 -0.14060133780E+02  0.41436150924E+01  0.14660651121E+02  0.51100000000E-03 0.  1.
        -11    1    3    3    0    0 -0.42688116531E+01 -0.70598017109E+01  0.59182974866E+01  0.10153314657E+02  0.51100000000E-03 0. -1.
         12    1    3    3    0    0 -0.29466930495E+01 -0.18672910349E+02  0.98761420619E+01  0.21328355840E+02  0.00000000000E+00 0. -1.
</event>
<event>
 7    1  0.1541902E-008  0.4614232E+02  0.7816164E-02  0.1320468E+00
        -11   -1    0    0    0    0  0.00000000000E+00  0.00000000000E+00  0.45593999997E+02  0.45594000000E+02  0.51100000000E-03 0.  1.
         11   -1    0    0    0    0 -0.00000000000E+00 -0.00000000000E+00 -0.45593999997E+02  0.45594000000E+02  0.51100000000E-03 0. -1.
    9900012    2    1    2    0    0  0.31437684601E+02 -0.11409431662E+02  0.30176321031E+02  0.46142317688E+02  0.99999993372E+01 0.  0.
         12    1    1    2    0    0 -0.31437684601E+02  0.11409431662E+02 -0.30176321031E+02  0.45045682312E+02  0.00000000000E+00 0. -1.
         11    1    3    3    0    0  0.15705257232E+02 -0.80844882903E+01  0.11437332839E+02  0.21043446447E+02  0.51100000000E-03 0. -1.
        -11    1    3    3    0    0  0.64115840332E+01 -0.11873553178E+01  0.44097544129E+01  0.78717314936E+01  0.51100000000E-03 0.  1.
         12    1    3    3    0    0  0.93208433363E+01 -0.21375880536E+01  0.14329233780E+02  0.17227139748E+02  0.00000000000E+00 0. -1.
</event>
<event>
 7    1  0.1541902E-008  0.4614232E+02  0.7816164E-02  0.1320468E+00
        -11   -1    0    0    0    0  0.00000000000E+00  0.00000000000E+00  0.45593999997E+02  0.45594000000E+02  0.51100000000E-03 0.  1.
         11   -1    0    0    0    0 -0.00000000000E+00 -0.00000000000E+00 -0.45593999997E+02  0.45594000000E+02  0.51100000000E-03 0. -1.
    9900012    2    1    2    0    0 -0.31799090479E+02  0.13501101128E+02  0.28907639168E+02  0.46142317751E+02  0.99999999114E+01 0.  0.
         12    1    1    2    0    0  0.31799090479E+02 -0.13501101128E+02 -0.28907639168E+02  0.45045682249E+02  0.00000000000E+00 0. -1.
         11    1    3    3    0    0 -0.14470337350E+02  0.23068475785E+01  0.89639219689E+01  0.17177430137E+02  0.51100000000E-03 0. -1.
        -11    1    3    3    0    0 -0.15710556573E+02  0.91234909481E+01  0.18648171991E+02  0.26034861125E+02  0.51100000000E-03 0.  1.
        -12    1    3    3    0    0 -0.16181965564E+01  0.20707626014E+01  0.12955452077E+01  0.29300264899E+01  0.00000000000E+00 0.  1.
</event>
<event>
 7    1  0.1541902E-008  0.4614232E+02  0.7816164E-02  0.1320468E+00
        -11   -1    0    0    0    0  0.00000000000E+00  0.00000000000E+00  0.45593999997E+02  0.45594000000E+02  0.51100000000E-03 0.  1.
         11   -1    0    0    0    0 -0.00000000000E+00 -0.00000000000E+00 -0.45593999997E+02  0.45594000000E+02  0.51100000000E-03 0. -1.
    9900012    2    1    2    0    0  0.39570786285E+02 -0.14658215783E+02 -0.15760814878E+02  0.46142315382E+02  0.99999783028E+01 0.  0.
         12    1    1    2    0    0 -0.39570786285E+02  0.14658215783E+02  0.15760814878E+02  0.45045684618E+02  0.00000000000E+00 0. -1.
         11    1    3    3    0    0  0.31927364091E+02 -0.95587211574E+01 -0.15343194600E+02  0.36689771718E+02  0.51100000000E-03 0. -1.
        -11    1    3    3    0    0  0.72062169203E+01 -0.40281151334E+01 -0.11477929671E+00  0.82564186170E+01  0.51100000000E-03 0.  1.
         12    1    3    3    0    0  0.43720527310E+00 -0.10713794917E+01 -0.30284098200E+00  0.11961250463E+01  0.00000000000E+00 0. -1.
</event>
<event>
 7    1  0.1541902E-008  0.4614232E+02  0.7816164E-02  0.1320468E+00
        -11   -1    0    0    0    0  0.00000000000E+00  0.00000000000E+00  0.45593999997E+02  0.45594000000E+02  0.51100000000E-03 0.  1.
         11   -1    0    0    0    0 -0.00000000000E+00 -0.00000000000E+00 -0.45593999997E+02  0.45594000000E+02  0.51100000000E-03 0. -1.
    9900012    2    1    2    0    0 -0.27314971216E+02  0.21996705887E+02  0.28269255069E+02  0.46142317581E+02  0.99999983592E+01 0.  0.
         12    1    1    2    0    0  0.27314971216E+02 -0.21996705887E+02 -0.28269255069E+02  0.45045682419E+02  0.00000000000E+00 0. -1.
         11    1    3    3    0    0 -0.48318423232E+01  0.35683885804E+01  0.86282436823E+01  0.10513167296E+02  0.51100000000E-03 0. -1.
        -11    1    3    3    0    0 -0.19598981449E+02  0.17749009183E+02  0.15888725916E+02  0.30847998514E+02  0.51100000000E-03 0.  1.
        -12    1    3    3    0    0 -0.28841474439E+01  0.67930812361E+00  0.37522854702E+01  0.47811517707E+01  0.00000000000E+00 0.  1.
</event>
<event>
 7    1  0.1541902E-008  0.4614232E+02  0.7816164E-02  0.1320468E+00
        -11   -1    0    0    0    0  0.00000000000E+00  0.00000000000E+00  0.45593999997E+02  0.45594000000E+02  0.51100000000E-03 0.  1.
         11   -1    0    0    0    0 -0.00000000000E+00 -0.00000000000E+00 -0.45593999997E+02  0.45594000000E+02  0.51100000000E-03 0. -1.
    9900012    2    1    2    0    0  0.20471063747E+02 -0.17996610062E+02  0.35863227105E+02  0.46142317820E+02  0.10000000540E+02 0.  0.
         12    1    1    2    0    0 -0.20471063747E+02  0.17996610062E+02 -0.35863227105E+02  0.45045682180E+02  0.00000000000E+00 0. -1.
         11    1    3    3    0    0  0.40455528109E+01 -0.32556668183E+01  0.47688332114E+01  0.70503641350E+01  0.51100000000E-03 0. -1.
        -11    1    3    3    0    0  0.93016874129E+00 -0.54727078565E+01  0.87791386689E+01  0.10386964003E+02  0.51100000000E-03 0.  1.
        -12    1    3    3    0    0  0.15495342195E+02 -0.92682353871E+01  0.22315255225E+02  0.28704989682E+02  0.00000000000E+00 0.  1.
</event>
<event>
 7    1  0.1541902E-008  0.4614232E+02  0.7816164E-02  0.1320468E+00
        -11   -1    0    0    0    0  0.00000000000E+00  0.00000000000E+00  0.45593999997E+02  0.45594000000E+02  0.51100000000E-03 0.  1.
         11   -1    0    0    0    0 -0.00000000000E+00 -0.00000000000E+00 -0.45593999997E+02  0.45594000000E+02  0.51100000000E-03 0. -1.
    9900012    2    1    2    0    0 -0.82505396853E+01  0.30060814622E+01  0.44181506789E+02  0.46142317931E+02  0.10000001553E+02 0.  0.
         12    1    1    2    0    0  0.82505396853E+01 -0.30060814622E+01 -0.44181506789E+02  0.45045682069E+02  0.00000000000E+00 0. -1.
         11    1    3    3    0    0 -0.11801751584E+01  0.26595428672E+01  0.26298313086E+01  0.39219886078E+01  0.51100000000E-03 0. -1.
        -11    1    3    3    0    0 -0.30997269431E+01  0.13411429327E+01  0.17528324006E+02  0.17850745480E+02  0.51100000000E-03 0.  1.
         12    1    3    3    0    0 -0.39706375838E+01 -0.99460433775E+00  0.24023351475E+02  0.24369583843E+02  0.00000000000E+00 0. -1.
</event>
<event>
 7    1  0.1541902E-008  0.4614232E+02  0.7816164E-02  0.1320468E+00
        -11   -1    0    0    0    0  0.00000000000E+00  0.00000000000E+00  0.45593999997E+02  0.45594000000E+02  0.51100000000E-03 0.  1.
         11   -1    0    0    0    0 -0.00000000000E+00 -0.00000000000E+00 -0.45593999997E+02  0.45594000000E+02  0.51100000000E-03 0. -1.
    9900012    2    1    2    0    0 -0.10511576956E+02  0.37612717652E+02  0.22447799658E+02  0.46142317756E+02  0.99999999569E+01 0.  0.
         12    1    1    2    0    0  0.10511576956E+02 -0.37612717652E+02 -0.22447799658E+02  0.45045682244E+02  0.00000000000E+00 0. -1.
         11    1    3    3    0    0 -0.68065428606E+01  0.33113301993E+02  0.18332005898E+02  0.38456237922E+02  0.51100000000E-03 0. -1.
        -11    1    3    3    0    0 -0.23780036568E+01  0.22641546547E+01  0.63924422593E+00  0.33451354432E+01  0.51100000000E-03 0.  1.
         12    1    3    3    0    0 -0.13270304388E+01  0.22352610046E+01  0.34765495344E+01  0.43409443914E+01  0.00000000000E+00 0. -1.
</event>
<event>
 7    1  0.1541902E-008  0.4614232E+02  0.7816164E-02  0.1320468E+00
        -11   -1    0    0    0    0  0.00000000000E+00  0.00000000000E+00  0.45593999997E+02  0.45594000000E+02  0.51100000000E-03 0.  1.
         11   -1    0    0    0    0 -0.00000000000E+00 -0.00000000000E+00 -0.45593999997E+02  0.45594000000E+02  0.51100000000E-03 0. -1.
    9900012    2    1    2    0    0  0.33404549503E+02 -0.66307071246E+01  0.29483609672E+02  0.46142318256E+02  0.10000004513E+02 0.  0.
         12    1    1    2    0    0 -0.33404549503E+02  0.66307071246E+01 -0.29483609672E+02  0.45045681744E+02  0.00000000000E+00 0. -1.
         11    1    3    3    0    0  0.43511110350E+01  0.20891604902E+01  0.42591038463E+01  0.64371363685E+01  0.51100000000E-03 0. -1.
        -11    1    3    3    0    0  0.27295340341E+02 -0.79698720395E+01  0.21981439952E+02  0.35940759136E+02  0.51100000000E-03 0.  1.
         12    1    3    3    0    0  0.17580981272E+01 -0.74999557529E+00  0.32430658746E+01  0.37644227519E+01  0.00000000000E+00 0. -1.
</event>
<event>
 7    1  0.1541902E-008  0.4614232E+02  0.7816164E-02  0.1320468E+00
        -11   -1    0    0    0    0  0.00000000000E+00  0.00000000000E+00  0.45593999997E+02  0.45594000000E+02  0.51100000000E-03 0.  1.
         11   -1    0    0    0    0 -0.00000000000E+00 -0.00000000000E+00 -0.45593999997E+02  0.45594000000E+02  0.51100000000E-03 0. -1.
    9900012    2    1    2    0    0 -0.21907907530E+02 -0.38847312073E+02  0.63279847930E+01  0.46142318085E+02  0.10000002951E+02 0.  0.
         12    1    1    2    0    0  0.21907907530E+02  0.38847312073E+02 -0.63279847930E+01  0.45045681915E+02  0.00000000000E+00 0. -1.
         11    1    3    3    0    0 -0.25800685928E+01 -0.29310283429E+01 -0.36379488940E+00  0.39217378894E+01  0.51100000000E-03 0. -1.
        -11    1    3    3    0    0  0.50148998779E+00 -0.22350116163E+01 -0.79587624687E+00  0.24249099766E+01  0.51100000000E-03 0.  1.
        -12    1    3    3    0    0 -0.19829328925E+02 -0.33681272114E+02  0.74876559293E+01  0.39795670219E+02  0.00000000000E+00 0.  1.
</event>
<event>
 7    1  0.1541902E-008  0.4614232E+02  0.7816164E-02  0.1320468E+00
        -11   -1    0    0    0    0  0.00000000000E+00  0.00000000000E+00  0.45593999997E+02  0.45594000000E+02  0.51100000000E-03 0. -1.
         11   -1    0    0    0    0 -0.00000000000E+00 -0.00000000000E+00 -0.45593999997E+02  0.45594000000E+02  0.51100000000E-03 0.  1.
    9900012    2    1    2    0    0  0.23490622006E+02  0.42527022970E+01 -0.38199720598E+02  0.46142318155E+02  0.10000003593E+02 0.  0.
         12    1    1    2    0    0 -0.23490622006E+02 -0.42527022970E+01  0.38199720598E+02  0.45045681845E+02  0.00000000000E+00 0. -1.
         11    1    3    3    0    0  0.12760677541E+02  0.48726184747E+01 -0.15495940384E+02  0.20656753635E+02  0.51100000000E-03 0. -1.
        -11    1    3    3    0    0  0.49968541310E+01 -0.16744226318E+01 -0.72034395321E+01  0.89253450191E+01  0.51100000000E-03 0.  1.
         12    1    3    3    0    0  0.57330903344E+01  0.10545064541E+01 -0.15500340682E+02  0.16560219501E+02  0.00000000000E+00 0. -1.
</event>
<event>
 7    1  0.1541902E-008  0.4614232E+02  0.7816164E-02  0.1320468E+00
        -11   -1    0    0    0    0  0.00000000000E+00  0.00000000000E+00  0.45593999997E+02  0.45594000000E+02  0.51100000000E-03 0.  1.
         11   -1    0    0    0    0 -0.00000000000E+00 -0.00000000000E+00 -0.45593999997E+02  0.45594000000E+02  0.51100000000E-03 0. -1.
    9900012    2    1    2    0    0 -0.77844887418E+01 -0.42519674371E+02  0.12672510182E+02  0.46142317766E+02  0.10000000047E+02 0.  0.
         12    1    1    2    0    0  0.77844887418E+01  0.42519674371E+02 -0.12672510182E+02  0.45045682234E+02  0.00000000000E+00 0. -1.
         11    1    3    3    0    0 -0.70881707141E+00 -0.23948646869E+01 -0.67156355152E+00  0.25862707464E+01  0.51100000000E-03 0. -1.
        -11    1    3    3    0    0 -0.20344094883E+01 -0.30748441898E+02  0.98512252110E+01  0.32352003640E+02  0.51100000000E-03 0.  1.
        -12    1    3    3    0    0 -0.50412621821E+01 -0.93763677861E+01  0.34928485228E+01  0.11204043380E+02  0.00000000000E+00 0.  1.
</event>
<event>
 7    1  0.1541902E-008  0.4614232E+02  0.7816164E-02  0.1320468E+00
        -11   -1    0    0    0    0  0.00000000000E+00  0.00000000000E+00  0.45593999997E+02  0.45594000000E+02  0.51100000000E-03 0. -1.
         11   -1    0    0    0    0 -0.00000000000E+00 -0.00000000000E+00 -0.45593999997E+02  0.45594000000E+02  0.51100000000E-03 0.  1.
    9900012    2    1    2    0    0 -0.42366505403E+02  0.90197934523E+01 -0.12362680594E+02  0.46142319569E+02  0.10000016488E+02 0.  0.
         12    1    1    2    0    0  0.42366505403E+02 -0.90197934523E+01  0.12362680594E+02  0.45045680431E+02  0.00000000000E+00 0. -1.
         11    1    3    3    0    0 -0.87416552775E+01  0.22527640267E+01 -0.68269872764E+01  0.11318093403E+02  0.51100000000E-03 0. -1.
        -11    1    3    3    0    0 -0.18594571417E+02  0.26391753826E+01 -0.35142111799E+01  0.19106883926E+02  0.51100000000E-03 0.  1.
         12    1    3    3    0    0 -0.15030278708E+02  0.41278540430E+01 -0.20214821379E+01  0.15717342240E+02  0.00000000000E+00 0. -1.
</event>
<event>
 7    1  0.1541902E-008  0.4614232E+02  0.7816164E-02  0.1320468E+00
        -11   -1    0    0    0    0  0.00000000000E+00  0.00000000000E+00  0.45593999997E+02  0.45594000000E+02  0.51100000000E-03 0.  1.
         11   -1    0    0    0    0 -0.00000000000E+00 -0.00000000000E+00 -0.45593999997E+02  0.45594000000E+02  0.51100000000E-03 0. -1.
    9900012    2    1    2    0    0  0.66923370352E+01 -0.10335895490E+02  0.43330074976E+02  0.46142317543E+02  0.99999980136E+01 0.  0.
         12    1    1    2    0    0 -0.66923370352E+01  0.10335895490E+02 -0.43330074976E+02  0.45045682457E+02  0.00000000000E+00 0. -1.
         11    1    3    3    0    0  0.53104088520E+01 -0.81660591902E+01  0.18412074029E+02  0.20830012847E+02  0.51100000000E-03 0. -1.
        -11    1    3    3    0    0  0.12449386367E+01 -0.29551923331E+01  0.13882560319E+02  0.14248105670E+02  0.51100000000E-03 0.  1.
         12    1    3    3    0    0  0.13698954657E+00  0.78535603328E+00  0.11035440628E+02  0.11064199026E+02  0.00000000000E+00 0. -1.
</event>
<event>
 7    1  0.1541902E-008  0.4614232E+02  0.7816164E-02  0.1320468E+00
        -11   -1    0    0    0    0  0.00000000000E+00  0.00000000000E+00  0.45593999997E+02  0.45594000000E+02  0.51100000000E-03 0. -1.
         11   -1    0    0    0    0 -0.00000000000E+00 -0.00000000000E+00 -0.45593999997E+02  0.45594000000E+02  0.51100000000E-03 0.  1.
    9900012    2    1    2    0    0 -0.13455937700E+02 -0.19643164841E+02 -0.38238685998E+02  0.46142319949E+02  0.10000019951E+02 0.  0.
         12    1    1    2    0    0  0.13455937700E+02  0.19643164841E+02  0.38238685998E+02  0.45045680051E+02  0.00000000000E+00 0. -1.
         11    1    3    3    0    0  0.30222508455E+00  0.33305955738E+00 -0.13581680828E+00  0.46980329611E+00  0.51100000000E-03 0. -1.
        -11    1    3    3    0    0 -0.96095416691E+01 -0.10997010042E+02 -0.17315294476E+02  0.22651643296E+02  0.51100000000E-03 0.  1.
        -12    1    3    3    0    0 -0.41486211150E+01 -0.89792143572E+01 -0.20787574714E+02  0.23020873357E+02  0.00000000000E+00 0.  1.
</event>
<event>
 7    1  0.1541902E-008  0.4614232E+02  0.7816164E-02  0.1320468E+00
        -11   -1    0    0    0    0  0.00000000000E+00  0.00000000000E+00  0.45593999997E+02  0.45594000000E+02  0.51100000000E-03 0.  1.
         11   -1    0    0    0    0 -0.00000000000E+00 -0.00000000000E+00 -0.45593999997E+02  0.45594000000E+02  0.51100000000E-03 0. -1.
    9900012    2    1    2    0    0  0.27571810080E+01 -0.86487157723E+01  0.44121550277E+02  0.46142317294E+02  0.99999957401E+01 0.  0.
         12    1    1    2    0    0 -0.27571810080E+01  0.86487157723E+01 -0.44121550277E+02  0.45045682706E+02  0.00000000000E+00 0. -1.
         11    1    3    3    0    0  0.49271536487E+01 -0.97347586536E+00  0.20894840144E+02  0.21489970760E+02  0.51100000000E-03 0. -1.
        -11    1    3    3    0    0 -0.18116098574E+01 -0.69093850157E+01  0.22207920978E+02  0.23328379412E+02  0.51100000000E-03 0.  1.
         12    1    3    3    0    0 -0.35836278331E+00 -0.76585489125E+00  0.10187891547E+01  0.13239671222E+01  0.00000000000E+00 0. -1.
</event>
<event>
 7    1  0.1541902E-008  0.4614231E+02  0.7816164E-02  0.1320468E+00
        -11   -1    0    0    0    0  0.00000000000E+00  0.00000000000E+00  0.45593999997E+02  0.45594000000E+02  0.51100000000E-03 0.  1.
         11   -1    0    0    0    0 -0.00000000000E+00 -0.00000000000E+00 -0.45593999997E+02  0.45594000000E+02  0.51100000000E-03 0. -1.
    9900012    2    1    2    0    0  0.42173283966E+02  0.92742900240E+00  0.15800882537E+02  0.46142313259E+02  0.99999589496E+01 0.  0.
         12    1    1    2    0    0 -0.42173283966E+02 -0.92742900240E+00 -0.15800882537E+02  0.45045686741E+02  0.00000000000E+00 0. -1.
         11    1    3    3    0    0  0.23862280550E+02 -0.33375096722E+01  0.86523523634E+01  0.25600988370E+02  0.51100000000E-03 0. -1.
        -11    1    3    3    0    0  0.18268584305E+02  0.41376473130E+01  0.64206212637E+01  0.19801153387E+02  0.51100000000E-03 0.  1.
         12    1    3    3    0    0  0.42419111055E-01  0.12729136161E+00  0.72790890977E+00  0.74017150219E+00  0.00000000000E+00 0. -1.
</event>
<event>
 7    1  0.1541902E-008  0.4614232E+02  0.7816164E-02  0.1320468E+00
        -11   -1    0    0    0    0  0.00000000000E+00  0.00000000000E+00  0.45593999997E+02  0.45594000000E+02  0.51100000000E-03 0. -1.
         11   -1    0    0    0    0 -0.00000000000E+00 -0.00000000000E+00 -0.45593999997E+02  0.45594000000E+02  0.51100000000E-03 0.  1.
    9900012    2    1    2    0    0  0.48599247569E+01 -0.38932236798E+01 -0.44613198192E+02  0.46142317496E+02  0.99999975866E+01 0.  0.
         12    1    1    2    0    0 -0.48599247569E+01  0.38932236798E+01  0.44613198192E+02  0.45045682504E+02  0.00000000000E+00 0. -1.
         11    1    3    3    0    0 -0.34726580957E+00  0.25213951657E+01 -0.11812317969E+02  0.12083413557E+02  0.51100000000E-03 0. -1.
        -11    1    3    3    0    0  0.17549113013E+01 -0.13193379818E+01 -0.36017506358E+01  0.42181719132E+01  0.51100000000E-03 0.  1.
         12    1    3    3    0    0  0.34522792652E+01 -0.50952808637E+01 -0.29199129587E+02  0.29840732026E+02  0.00000000000E+00 0. -1.
</event>
<event>
 7    1  0.1541902E-008  0.4614232E+02  0.7816164E-02  0.1320468E+00
        -11   -1    0    0    0    0  0.00000000000E+00  0.00000000000E+00  0.45593999997E+02  0.45594000000E+02  0.51100000000E-03 0.  1.
         11   -1    0    0    0    0 -0.00000000000E+00 -0.00000000000E+00 -0.45593999997E+02  0.45594000000E+02  0.51100000000E-03 0. -1.
    9900012    2    1    2    0    0  0.17742171532E+02  0.41140680356E+02  0.46661880071E+01  0.46142317173E+02  0.99999946408E+01 0.  0.
         12    1    1    2    0    0 -0.17742171532E+02 -0.41140680356E+02 -0.46661880071E+01  0.45045682827E+02  0.00000000000E+00 0. -1.
         11    1    3    3    0    0  0.46986645685E+01  0.99733657522E+01 -0.30738274047E+01  0.11445256150E+02  0.51100000000E-03 0. -1.
        -11    1    3    3    0    0  0.11515437188E+02  0.28573561440E+02  0.72301848092E+01  0.31643787378E+02  0.51100000000E-03 0.  1.
         12    1    3    3    0    0  0.15280697759E+01  0.25937531630E+01  0.50983060251E+00  0.30532736454E+01  0.00000000000E+00 0. -1.
</event>
<event>
 7    1  0.1541902E-008  0.4614232E+02  0.7816164E-02  0.1320468E+00
        -11   -1    0    0    0    0  0.00000000000E+00  0.00000000000E+00  0.45593999997E+02  0.45594000000E+02  0.51100000000E-03 0. -1.
         11   -1    0    0    0    0 -0.00000000000E+00 -0.00000000000E+00 -0.45593999997E+02  0.45594000000E+02  0.51100000000E-03 0.  1.
    9900012    2    1    2    0    0 -0.29287035782E+02  0.69603022840E+01 -0.33510254415E+02  0.46142318479E+02  0.10000006544E+02 0.  0.
         12    1    1    2    0    0  0.29287035782E+02 -0.69603022840E+01  0.33510254415E+02  0.45045681521E+02  0.00000000000E+00 0. -1.
         11    1    3    3    0    0 -0.46473919976E+00  0.17830890476E+01 -0.10619735288E+01  0.21267762253E+01  0.51100000000E-03 0. -1.
        -11    1    3    3    0    0 -0.90745232458E+01  0.23396426668E+01 -0.13971473252E+02  0.16823286392E+02  0.51100000000E-03 0.  1.
         12    1    3    3    0    0 -0.19747773336E+02  0.28375705696E+01 -0.18476807635E+02  0.27192255861E+02  0.00000000000E+00 0. -1.
</event>
<event>
 7    1  0.1541902E-008  0.4614232E+02  0.7816164E-02  0.1320468E+00
        -11   -1    0    0    0    0  0.00000000000E+00  0.00000000000E+00  0.45593999997E+02  0.45594000000E+02  0.51100000000E-03 0.  1.
         11   -1    0    0    0    0 -0.00000000000E+00 -0.00000000000E+00 -0.45593999997E+02  0.45594000000E+02  0.51100000000E-03 0. -1.
    9900012    2    1    2    0    0  0.88221745681E+01 -0.10971254538E+02  0.42789186733E+02  0.46142315506E+02  0.99999794401E+01 0.  0.
         12    1    1    2    0    0 -0.88221745681E+01  0.10971254538E+02 -0.42789186733E+02  0.45045684494E+02  0.00000000000E+00 0. -1.
         11    1    3    3    0    0  0.32973238206E+01 -0.79477577652E+01  0.17752946967E+02  0.19728312755E+02  0.51100000000E-03 0.  1.
        -11    1    3    3    0    0  0.78075267577E+00  0.16089688999E+01  0.52275107330E+01  0.55249637452E+01  0.51100000000E-03 0. -1.
         12    1    3    3    0    0  0.47440980718E+01 -0.46324656726E+01  0.19808729033E+02  0.20889039007E+02  0.00000000000E+00 0. -1.
</event>
<event>
 7    1  0.1541902E-008  0.4614232E+02  0.7816164E-02  0.1320468E+00
        -11   -1    0    0    0    0  0.00000000000E+00  0.00000000000E+00  0.45593999997E+02  0.45594000000E+02  0.51100000000E-03 0.  1.
         11   -1    0    0    0    0 -0.00000000000E+00 -0.00000000000E+00 -0.45593999997E+02  0.45594000000E+02  0.51100000000E-03 0. -1.
    9900012    2    1    2    0    0 -0.17249211129E+02  0.41028631747E+02  0.69447496866E+01  0.46142318123E+02  0.10000003300E+02 0.  0.
         12    1    1    2    0    0  0.17249211129E+02 -0.41028631747E+02 -0.69447496866E+01  0.45045681877E+02  0.00000000000E+00 0. -1.
         11    1    3    3    0    0 -0.10012236211E+02  0.13395957746E+02  0.31312859531E+01  0.17014743897E+02  0.51100000000E-03 0. -1.
        -11    1    3    3    0    0 -0.35424388498E+01  0.19514044869E+02  0.38732049932E+01  0.20207635620E+02  0.51100000000E-03 0.  1.
         12    1    3    3    0    0 -0.36945360674E+01  0.81186291312E+01 -0.59741259675E-01  0.89199386064E+01  0.00000000000E+00 0. -1.
</event>
<event>
 7    1  0.1541902E-008  0.4614232E+02  0.7816164E-02  0.1320468E+00
        -11   -1    0    0    0    0  0.00000000000E+00  0.00000000000E+00  0.45593999997E+02  0.45594000000E+02  0.51100000000E-03 0.  1.
         11   -1    0    0    0    0 -0.00000000000E+00 -0.00000000000E+00 -0.45593999997E+02  0.45594000000E+02  0.51100000000E-03 0. -1.
    9900012    2    1    2    0    0 -0.53580867480E+01  0.43811204962E+02  0.89990404159E+01  0.46142317607E+02  0.99999985958E+01 0.  0.
         12    1    1    2    0    0  0.53580867480E+01 -0.43811204962E+02 -0.89990404159E+01  0.45045682393E+02  0.00000000000E+00 0. -1.
         11    1    3    3    0    0 -0.48504908467E+01  0.98216835897E+01  0.39196989400E+01  0.11634292846E+02  0.51100000000E-03 0. -1.
        -11    1    3    3    0    0 -0.14474473690E+01  0.29934092865E+02  0.44962848200E+01  0.30304481467E+02  0.51100000000E-03 0.  1.
         12    1    3    3    0    0  0.93985146767E+00  0.40554285070E+01  0.58305665589E+00  0.42035432936E+01  0.00000000000E+00 0. -1.
</event>
<event>
 7    1  0.1541902E-008  0.4614232E+02  0.7816164E-02  0.1320468E+00
        -11   -1    0    0    0    0  0.00000000000E+00  0.00000000000E+00  0.45593999997E+02  0.45594000000E+02  0.51100000000E-03 0.  1.
         11   -1    0    0    0    0 -0.00000000000E+00 -0.00000000000E+00 -0.45593999997E+02  0.45594000000E+02  0.51100000000E-03 0. -1.
    9900012    2    1    2    0    0  0.65562469435E+01 -0.44536651609E+02  0.16173534341E+01  0.46142317158E+02  0.99999945010E+01 0.  0.
         12    1    1    2    0    0 -0.65562469435E+01  0.44536651609E+02 -0.16173534341E+01  0.45045682842E+02  0.00000000000E+00 0. -1.
         11    1    3    3    0    0  0.15966484788E+01 -0.23220266789E+02  0.28564091351E+00  0.23276848307E+02  0.51100000000E-03 0.  1.
        -11    1    3    3    0    0  0.52360823358E+01 -0.18956525450E+02  0.30926454494E+01  0.19908060465E+02  0.51100000000E-03 0. -1.
        -12    1    3    3    0    0 -0.27648387105E+00 -0.23598593709E+01 -0.17609329288E+01  0.29574083859E+01  0.00000000000E+00 0.  1.
</event>
<event>
 7    1  0.1541902E-008  0.4614232E+02  0.7816164E-02  0.1320468E+00
        -11   -1    0    0    0    0  0.00000000000E+00  0.00000000000E+00  0.45593999997E+02  0.45594000000E+02  0.51100000000E-03 0. -1.
         11   -1    0    0    0    0 -0.00000000000E+00 -0.00000000000E+00 -0.45593999997E+02  0.45594000000E+02  0.51100000000E-03 0.  1.
    9900012    2    1    2    0    0 -0.33438836379E+02 -0.17467333414E+02 -0.24614021578E+02  0.46142316819E+02  0.99999914101E+01 0.  0.
         12    1    1    2    0    0  0.33438836379E+02  0.17467333414E+02  0.24614021578E+02  0.45045683181E+02  0.00000000000E+00 0. -1.
         11    1    3    3    0    0 -0.24444953644E+02 -0.17096003062E+02 -0.17016173125E+02  0.34342091192E+02  0.51100000000E-03 0. -1.
        -11    1    3    3    0    0 -0.38269378969E+01  0.18531173482E+00 -0.32838862771E+01  0.50461572952E+01  0.51100000000E-03 0.  1.
         12    1    3    3    0    0 -0.51669448384E+01 -0.55664208627E+00 -0.43139621762E+01  0.67540683320E+01  0.00000000000E+00 0. -1.
</event>
<event>
 7    1  0.1541902E-008  0.4614232E+02  0.7816164E-02  0.1320468E+00
        -11   -1    0    0    0    0  0.00000000000E+00  0.00000000000E+00  0.45593999997E+02  0.45594000000E+02  0.51100000000E-03 0.  1.
         11   -1    0    0    0    0 -0.00000000000E+00 -0.00000000000E+00 -0.45593999997E+02  0.45594000000E+02  0.51100000000E-03 0. -1.
    9900012    2    1    2    0    0 -0.80828207084E+01  0.17382450884E+02  0.40763119417E+02  0.46142317699E+02  0.99999994306E+01 0.  0.
         12    1    1    2    0    0  0.80828207084E+01 -0.17382450884E+02 -0.40763119417E+02  0.45045682301E+02  0.00000000000E+00 0. -1.
         11    1    3    3    0    0 -0.14565429403E+01 -0.37180137788E+00  0.62310877019E+01  0.64098524016E+01  0.51100000000E-03 0. -1.
        -11    1    3    3    0    0 -0.73970347133E+01  0.14383478983E+02  0.27738103848E+02  0.32109235362E+02  0.51100000000E-03 0.  1.
        -12    1    3    3    0    0  0.77075694517E+00  0.33707732788E+01  0.67939278680E+01  0.76232299349E+01  0.00000000000E+00 0.  1.
</event>
<event>
 7    1  0.1541902E-008  0.4614232E+02  0.7816164E-02  0.1320468E+00
        -11   -1    0    0    0    0  0.00000000000E+00  0.00000000000E+00  0.45593999997E+02  0.45594000000E+02  0.51100000000E-03 0.  1.
         11   -1    0    0    0    0 -0.00000000000E+00 -0.00000000000E+00 -0.45593999997E+02  0.45594000000E+02  0.51100000000E-03 0. -1.
    9900012    2    1    2    0    0 -0.20951527338E+02 -0.94979330963E+01  0.38729009265E+02  0.46142318858E+02  0.10000010004E+02 0.  0.
         12    1    1    2    0    0  0.20951527338E+02  0.94979330963E+01 -0.38729009265E+02  0.45045681142E+02  0.00000000000E+00 0. -1.
         11    1    3    3    0    0 -0.23799085751E+00 -0.85519698152E+00  0.47430371988E+00  0.10064620238E+01  0.51100000000E-03 0. -1.
        -11    1    3    3    0    0 -0.47274549768E+01  0.13704967539E+01  0.58961198272E+01  0.76805807845E+01  0.51100000000E-03 0.  1.
        -12    1    3    3    0    0 -0.15986081504E+02 -0.10013232869E+02  0.32358585717E+02  0.37455276050E+02  0.00000000000E+00 0.  1.
</event>
<event>
 7    1  0.1541902E-008  0.4614232E+02  0.7816164E-02  0.1320468E+00
        -11   -1    0    0    0    0  0.00000000000E+00  0.00000000000E+00  0.45593999997E+02  0.45594000000E+02  0.51100000000E-03 0.  1.
         11   -1    0    0    0    0 -0.00000000000E+00 -0.00000000000E+00 -0.45593999997E+02  0.45594000000E+02  0.51100000000E-03 0. -1.
    9900012    2    1    2    0    0  0.34852249883E+02  0.22209881888E+02  0.17920807163E+02  0.46142317579E+02  0.99999983381E+01 0.  0.
         12    1    1    2    0    0 -0.34852249883E+02 -0.22209881888E+02 -0.17920807163E+02  0.45045682421E+02  0.00000000000E+00 0. -1.
         11    1    3    3    0    0  0.11303109741E+02  0.66925138492E+01  0.81629282576E+01  0.15465556228E+02  0.51100000000E-03 0. -1.
        -11    1    3    3    0    0  0.37789205126E+01  0.14675971105E+01 -0.95074380625E+00  0.41638918773E+01  0.51100000000E-03 0.  1.
        -12    1    3    3    0    0  0.19770219630E+02  0.14049770929E+02  0.10708622712E+02  0.26512869474E+02  0.00000000000E+00 0.  1.
</event>
<event>
 7    1  0.1541902E-008  0.4614232E+02  0.7816164E-02  0.1320468E+00
        -11   -1    0    0    0    0  0.00000000000E+00  0.00000000000E+00  0.45593999997E+02  0.45594000000E+02  0.51100000000E-03 0. -1.
         11   -1    0    0    0    0 -0.00000000000E+00 -0.00000000000E+00 -0.45593999997E+02  0.45594000000E+02  0.51100000000E-03 0.  1.
    9900012    2    1    2    0    0  0.32618799476E+02  0.28449463929E+02 -0.12480201149E+02  0.46142317657E+02  0.99999990473E+01 0.  0.
         12    1    1    2    0    0 -0.32618799476E+02 -0.28449463929E+02  0.12480201149E+02  0.45045682343E+02  0.00000000000E+00 0. -1.
         11    1    3    3    0    0 -0.14435700942E-01  0.76900399572E+00 -0.25182850450E+00  0.80931662017E+00  0.51100000000E-03 0. -1.
        -11    1    3    3    0    0  0.32883598807E+02  0.26422007120E+02 -0.11088276087E+02  0.43616549583E+02  0.51100000000E-03 0.  1.
        -12    1    3    3    0    0 -0.25036362990E+00  0.12584528133E+01 -0.11400965580E+01  0.17164514534E+01  0.00000000000E+00 0.  1.
</event>
<event>
 7    1  0.1541902E-008  0.4614232E+02  0.7816164E-02  0.1320468E+00
        -11   -1    0    0    0    0  0.00000000000E+00  0.00000000000E+00  0.45593999997E+02  0.45594000000E+02  0.51100000000E-03 0.  1.
         11   -1    0    0    0    0 -0.00000000000E+00 -0.00000000000E+00 -0.45593999997E+02  0.45594000000E+02  0.51100000000E-03 0. -1.
    9900012    2    1    2    0    0  0.27623645808E+02  0.31980508773E+02  0.15597907441E+02  0.46142318013E+02  0.10000002301E+02 0.  0.
         12    1    1    2    0    0 -0.27623645808E+02 -0.31980508773E+02 -0.15597907441E+02  0.45045681987E+02  0.00000000000E+00 0. -1.
         11    1    3    3    0    0  0.58566747428E+01  0.38069727010E+01  0.12813312103E+01  0.71017948521E+01  0.51100000000E-03 0. -1.
        -11    1    3    3    0    0  0.12834646317E+02  0.21905853557E+02  0.10603456143E+02  0.27514139066E+02  0.51100000000E-03 0.  1.
        -12    1    3    3    0    0  0.89323247482E+01  0.62676825154E+01  0.37131200882E+01  0.11526384095E+02  0.00000000000E+00 0.  1.
</event>
<event>
 7    1  0.1541902E-008  0.4614232E+02  0.7816164E-02  0.1320468E+00
        -11   -1    0    0    0    0  0.00000000000E+00  0.00000000000E+00  0.45593999997E+02  0.45594000000E+02  0.51100000000E-03 0.  1.
         11   -1    0    0    0    0 -0.00000000000E+00 -0.00000000000E+00 -0.45593999997E+02  0.45594000000E+02  0.51100000000E-03 0. -1.
    9900012    2    1    2    0    0 -0.24810302106E+02  0.30798836255E+02  0.21563721932E+02  0.46142317534E+02  0.99999979314E+01 0.  0.
         12    1    1    2    0    0  0.24810302106E+02 -0.30798836255E+02 -0.21563721932E+02  0.45045682466E+02  0.00000000000E+00 0. -1.
         11    1    3    3    0    0 -0.56184403689E+01  0.59327917555E+01  0.63021412158E+01  0.10319005493E+02  0.51100000000E-03 0. -1.
        -11    1    3    3    0    0 -0.18354708244E+02  0.24364463266E+02  0.12628454315E+02  0.33015151728E+02  0.51100000000E-03 0.  1.
         12    1    3    3    0    0 -0.83715349310E+00  0.50158123302E+00  0.26331264003E+01  0.28081603132E+01  0.00000000000E+00 0. -1.
</event>
<event>
 7    1  0.1541902E-008  0.4614232E+02  0.7816164E-02  0.1320468E+00
        -11   -1    0    0    0    0  0.00000000000E+00  0.00000000000E+00  0.45593999997E+02  0.45594000000E+02  0.51100000000E-03 0.  1.
         11   -1    0    0    0    0 -0.00000000000E+00 -0.00000000000E+00 -0.45593999997E+02  0.45594000000E+02  0.51100000000E-03 0. -1.
    9900012    2    1    2    0    0 -0.24656791542E+02 -0.20637931399E+02  0.31547296778E+02  0.46142317460E+02  0.99999972506E+01 0.  0.
         12    1    1    2    0    0  0.24656791542E+02  0.20637931399E+02 -0.31547296778E+02  0.45045682540E+02  0.00000000000E+00 0. -1.
         11    1    3    3    0    0 -0.94709585756E+01 -0.28357033445E+01  0.66484586961E+01  0.11913952874E+02  0.51100000000E-03 0. -1.
        -11    1    3    3    0    0 -0.12462624098E+02 -0.13932512744E+02  0.18832415978E+02  0.26534728237E+02  0.51100000000E-03 0.  1.
         12    1    3    3    0    0 -0.27232088677E+01 -0.38697153103E+01  0.60664221037E+01  0.76936363483E+01  0.00000000000E+00 0. -1.
</event>
<event>
 7    1  0.1541902E-008  0.4614232E+02  0.7816164E-02  0.1320468E+00
        -11   -1    0    0    0    0  0.00000000000E+00  0.00000000000E+00  0.45593999997E+02  0.45594000000E+02  0.51100000000E-03 0.  1.
         11   -1    0    0    0    0 -0.00000000000E+00 -0.00000000000E+00 -0.45593999997E+02  0.45594000000E+02  0.51100000000E-03 0. -1.
    9900012    2    1    2    0    0  0.38232103437E+02 -0.21824686193E+02  0.95447788572E+01  0.46142318031E+02  0.10000002462E+02 0.  0.
         12    1    1    2    0    0 -0.38232103437E+02  0.21824686193E+02 -0.95447788572E+01  0.45045681969E+02  0.00000000000E+00 0. -1.
         11    1    3    3    0    0  0.16385890860E+02 -0.80057713175E+01  0.75557667280E+01  0.19740299005E+02  0.51100000000E-03 0. -1.
        -11    1    3    3    0    0  0.93300897873E+01 -0.61288692409E+01  0.33353017312E+01  0.11650658844E+02  0.51100000000E-03 0.  1.
         12    1    3    3    0    0  0.12516122789E+02 -0.76900456347E+01 -0.13462896020E+01  0.14751360182E+02  0.00000000000E+00 0. -1.
</event>
<event>
 7    1  0.1541902E-008  0.4614232E+02  0.7816164E-02  0.1320468E+00
        -11   -1    0    0    0    0  0.00000000000E+00  0.00000000000E+00  0.45593999997E+02  0.45594000000E+02  0.51100000000E-03 0. -1.
         11   -1    0    0    0    0 -0.00000000000E+00 -0.00000000000E+00 -0.45593999997E+02  0.45594000000E+02  0.51100000000E-03 0.  1.
    9900012    2    1    2    0    0 -0.34176305963E+02  0.25136505686E+02  0.15140988978E+02  0.46142319246E+02  0.10000013537E+02 0.  0.
         12    1    1    2    0    0  0.34176305963E+02 -0.25136505686E+02 -0.15140988978E+02  0.45045680754E+02  0.00000000000E+00 0. -1.
         11    1    3    3    0    0 -0.83412578244E+01  0.30045142569E+01  0.22893857009E+01  0.91566901859E+01  0.51100000000E-03 0. -1.
        -11    1    3    3    0    0 -0.11290027176E+02  0.75582850914E+01  0.20690357561E+01  0.13743118146E+02  0.51100000000E-03 0.  1.
         12    1    3    3    0    0 -0.14545020963E+02  0.14573706338E+02  0.10782567521E+02  0.23242510914E+02  0.00000000000E+00 0. -1.
</event>
<event>
 7    1  0.1541902E-008  0.4614232E+02  0.7816164E-02  0.1320468E+00
        -11   -1    0    0    0    0  0.00000000000E+00  0.00000000000E+00  0.45593999997E+02  0.45594000000E+02  0.51100000000E-03 0.  1.
         11   -1    0    0    0    0 -0.00000000000E+00 -0.00000000000E+00 -0.45593999997E+02  0.45594000000E+02  0.51100000000E-03 0. -1.
    9900012    2    1    2    0    0  0.61770470057E+01  0.40636254493E+02  0.18429660662E+02  0.46142317842E+02  0.10000000737E+02 0.  0.
         12    1    1    2    0    0 -0.61770470057E+01 -0.40636254493E+02 -0.18429660662E+02  0.45045682158E+02  0.00000000000E+00 0. -1.
         11    1    3    3    0    0  0.53502175908E+01  0.12188393333E+02  0.51865730023E+01  0.14285737646E+02  0.51100000000E-03 0. -1.
        -11    1    3    3    0    0 -0.22558325865E+01  0.14805063747E+02  0.64128122947E+01  0.16291189490E+02  0.51100000000E-03 0.  1.
        -12    1    3    3    0    0  0.30826620014E+01  0.13642797413E+02  0.68302753650E+01  0.15565390706E+02  0.00000000000E+00 0.  1.
</event>
<event>
 7    1  0.1541902E-008  0.4614232E+02  0.7816164E-02  0.1320468E+00
        -11   -1    0    0    0    0  0.00000000000E+00  0.00000000000E+00  0.45593999997E+02  0.45594000000E+02  0.51100000000E-03 0.  1.
         11   -1    0    0    0    0 -0.00000000000E+00 -0.00000000000E+00 -0.45593999997E+02  0.45594000000E+02  0.51100000000E-03 0. -1.
    9900012    2    1    2    0    0 -0.44768318751E+02 -0.46167119444E+01  0.18966083135E+01  0.46142317453E+02  0.99999971935E+01 0.  0.
         12    1    1    2    0    0  0.44768318751E+02  0.46167119444E+01 -0.18966083135E+01  0.45045682547E+02  0.00000000000E+00 0. -1.
         11    1    3    3    0    0 -0.10378317003E+02 -0.45679771663E+01 -0.15707147808E+01  0.11447402517E+02  0.51100000000E-03 0. -1.
        -11    1    3    3    0    0 -0.17077011558E+02  0.82198959968E+00  0.47294383080E+00  0.17103323267E+02  0.51100000000E-03 0.  1.
         12    1    3    3    0    0 -0.17312990190E+02 -0.87072437779E+00  0.29943792634E+01  0.17591591669E+02  0.00000000000E+00 0. -1.
</event>
<event>
 7    1  0.1541902E-008  0.4614232E+02  0.7816164E-02  0.1320468E+00
        -11   -1    0    0    0    0  0.00000000000E+00  0.00000000000E+00  0.45593999997E+02  0.45594000000E+02  0.51100000000E-03 0.  1.
         11   -1    0    0    0    0 -0.00000000000E+00 -0.00000000000E+00 -0.45593999997E+02  0.45594000000E+02  0.51100000000E-03 0. -1.
    9900012    2    1    2    0    0 -0.33102374531E+01 -0.40529770909E+02  0.19377653129E+02  0.46142318268E+02  0.10000004622E+02 0.  0.
         12    1    1    2    0    0  0.33102374531E+01  0.40529770909E+02 -0.19377653129E+02  0.45045681732E+02  0.00000000000E+00 0. -1.
         11    1    3    3    0    0  0.13841747311E+01 -0.20420527611E+01  0.70752754783E+00  0.25664205925E+01  0.51100000000E-03 0. -1.
        -11    1    3    3    0    0  0.17653235329E+01 -0.63071547905E+01  0.32530285545E+01  0.73129175959E+01  0.51100000000E-03 0.  1.
         12    1    3    3    0    0 -0.64597357171E+01 -0.32180563357E+02  0.15417097026E+02  0.36262980080E+02  0.00000000000E+00 0. -1.
</event>
<event>
 7    1  0.1541902E-008  0.4614232E+02  0.7816164E-02  0.1320468E+00
        -11   -1    0    0    0    0  0.00000000000E+00  0.00000000000E+00  0.45593999997E+02  0.45594000000E+02  0.51100000000E-03 0.  1.
         11   -1    0    0    0    0 -0.00000000000E+00 -0.00000000000E+00 -0.45593999997E+02  0.45594000000E+02  0.51100000000E-03 0. -1.
    9900012    2    1    2    0    0  0.89812781263E+00 -0.16761411524E+02  0.41801458989E+02  0.46142317371E+02  0.99999964472E+01 0.  0.
         12    1    1    2    0    0 -0.89812781263E+00  0.16761411524E+02 -0.41801458989E+02  0.45045682629E+02  0.00000000000E+00 0. -1.
         11    1    3    3    0    0 -0.31784269904E+00  0.50563789146E+00  0.27313988530E-01  0.59786283854E+00  0.51100000000E-03 0. -1.
        -11    1    3    3    0    0  0.94288651037E+00 -0.10863531873E+02  0.32423696397E+02  0.34208207319E+02  0.51100000000E-03 0.  1.
         12    1    3    3    0    0  0.27308400131E+00 -0.64035175427E+01  0.93504486040E+01  0.11336247214E+02  0.00000000000E+00 0. -1.
</event>
<event>
 7    1  0.1541902E-008  0.4614232E+02  0.7816164E-02  0.1320468E+00
        -11   -1    0    0    0    0  0.00000000000E+00  0.00000000000E+00  0.45593999997E+02  0.45594000000E+02  0.51100000000E-03 0.  1.
         11   -1    0    0    0    0 -0.00000000000E+00 -0.00000000000E+00 -0.45593999997E+02  0.45594000000E+02  0.51100000000E-03 0. -1.
    9900012    2    1    2    0    0  0.39320170621E+02  0.21601415782E+02  0.40517351189E+01  0.46142317199E+02  0.99999948776E+01 0.  0.
         12    1    1    2    0    0 -0.39320170621E+02 -0.21601415782E+02 -0.40517351189E+01  0.45045682801E+02  0.00000000000E+00 0. -1.
         11    1    3    3    0    0  0.43725269302E+01  0.57595648847E+01  0.14774050743E+01  0.73806710691E+01  0.51100000000E-03 0. -1.
        -11    1    3    3    0    0  0.17590864215E+02  0.10500084814E+02  0.60858043173E+00  0.20495381317E+02  0.51100000000E-03 0.  1.
         12    1    3    3    0    0  0.17356779477E+02  0.53417660837E+01  0.19657496128E+01  0.18266264814E+02  0.00000000000E+00 0. -1.
</event>
<event>
 7    1  0.1541902E-008  0.4614232E+02  0.7816164E-02  0.1320468E+00
        -11   -1    0    0    0    0  0.00000000000E+00  0.00000000000E+00  0.45593999997E+02  0.45594000000E+02  0.51100000000E-03 0. -1.
         11   -1    0    0    0    0 -0.00000000000E+00 -0.00000000000E+00 -0.45593999997E+02  0.45594000000E+02  0.51100000000E-03 0.  1.
    9900012    2    1    2    0    0  0.40381906508E+02  0.16158070920E+02 -0.11718864984E+02  0.46142318458E+02  0.10000006353E+02 0.  0.
         12    1    1    2    0    0 -0.40381906508E+02 -0.16158070920E+02  0.11718864984E+02  0.45045681542E+02  0.00000000000E+00 0. -1.
         11    1    3    3    0    0  0.85469051497E+01  0.12626869738E+01 -0.18600678543E+01  0.88376364893E+01  0.51100000000E-03 0. -1.
        -11    1    3    3    0    0  0.12973467686E+01  0.18979010261E+01 -0.23292212684E+01  0.32726761101E+01  0.51100000000E-03 0.  1.
        -12    1    3    3    0    0  0.30537654590E+02  0.12997482920E+02 -0.75295758617E+01  0.34032005858E+02  0.00000000000E+00 0.  1.
</event>
<event>
 7    1  0.1541902E-008  0.4614232E+02  0.7816164E-02  0.1320468E+00
        -11   -1    0    0    0    0  0.00000000000E+00  0.00000000000E+00  0.45593999997E+02  0.45594000000E+02  0.51100000000E-03 0.  1.
         11   -1    0    0    0    0 -0.00000000000E+00 -0.00000000000E+00 -0.45593999997E+02  0.45594000000E+02  0.51100000000E-03 0. -1.
    9900012    2    1    2    0    0 -0.21205879357E+02  0.30750872648E+01  0.39622820326E+02  0.46142319058E+02  0.10000011824E+02 0.  0.
         12    1    1    2    0    0  0.21205879357E+02 -0.30750872648E+01 -0.39622820326E+02  0.45045680942E+02  0.00000000000E+00 0. -1.
         11    1    3    3    0    0 -0.88339876578E+01 -0.15086743375E+01  0.13675277976E+02  0.16350188506E+02  0.51100000000E-03 0. -1.
        -11    1    3    3    0    0 -0.82276304114E+01 -0.17974369828E+00  0.16342999884E+02  0.18298083382E+02  0.51100000000E-03 0.  1.
        -12    1    3    3    0    0 -0.41442612875E+01  0.47635053006E+01  0.96045424654E+01  0.11494047170E+02  0.00000000000E+00 0.  1.
</event>
<event>
 7    1  0.1541902E-008  0.4614232E+02  0.7816164E-02  0.1320468E+00
        -11   -1    0    0    0    0  0.00000000000E+00  0.00000000000E+00  0.45593999997E+02  0.45594000000E+02  0.51100000000E-03 0. -1.
         11   -1    0    0    0    0 -0.00000000000E+00 -0.00000000000E+00 -0.45593999997E+02  0.45594000000E+02  0.51100000000E-03 0.  1.
    9900012    2    1    2    0    0 -0.96694431436E+01  0.41840438377E+02  0.13601217567E+02  0.46142317259E+02  0.99999954237E+01 0.  0.
         12    1    1    2    0    0  0.96694431436E+01 -0.41840438377E+02 -0.13601217567E+02  0.45045682741E+02  0.00000000000E+00 0. -1.
         11    1    3    3    0    0 -0.37855921044E+01  0.24602875755E+02  0.63812082265E+01  0.25697315457E+02  0.51100000000E-03 0. -1.
        -11    1    3    3    0    0 -0.55676007375E+01  0.75493835419E+01  0.43186386971E+01  0.10326761849E+02  0.51100000000E-03 0.  1.
        -12    1    3    3    0    0 -0.31625030173E+00  0.96881790797E+01  0.29013706433E+01  0.10118239953E+02  0.00000000000E+00 0.  1.
</event>
<event>
 7    1  0.1541902E-008  0.4614232E+02  0.7816164E-02  0.1320468E+00
        -11   -1    0    0    0    0  0.00000000000E+00  0.00000000000E+00  0.45593999997E+02  0.45594000000E+02  0.51100000000E-03 0. -1.
         11   -1    0    0    0    0 -0.00000000000E+00 -0.00000000000E+00 -0.45593999997E+02  0.45594000000E+02  0.51100000000E-03 0.  1.
    9900012    2    1    2    0    0  0.26254996094E+02  0.24367983200E+02 -0.27312819378E+02  0.46142317327E+02  0.99999960408E+01 0.  0.
         12    1    1    2    0    0 -0.26254996094E+02 -0.24367983200E+02  0.27312819378E+02  0.45045682673E+02  0.00000000000E+00 0. -1.
         11    1    3    3    0    0  0.11779808291E+01  0.33821458411E+01 -0.32686074881E+01  0.48487466934E+01  0.51100000000E-03 0.  1.
        -11    1    3    3    0    0  0.17465160252E+02  0.98339763625E+01 -0.15158167473E+02  0.25129841924E+02  0.51100000000E-03 0. -1.
        -12    1    3    3    0    0  0.76118550125E+01  0.11151860996E+02 -0.88860444161E+01  0.16163728709E+02  0.00000000000E+00 0.  1.
</event>
<event>
 7    1  0.1541902E-008  0.4614232E+02  0.7816164E-02  0.1320468E+00
        -11   -1    0    0    0    0  0.00000000000E+00  0.00000000000E+00  0.45593999997E+02  0.45594000000E+02  0.51100000000E-03 0.  1.
         11   -1    0    0    0    0 -0.00000000000E+00 -0.00000000000E+00 -0.45593999997E+02  0.45594000000E+02  0.51100000000E-03 0. -1.
    9900012    2    1    2    0    0 -0.33018898721E+02 -0.94543874961E+01  0.29145844701E+02  0.46142318975E+02  0.10000011073E+02 0.  0.
         12    1    1    2    0    0  0.33018898721E+02  0.94543874961E+01 -0.29145844701E+02  0.45045681025E+02  0.00000000000E+00 0. -1.
         11    1    3    3    0    0 -0.94784591562E+01 -0.67751873556E+01  0.12610680433E+02  0.17168972390E+02  0.51100000000E-03 0. -1.
        -11    1    3    3    0    0 -0.10239769151E+02 -0.16318192226E+00  0.76159371032E+01  0.12762523216E+02  0.51100000000E-03 0.  1.
         12    1    3    3    0    0 -0.13300670413E+02 -0.25160182182E+01  0.89192271649E+01  0.16210823370E+02  0.00000000000E+00 0. -1.
</event>
<event>
 7    1  0.1541902E-008  0.4614232E+02  0.7816164E-02  0.1320468E+00
        -11   -1    0    0    0    0  0.00000000000E+00  0.00000000000E+00  0.45593999997E+02  0.45594000000E+02  0.51100000000E-03 0.  1.
         11   -1    0    0    0    0 -0.00000000000E+00 -0.00000000000E+00 -0.45593999997E+02  0.45594000000E+02  0.51100000000E-03 0. -1.
    9900012    2    1    2    0    0  0.91808426457E+00 -0.27704647210E+02  0.35506662576E+02  0.46142318265E+02  0.10000004591E+02 0.  0.
         12    1    1    2    0    0 -0.91808426457E+00  0.27704647210E+02 -0.35506662576E+02  0.45045681735E+02  0.00000000000E+00 0. -1.
         11    1    3    3    0    0  0.26502907993E+01 -0.15821373823E+02  0.26285250554E+02  0.30793738128E+02  0.51100000000E-03 0. -1.
        -11    1    3    3    0    0 -0.10227895961E+01 -0.30919420544E+01  0.37615931498E+01  0.49755188183E+01  0.51100000000E-03 0.  1.
         12    1    3    3    0    0 -0.70941693855E+00 -0.87913313328E+01  0.54598188720E+01  0.10373061318E+02  0.00000000000E+00 0. -1.
</event>
<event>
 7    1  0.1541902E-008  0.4614232E+02  0.7816164E-02  0.1320468E+00
        -11   -1    0    0    0    0  0.00000000000E+00  0.00000000000E+00  0.45593999997E+02  0.45594000000E+02  0.51100000000E-03 0.  1.
         11   -1    0    0    0    0 -0.00000000000E+00 -0.00000000000E+00 -0.45593999997E+02  0.45594000000E+02  0.51100000000E-03 0. -1.
    9900012    2    1    2    0    0  0.18418469002E+02 -0.32663582340E+02  0.24959245218E+02  0.46142317260E+02  0.99999954279E+01 0.  0.
         12    1    1    2    0    0 -0.18418469002E+02  0.32663582340E+02 -0.24959245218E+02  0.45045682740E+02  0.00000000000E+00 0. -1.
         11    1    3    3    0    0  0.19593904216E+01 -0.26006490500E+01  0.55451979211E+01  0.64305370344E+01  0.51100000000E-03 0. -1.
        -11    1    3    3    0    0  0.14267686141E+02 -0.24667951759E+02  0.18045612626E+02  0.33730088158E+02  0.51100000000E-03 0.  1.
         12    1    3    3    0    0  0.21913924391E+01 -0.53949815310E+01  0.13684346712E+01  0.59816920675E+01  0.00000000000E+00 0. -1.
</event>
<event>
 7    1  0.1541902E-008  0.4614232E+02  0.7816164E-02  0.1320468E+00
        -11   -1    0    0    0    0  0.00000000000E+00  0.00000000000E+00  0.45593999997E+02  0.45594000000E+02  0.51100000000E-03 0.  1.
         11   -1    0    0    0    0 -0.00000000000E+00 -0.00000000000E+00 -0.45593999997E+02  0.45594000000E+02  0.51100000000E-03 0. -1.
    9900012    2    1    2    0    0 -0.12407025172E+02 -0.41549396867E+02 -0.12199461407E+02  0.46142317496E+02  0.99999975837E+01 0.  0.
         12    1    1    2    0    0  0.12407025172E+02  0.41549396867E+02  0.12199461407E+02  0.45045682504E+02  0.00000000000E+00 0. -1.
         11    1    3    3    0    0 -0.64020715299E+01 -0.20296195995E+02 -0.70219591524E+01  0.22410488668E+02  0.51100000000E-03 0. -1.
        -11    1    3    3    0    0 -0.25648333906E+01 -0.17035366971E+02 -0.59681354566E+01  0.18231860554E+02  0.51100000000E-03 0.  1.
         12    1    3    3    0    0 -0.34401202518E+01 -0.42178339006E+01  0.79063320160E+00  0.54999682744E+01  0.00000000000E+00 0. -1.
</event>
<event>
 7    1  0.1541902E-008  0.4614231E+02  0.7816164E-02  0.1320468E+00
        -11   -1    0    0    0    0  0.00000000000E+00  0.00000000000E+00  0.45593999997E+02  0.45594000000E+02  0.51100000000E-03 0.  1.
         11   -1    0    0    0    0 -0.00000000000E+00 -0.00000000000E+00 -0.45593999997E+02  0.45594000000E+02  0.51100000000E-03 0. -1.
    9900012    2    1    2    0    0  0.14499708583E+02  0.21053324391E+02  0.37089489949E+02  0.46142308956E+02  0.99999197073E+01 0.  0.
         12    1    1    2    0    0 -0.14499708583E+02 -0.21053324391E+02 -0.37089489949E+02  0.45045691044E+02  0.00000000000E+00 0. -1.
         11    1    3    3    0    0  0.15050737733E+01  0.94423158012E+01  0.14133216738E+02  0.17063715609E+02  0.51100000000E-03 0. -1.
        -11    1    3    3    0    0  0.51392671046E+01  0.36122866179E+01  0.11147987709E+02  0.12796027165E+02  0.51100000000E-03 0.  1.
        -12    1    3    3    0    0  0.78553677055E+01  0.79987219722E+01  0.11808285502E+02  0.16282566182E+02  0.00000000000E+00 0.  1.
</event>
<event>
 7    1  0.1541902E-008  0.4614232E+02  0.7816164E-02  0.1320468E+00
        -11   -1    0    0    0    0  0.00000000000E+00  0.00000000000E+00  0.45593999997E+02  0.45594000000E+02  0.51100000000E-03 0. -1.
         11   -1    0    0    0    0 -0.00000000000E+00 -0.00000000000E+00 -0.45593999997E+02  0.45594000000E+02  0.51100000000E-03 0.  1.
    9900012    2    1    2    0    0 -0.11286693872E+02 -0.37301662393E+02 -0.22590043554E+02  0.46142317148E+02  0.99999944104E+01 0.  0.
         12    1    1    2    0    0  0.11286693872E+02  0.37301662393E+02  0.22590043554E+02  0.45045682852E+02  0.00000000000E+00 0. -1.
         11    1    3    3    0    0  0.26288514934E-01 -0.10243140719E+01 -0.29797086687E+01  0.31509640454E+01  0.51100000000E-03 0. -1.
        -11    1    3    3    0    0 -0.70165725006E+01 -0.27895437530E+02 -0.13593028551E+02  0.31814433047E+02  0.51100000000E-03 0.  1.
         12    1    3    3    0    0 -0.42964098864E+01 -0.83819107911E+01 -0.60173063335E+01  0.11176920056E+02  0.00000000000E+00 0. -1.
</event>
<event>
 7    1  0.1541902E-008  0.4614232E+02  0.7816164E-02  0.1320468E+00
        -11   -1    0    0    0    0  0.00000000000E+00  0.00000000000E+00  0.45593999997E+02  0.45594000000E+02  0.51100000000E-03 0. -1.
         11   -1    0    0    0    0 -0.00000000000E+00 -0.00000000000E+00 -0.45593999997E+02  0.45594000000E+02  0.51100000000E-03 0.  1.
    9900012    2    1    2    0    0 -0.29176591543E+02  0.30402381730E+02  0.15922787678E+02  0.46142317894E+02  0.10000001214E+02 0.  0.
         12    1    1    2    0    0  0.29176591543E+02 -0.30402381730E+02 -0.15922787678E+02  0.45045682106E+02  0.00000000000E+00 0. -1.
         11    1    3    3    0    0 -0.11306730104E+02  0.16572824205E+02  0.49045068035E+01  0.20653203990E+02  0.51100000000E-03 0.  1.
        -11    1    3    3    0    0 -0.13974486384E+02  0.12311200458E+02  0.10181602885E+02  0.21225384896E+02  0.51100000000E-03 0. -1.
         12    1    3    3    0    0 -0.38953750549E+01  0.15183570670E+01  0.83667798944E+00  0.42637290087E+01  0.00000000000E+00 0. -1.
</event>
<event>
 7    1  0.1541902E-008  0.4614232E+02  0.7816164E-02  0.1320468E+00
        -11   -1    0    0    0    0  0.00000000000E+00  0.00000000000E+00  0.45593999997E+02  0.45594000000E+02  0.51100000000E-03 0. -1.
         11   -1    0    0    0    0 -0.00000000000E+00 -0.00000000000E+00 -0.45593999997E+02  0.45594000000E+02  0.51100000000E-03 0.  1.
    9900012    2    1    2    0    0 -0.38511939266E+02 -0.23328181387E+02  0.13190688567E+01  0.46142318126E+02  0.10000003327E+02 0.  0.
         12    1    1    2    0    0  0.38511939266E+02  0.23328181387E+02 -0.13190688567E+01  0.45045681874E+02  0.00000000000E+00 0. -1.
         11    1    3    3    0    0 -0.41580564757E+01 -0.56730263562E-01  0.31916519725E-01  0.41585659672E+01  0.51100000000E-03 0. -1.
        -11    1    3    3    0    0 -0.16815377098E+02 -0.94501535188E+01  0.32769973620E+01  0.19565301440E+02  0.51100000000E-03 0.  1.
        -12    1    3    3    0    0 -0.17538505693E+02 -0.13821297605E+02 -0.19898450250E+01  0.22418450719E+02  0.00000000000E+00 0.  1.
</event>
<event>
 7    1  0.1541902E-008  0.4614232E+02  0.7816164E-02  0.1320468E+00
        -11   -1    0    0    0    0  0.00000000000E+00  0.00000000000E+00  0.45593999997E+02  0.45594000000E+02  0.51100000000E-03 0.  1.
         11   -1    0    0    0    0 -0.00000000000E+00 -0.00000000000E+00 -0.45593999997E+02  0.45594000000E+02  0.51100000000E-03 0. -1.
    9900012    2    1    2    0    0 -0.15804007015E+02 -0.11657681047E+02  0.40539424577E+02  0.46142321960E+02  0.10000038286E+02 0.  0.
         12    1    1    2    0    0  0.15804007015E+02  0.11657681047E+02 -0.40539424577E+02  0.45045678040E+02  0.00000000000E+00 0. -1.
         11    1    3    3    0    0  0.98798950538E+00 -0.96360810741E+00  0.50658183768E+01  0.52504456892E+01  0.51100000000E-03 0. -1.
        -11    1    3    3    0    0 -0.16643754996E+02 -0.96121480927E+01  0.33023378227E+02  0.38209311445E+02  0.51100000000E-03 0.  1.
        -12    1    3    3    0    0 -0.14824152399E+00 -0.10819248465E+01  0.24502279731E+01  0.26825648255E+01  0.00000000000E+00 0.  1.
</event>
<event>
 7    1  0.1541902E-008  0.4614232E+02  0.7816164E-02  0.1320468E+00
        -11   -1    0    0    0    0  0.00000000000E+00  0.00000000000E+00  0.45593999997E+02  0.45594000000E+02  0.51100000000E-03 0.  1.
         11   -1    0    0    0    0 -0.00000000000E+00 -0.00000000000E+00 -0.45593999997E+02  0.45594000000E+02  0.51100000000E-03 0. -1.
    9900012    2    1    2    0    0 -0.17961163014E+02 -0.24638983530E+02  0.33157661601E+02  0.46142318641E+02  0.10000008026E+02 0.  0.
         12    1    1    2    0    0  0.17961163014E+02  0.24638983530E+02 -0.33157661601E+02  0.45045681359E+02  0.00000000000E+00 0. -1.
         11    1    3    3    0    0 -0.94525104596E+01 -0.11598070437E+02  0.12271435781E+02  0.19350796579E+02  0.51100000000E-03 0.  1.
        -11    1    3    3    0    0 -0.47523564485E+01 -0.92056134948E+01  0.17810689132E+02  0.20604583453E+02  0.51100000000E-03 0. -1.
         12    1    3    3    0    0 -0.37562961057E+01 -0.38352995981E+01  0.30755366880E+01  0.61869386097E+01  0.00000000000E+00 0. -1.
</event>
<event>
 7    1  0.1541902E-008  0.4614232E+02  0.7816164E-02  0.1320468E+00
        -11   -1    0    0    0    0  0.00000000000E+00  0.00000000000E+00  0.45593999997E+02  0.45594000000E+02  0.51100000000E-03 0.  1.
         11   -1    0    0    0    0 -0.00000000000E+00 -0.00000000000E+00 -0.45593999997E+02  0.45594000000E+02  0.51100000000E-03 0. -1.
    9900012    2    1    2    0    0  0.32076756619E+02  0.19975443606E+02  0.24518906554E+02  0.46142318286E+02  0.10000004789E+02 0.  0.
         12    1    1    2    0    0 -0.32076756619E+02 -0.19975443606E+02 -0.24518906554E+02  0.45045681714E+02  0.00000000000E+00 0. -1.
         11    1    3    3    0    0  0.23374074359E+01  0.55884742851E+00  0.10059408334E+01  0.26053217059E+01  0.51100000000E-03 0. -1.
        -11    1    3    3    0    0  0.28005255879E+02  0.18890343204E+02  0.24246861082E+02  0.41581843342E+02  0.51100000000E-03 0.  1.
        -12    1    3    3    0    0  0.17340933049E+01  0.52625297359E+00 -0.73389536139E+00  0.19551532380E+01  0.00000000000E+00 0.  1.
</event>
<event>
 7    1  0.1541902E-008  0.4614232E+02  0.7816164E-02  0.1320468E+00
        -11   -1    0    0    0    0  0.00000000000E+00  0.00000000000E+00  0.45593999997E+02  0.45594000000E+02  0.51100000000E-03 0.  1.
         11   -1    0    0    0    0 -0.00000000000E+00 -0.00000000000E+00 -0.45593999997E+02  0.45594000000E+02  0.51100000000E-03 0. -1.
    9900012    2    1    2    0    0  0.26475064078E+02  0.28153137491E+02  0.23142715983E+02  0.46142317947E+02  0.10000001698E+02 0.  0.
         12    1    1    2    0    0 -0.26475064078E+02 -0.28153137491E+02 -0.23142715983E+02  0.45045682053E+02  0.00000000000E+00 0. -1.
         11    1    3    3    0    0  0.68857058609E+01  0.59719574739E+01  0.23122299868E+01  0.94033839147E+01  0.51100000000E-03 0. -1.
        -11    1    3    3    0    0  0.11314686916E+02  0.11146628846E+02  0.75276359767E+01  0.17576540567E+02  0.51100000000E-03 0.  1.
         12    1    3    3    0    0  0.82746713004E+01  0.11034551171E+02  0.13302850020E+02  0.19162393465E+02  0.00000000000E+00 0. -1.
</event>
<event>
 7    1  0.1541902E-008  0.4614232E+02  0.7816164E-02  0.1320468E+00
        -11   -1    0    0    0    0  0.00000000000E+00  0.00000000000E+00  0.45593999997E+02  0.45594000000E+02  0.51100000000E-03 0.  1.
         11   -1    0    0    0    0 -0.00000000000E+00 -0.00000000000E+00 -0.45593999997E+02  0.45594000000E+02  0.51100000000E-03 0. -1.
    9900012    2    1    2    0    0 -0.38763755768E+01  0.44461599723E+02  0.61035234399E+01  0.46142321673E+02  0.10000035675E+02 0.  0.
         12    1    1    2    0    0  0.38763755768E+01 -0.44461599723E+02 -0.61035234399E+01  0.45045678327E+02  0.00000000000E+00 0. -1.
         11    1    3    3    0    0 -0.39211157268E+00  0.72542514490E+00 -0.99818966688E+00  0.12947493960E+01  0.51100000000E-03 0. -1.
        -11    1    3    3    0    0 -0.35888640311E+01  0.32213562564E+02  0.27468858398E+01  0.32529047637E+02  0.51100000000E-03 0.  1.
        -12    1    3    3    0    0  0.10460002699E+00  0.11522612013E+02  0.43548272670E+01  0.12318524640E+02  0.00000000000E+00 0.  1.
</event>
<event>
 7    1  0.1541902E-008  0.4614232E+02  0.7816164E-02  0.1320468E+00
        -11   -1    0    0    0    0  0.00000000000E+00  0.00000000000E+00  0.45593999997E+02  0.45594000000E+02  0.51100000000E-03 0.  1.
         11   -1    0    0    0    0 -0.00000000000E+00 -0.00000000000E+00 -0.45593999997E+02  0.45594000000E+02  0.51100000000E-03 0. -1.
    9900012    2    1    2    0    0  0.30057714297E+02  0.17559013856E+02  0.28588955338E+02  0.46142317369E+02  0.99999964247E+01 0.  0.
         12    1    1    2    0    0 -0.30057714297E+02 -0.17559013856E+02 -0.28588955338E+02  0.45045682631E+02  0.00000000000E+00 0. -1.
         11    1    3    3    0    0  0.84529641465E+01  0.86869131975E+01  0.11694809228E+02  0.16842910286E+02  0.51100000000E-03 0. -1.
        -11    1    3    3    0    0  0.62420603601E+01  0.50798857707E+01  0.46779376867E+01  0.93086872461E+01  0.51100000000E-03 0.  1.
         12    1    3    3    0    0  0.15362689790E+02  0.37922148879E+01  0.12216208423E+02  0.19990719837E+02  0.00000000000E+00 0. -1.
</event>
<event>
 7    1  0.1541902E-008  0.4614232E+02  0.7816164E-02  0.1320468E+00
        -11   -1    0    0    0    0  0.00000000000E+00  0.00000000000E+00  0.45593999997E+02  0.45594000000E+02  0.51100000000E-03 0.  1.
         11   -1    0    0    0    0 -0.00000000000E+00 -0.00000000000E+00 -0.45593999997E+02  0.45594000000E+02  0.51100000000E-03 0. -1.
    9900012    2    1    2    0    0  0.41086622521E+02 -0.13082916701E+02  0.13032274032E+02  0.46142318453E+02  0.10000006311E+02 0.  0.
         12    1    1    2    0    0 -0.41086622521E+02  0.13082916701E+02 -0.13032274032E+02  0.45045681547E+02  0.00000000000E+00 0. -1.
         11    1    3    3    0    0 -0.53911790341E+00 -0.37638606697E+00  0.12797583756E+00  0.66984525176E+00  0.51100000000E-03 0. -1.
        -11    1    3    3    0    0  0.30699051409E+02 -0.99620053855E+01  0.10618382044E+02  0.33976806003E+02  0.51100000000E-03 0.  1.
         12    1    3    3    0    0  0.10926689016E+02 -0.27445252484E+01  0.22859161507E+01  0.11495667198E+02  0.00000000000E+00 0. -1.
</event>
<event>
 7    1  0.1541902E-008  0.4614232E+02  0.7816164E-02  0.1320468E+00
        -11   -1    0    0    0    0  0.00000000000E+00  0.00000000000E+00  0.45593999997E+02  0.45594000000E+02  0.51100000000E-03 0.  1.
         11   -1    0    0    0    0 -0.00000000000E+00 -0.00000000000E+00 -0.45593999997E+02  0.45594000000E+02  0.51100000000E-03 0. -1.
    9900012    2    1    2    0    0  0.17818151737E+02  0.41342833179E+02 -0.15482483768E+01  0.46142318080E+02  0.10000002907E+02 0.  0.
         12    1    1    2    0    0 -0.17818151737E+02 -0.41342833179E+02  0.15482483768E+01  0.45045681920E+02  0.00000000000E+00 0. -1.
         11    1    3    3    0    0  0.13702305860E+02  0.27255383268E+02 -0.43652636153E+01  0.30816629110E+02  0.51100000000E-03 0. -1.
        -11    1    3    3    0    0  0.34655215395E+01  0.12874766449E+02  0.14934370834E+01  0.13416400607E+02  0.51100000000E-03 0.  1.
         12    1    3    3    0    0  0.65032433747E+00  0.12126834620E+01  0.13235781551E+01  0.19092883637E+01  0.00000000000E+00 0. -1.
</event>
<event>
 7    1  0.1541902E-008  0.4614232E+02  0.7816164E-02  0.1320468E+00
        -11   -1    0    0    0    0  0.00000000000E+00  0.00000000000E+00  0.45593999997E+02  0.45594000000E+02  0.51100000000E-03 0. -1.
         11   -1    0    0    0    0 -0.00000000000E+00 -0.00000000000E+00 -0.45593999997E+02  0.45594000000E+02  0.51100000000E-03 0.  1.
    9900012    2    1    2    0    0  0.17672213965E+02 -0.28297501104E+02 -0.30266445037E+02  0.46142318627E+02  0.10000007896E+02 0.  0.
         12    1    1    2    0    0 -0.17672213965E+02  0.28297501104E+02  0.30266445037E+02  0.45045681373E+02  0.00000000000E+00 0. -1.
         11    1    3    3    0    0  0.75915632255E+01 -0.14394269744E+02 -0.16145212018E+02  0.22923671281E+02  0.51100000000E-03 0.  1.
        -11    1    3    3    0    0  0.32017468041E+01 -0.87169602300E+01 -0.45493486226E+01  0.10340848679E+02  0.51100000000E-03 0. -1.
         12    1    3    3    0    0  0.68789039354E+01 -0.51862711304E+01 -0.95718843971E+01  0.12877798667E+02  0.00000000000E+00 0. -1.
</event>
<event>
 7    1  0.1541902E-008  0.4614232E+02  0.7816164E-02  0.1320468E+00
        -11   -1    0    0    0    0  0.00000000000E+00  0.00000000000E+00  0.45593999997E+02  0.45594000000E+02  0.51100000000E-03 0.  1.
         11   -1    0    0    0    0 -0.00000000000E+00 -0.00000000000E+00 -0.45593999997E+02  0.45594000000E+02  0.51100000000E-03 0. -1.
    9900012    2    1    2    0    0  0.20918071384E+02 -0.27304956082E+02  0.29085857382E+02  0.46142318335E+02  0.10000005229E+02 0.  0.
         12    1    1    2    0    0 -0.20918071384E+02  0.27304956082E+02 -0.29085857382E+02  0.45045681665E+02  0.00000000000E+00 0. -1.
         11    1    3    3    0    0  0.67663395759E+01 -0.12053385259E+02  0.10666187500E+02  0.17459524722E+02  0.51100000000E-03 0. -1.
        -11    1    3    3    0    0  0.10986191899E+02 -0.11839125902E+02  0.17719416670E+02  0.23975801174E+02  0.51100000000E-03 0.  1.
         12    1    3    3    0    0  0.31655399090E+01 -0.34124449215E+01  0.70025321146E+00  0.47069924386E+01  0.00000000000E+00 0. -1.
</event>
<event>
 7    1  0.1541902E-008  0.4614232E+02  0.7816164E-02  0.1320468E+00
        -11   -1    0    0    0    0  0.00000000000E+00  0.00000000000E+00  0.45593999997E+02  0.45594000000E+02  0.51100000000E-03 0.  1.
         11   -1    0    0    0    0 -0.00000000000E+00 -0.00000000000E+00 -0.45593999997E+02  0.45594000000E+02  0.51100000000E-03 0. -1.
    9900012    2    1    2    0    0  0.26313149445E+02 -0.11091409068E+02  0.34838375500E+02  0.46142316563E+02  0.99999890732E+01 0.  0.
         12    1    1    2    0    0 -0.26313149445E+02  0.11091409068E+02 -0.34838375500E+02  0.45045683437E+02  0.00000000000E+00 0. -1.
         11    1    3    3    0    0  0.34759298597E+01 -0.32019717774E+00  0.67004596751E+00  0.35543742743E+01  0.51100000000E-03 0. -1.
        -11    1    3    3    0    0  0.10533827450E+02 -0.58894489897E+01  0.18338350914E+02  0.21953183019E+02  0.51100000000E-03 0.  1.
        -12    1    3    3    0    0  0.12303392135E+02 -0.48817629005E+01  0.15829978619E+02  0.20634759270E+02  0.00000000000E+00 0.  1.
</event>
<event>
 7    1  0.1541902E-008  0.4614232E+02  0.7816164E-02  0.1320468E+00
        -11   -1    0    0    0    0  0.00000000000E+00  0.00000000000E+00  0.45593999997E+02  0.45594000000E+02  0.51100000000E-03 0.  1.
         11   -1    0    0    0    0 -0.00000000000E+00 -0.00000000000E+00 -0.45593999997E+02  0.45594000000E+02  0.51100000000E-03 0. -1.
    9900012    2    1    2    0    0 -0.15709325356E+02 -0.19486438120E+02  0.37451425623E+02  0.46142318132E+02  0.10000003382E+02 0.  0.
         12    1    1    2    0    0  0.15709325356E+02  0.19486438120E+02 -0.37451425623E+02  0.45045681868E+02  0.00000000000E+00 0. -1.
         11    1    3    3    0    0 -0.35755325938E+00 -0.67214695443E+01  0.10494122327E+02  0.12467261161E+02  0.51100000000E-03 0. -1.
        -11    1    3    3    0    0 -0.14903085147E+02 -0.11788244702E+02  0.24599043601E+02  0.31083397601E+02  0.51100000000E-03 0.  1.
        -12    1    3    3    0    0 -0.44868694934E+00 -0.97672387318E+00  0.23582596953E+01  0.25916593706E+01  0.00000000000E+00 0.  1.
</event>
<event>
 7    1  0.1541902E-008  0.4614232E+02  0.7816164E-02  0.1320468E+00
        -11   -1    0    0    0    0  0.00000000000E+00  0.00000000000E+00  0.45593999997E+02  0.45594000000E+02  0.51100000000E-03 0. -1.
         11   -1    0    0    0    0 -0.00000000000E+00 -0.00000000000E+00 -0.45593999997E+02  0.45594000000E+02  0.51100000000E-03 0.  1.
    9900012    2    1    2    0    0  0.46714171756E+01 -0.44707391757E+02  0.29224107757E+01  0.46142317622E+02  0.99999987330E+01 0.  0.
         12    1    1    2    0    0 -0.46714171756E+01  0.44707391757E+02 -0.29224107757E+01  0.45045682378E+02  0.00000000000E+00 0. -1.
         11    1    3    3    0    0  0.32729790874E+01 -0.15183820996E+02  0.29857217664E+01  0.15816932284E+02  0.51100000000E-03 0. -1.
        -11    1    3    3    0    0 -0.48502268822E+00 -0.27373856904E+02  0.62613438347E+00  0.27385312366E+02  0.51100000000E-03 0.  1.
        -12    1    3    3    0    0  0.18834607764E+01 -0.21497138569E+01 -0.68944537417E+00  0.29400729730E+01  0.00000000000E+00 0.  1.
</event>
<event>
 7    1  0.1541902E-008  0.4614232E+02  0.7816164E-02  0.1320468E+00
        -11   -1    0    0    0    0  0.00000000000E+00  0.00000000000E+00  0.45593999997E+02  0.45594000000E+02  0.51100000000E-03 0. -1.
         11   -1    0    0    0    0 -0.00000000000E+00 -0.00000000000E+00 -0.45593999997E+02  0.45594000000E+02  0.51100000000E-03 0.  1.
    9900012    2    1    2    0    0 -0.33074577641E+02  0.92414249206E+01 -0.29151020530E+02  0.46142316316E+02  0.99999868190E+01 0.  0.
         12    1    1    2    0    0  0.33074577641E+02 -0.92414249206E+01  0.29151020530E+02  0.45045683684E+02  0.00000000000E+00 0. -1.
         11    1    3    3    0    0 -0.81846954297E+01  0.47356291137E+01 -0.81130823505E+01  0.12459435295E+02  0.51100000000E-03 0. -1.
        -11    1    3    3    0    0 -0.23086338461E+02  0.39348713389E+01 -0.21437416735E+02  0.31749410586E+02  0.51100000000E-03 0.  1.
        -12    1    3    3    0    0 -0.18035437500E+01  0.57092446798E+00  0.39947855632E+00  0.19334704351E+01  0.00000000000E+00 0.  1.
</event>
<event>
 7    1  0.1541902E-008  0.4614232E+02  0.7816164E-02  0.1320468E+00
        -11   -1    0    0    0    0  0.00000000000E+00  0.00000000000E+00  0.45593999997E+02  0.45594000000E+02  0.51100000000E-03 0.  1.
         11   -1    0    0    0    0 -0.00000000000E+00 -0.00000000000E+00 -0.45593999997E+02  0.45594000000E+02  0.51100000000E-03 0. -1.
    9900012    2    1    2    0    0  0.67420240252E+01 -0.28920090223E+02  0.33871626641E+02  0.46142316546E+02  0.99999889221E+01 0.  0.
         12    1    1    2    0    0 -0.67420240252E+01  0.28920090223E+02 -0.33871626641E+02  0.45045683454E+02  0.00000000000E+00 0. -1.
         11    1    3    3    0    0 -0.60331214934E+00  0.14980719946E+00  0.47762620381E+00  0.78393545540E+00  0.51100000000E-03 0. -1.
        -11    1    3    3    0    0  0.74924936248E+01 -0.16542533688E+02  0.19275946708E+02  0.26483107886E+02  0.51100000000E-03 0.  1.
        -12    1    3    3    0    0 -0.14715745029E+00 -0.12527363734E+02  0.14118053729E+02  0.18875273205E+02  0.00000000000E+00 0.  1.
</event>
<event>
 7    1  0.1541902E-008  0.4614231E+02  0.7816164E-02  0.1320468E+00
        -11   -1    0    0    0    0  0.00000000000E+00  0.00000000000E+00  0.45593999997E+02  0.45594000000E+02  0.51100000000E-03 0. -1.
         11   -1    0    0    0    0 -0.00000000000E+00 -0.00000000000E+00 -0.45593999997E+02  0.45594000000E+02  0.51100000000E-03 0.  1.
    9900012    2    1    2    0    0  0.28340748198E+02 -0.34982974200E+02  0.14518952324E+01  0.46142306620E+02  0.99998984065E+01 0.  0.
         12    1    1    2    0    0 -0.28340748198E+02  0.34982974200E+02 -0.14518952324E+01  0.45045693380E+02  0.00000000000E+00 0. -1.
         11    1    3    3    0    0  0.15490703852E+01 -0.35028865177E+01 -0.10527690778E+01  0.39721727061E+01  0.51100000000E-03 0. -1.
        -11    1    3    3    0    0  0.17419997934E+02 -0.23384156505E+02  0.48658953488E+01  0.29562679873E+02  0.51100000000E-03 0.  1.
        -12    1    3    3    0    0  0.93716798785E+01 -0.80959311781E+01 -0.23612310386E+01  0.12607454041E+02  0.00000000000E+00 0.  1.
</event>
<event>
 7    1  0.1541902E-008  0.4614232E+02  0.7816164E-02  0.1320468E+00
        -11   -1    0    0    0    0  0.00000000000E+00  0.00000000000E+00  0.45593999997E+02  0.45594000000E+02  0.51100000000E-03 0.  1.
         11   -1    0    0    0    0 -0.00000000000E+00 -0.00000000000E+00 -0.45593999997E+02  0.45594000000E+02  0.51100000000E-03 0. -1.
    9900012    2    1    2    0    0  0.40754202567E+02 -0.18968297193E+02  0.29003790523E+01  0.46142317366E+02  0.99999963962E+01 0.  0.
         12    1    1    2    0    0 -0.40754202567E+02  0.18968297193E+02 -0.29003790523E+01  0.45045682634E+02  0.00000000000E+00 0. -1.
         11    1    3    3    0    0  0.38627042796E+01  0.32052913891E+00 -0.86647052209E+00  0.39716488651E+01  0.51100000000E-03 0. -1.
        -11    1    3    3    0    0  0.20082709684E+02 -0.92975937924E+01 -0.58485246005E+00  0.22138259445E+02  0.51100000000E-03 0.  1.
         12    1    3    3    0    0  0.16808788603E+02 -0.99912325397E+01  0.43517020345E+01  0.20032409056E+02  0.00000000000E+00 0. -1.
</event>
<event>
 7    1  0.1541902E-008  0.4614232E+02  0.7816164E-02  0.1320468E+00
        -11   -1    0    0    0    0  0.00000000000E+00  0.00000000000E+00  0.45593999997E+02  0.45594000000E+02  0.51100000000E-03 0.  1.
         11   -1    0    0    0    0 -0.00000000000E+00 -0.00000000000E+00 -0.45593999997E+02  0.45594000000E+02  0.51100000000E-03 0. -1.
    9900012    2    1    2    0    0 -0.15518963055E+02 -0.10185634346E+02  0.41043004320E+02  0.46142316911E+02  0.99999922447E+01 0.  0.
         12    1    1    2    0    0  0.15518963055E+02  0.10185634346E+02 -0.41043004320E+02  0.45045683089E+02  0.00000000000E+00 0. -1.
         11    1    3    3    0    0 -0.14127746850E+01  0.88533275179E+00  0.10861116013E+02  0.10988338714E+02  0.51100000000E-03 0. -1.
        -11    1    3    3    0    0 -0.31719377439E+01 -0.24590523116E+01  0.53595357605E+01  0.66957263349E+01  0.51100000000E-03 0.  1.
         12    1    3    3    0    0 -0.10934250627E+02 -0.86119147865E+01  0.24822352547E+02  0.28458251862E+02  0.00000000000E+00 0. -1.
</event>
<event>
 7    1  0.1541902E-008  0.4614231E+02  0.7816164E-02  0.1320468E+00
        -11   -1    0    0    0    0  0.00000000000E+00  0.00000000000E+00  0.45593999997E+02  0.45594000000E+02  0.51100000000E-03 0.  1.
         11   -1    0    0    0    0 -0.00000000000E+00 -0.00000000000E+00 -0.45593999997E+02  0.45594000000E+02  0.51100000000E-03 0. -1.
    9900012    2    1    2    0    0 -0.41446524104E+02  0.17555223272E+02 -0.17645808762E+01  0.46142312414E+02  0.99999512452E+01 0.  0.
         12    1    1    2    0    0  0.41446524104E+02 -0.17555223272E+02  0.17645808762E+01  0.45045687586E+02  0.00000000000E+00 0. -1.
         11    1    3    3    0    0 -0.13138784823E+02  0.29046023240E+01 -0.34419023538E+01  0.13889243081E+02  0.51100000000E-03 0. -1.
        -11    1    3    3    0    0 -0.24507708344E+02  0.13860458970E+02  0.37186570101E+00  0.28158096091E+02  0.51100000000E-03 0.  1.
        -12    1    3    3    0    0 -0.38000309368E+01  0.79016197756E+00  0.13054557765E+01  0.40949732424E+01  0.00000000000E+00 0.  1.
</event>
<event>
 7    1  0.1541902E-008  0.4614232E+02  0.7816164E-02  0.1320468E+00
        -11   -1    0    0    0    0  0.00000000000E+00  0.00000000000E+00  0.45593999997E+02  0.45594000000E+02  0.51100000000E-03 0.  1.
         11   -1    0    0    0    0 -0.00000000000E+00 -0.00000000000E+00 -0.45593999997E+02  0.45594000000E+02  0.51100000000E-03 0. -1.
    9900012    2    1    2    0    0  0.45382344270E+01 -0.31073549124E+02  0.32294774610E+02  0.46142317699E+02  0.99999994330E+01 0.  0.
         12    1    1    2    0    0 -0.45382344270E+01  0.31073549124E+02 -0.32294774610E+02  0.45045682301E+02  0.00000000000E+00 0. -1.
         11    1    3    3    0    0 -0.18857456753E+01 -0.11728206498E+02  0.11506457845E+02  0.16537999783E+02  0.51100000000E-03 0. -1.
        -11    1    3    3    0    0  0.50387622767E+01 -0.18212562436E+02  0.20332349587E+02  0.27757719570E+02  0.51100000000E-03 0.  1.
         12    1    3    3    0    0  0.13852178256E+01 -0.11327801899E+01  0.45596717766E+00  0.18465983456E+01  0.00000000000E+00 0. -1.
</event>
<event>
 7    1  0.1541902E-008  0.4614232E+02  0.7816164E-02  0.1320468E+00
        -11   -1    0    0    0    0  0.00000000000E+00  0.00000000000E+00  0.45593999997E+02  0.45594000000E+02  0.51100000000E-03 0. -1.
         11   -1    0    0    0    0 -0.00000000000E+00 -0.00000000000E+00 -0.45593999997E+02  0.45594000000E+02  0.51100000000E-03 0.  1.
    9900012    2    1    2    0    0  0.15080414563E+02 -0.83742040345E+01 -0.41612104593E+02  0.46142318240E+02  0.10000004368E+02 0.  0.
         12    1    1    2    0    0 -0.15080414563E+02  0.83742040345E+01  0.41612104593E+02  0.45045681760E+02  0.00000000000E+00 0. -1.
         11    1    3    3    0    0  0.68676843699E+01  0.84287813669E+00 -0.15091314850E+02  0.16601907009E+02  0.51100000000E-03 0. -1.
        -11    1    3    3    0    0  0.29402496689E+01 -0.21145076791E+01 -0.12027985347E+02  0.12561394931E+02  0.51100000000E-03 0.  1.
         12    1    3    3    0    0  0.52724805239E+01 -0.71025744921E+01 -0.14492804395E+02  0.16979016300E+02  0.00000000000E+00 0. -1.
</event>
<event>
 7    1  0.1541902E-008  0.4614232E+02  0.7816164E-02  0.1320468E+00
        -11   -1    0    0    0    0  0.00000000000E+00  0.00000000000E+00  0.45593999997E+02  0.45594000000E+02  0.51100000000E-03 0.  1.
         11   -1    0    0    0    0 -0.00000000000E+00 -0.00000000000E+00 -0.45593999997E+02  0.45594000000E+02  0.51100000000E-03 0. -1.
    9900012    2    1    2    0    0 -0.31624085609E+02 -0.59434611791E+01  0.31523098943E+02  0.46142319981E+02  0.10000020245E+02 0.  0.
         12    1    1    2    0    0  0.31624085609E+02  0.59434611791E+01 -0.31523098943E+02  0.45045680019E+02  0.00000000000E+00 0. -1.
         11    1    3    3    0    0 -0.11547919443E+02 -0.15253044378E+01  0.15100927278E+02  0.19071418458E+02  0.51100000000E-03 0.  1.
        -11    1    3    3    0    0 -0.57755042456E+01 -0.33027961452E+01  0.25766168703E+01  0.71346945573E+01  0.51100000000E-03 0. -1.
         12    1    3    3    0    0 -0.14300661920E+02 -0.11153605961E+01  0.13845554794E+02  0.19936206966E+02  0.00000000000E+00 0. -1.
</event>
<event>
 7    1  0.1541902E-008  0.4614232E+02  0.7816164E-02  0.1320468E+00
        -11   -1    0    0    0    0  0.00000000000E+00  0.00000000000E+00  0.45593999997E+02  0.45594000000E+02  0.51100000000E-03 0.  1.
         11   -1    0    0    0    0 -0.00000000000E+00 -0.00000000000E+00 -0.45593999997E+02  0.45594000000E+02  0.51100000000E-03 0. -1.
    9900012    2    1    2    0    0  0.41842538330E+01  0.17611660461E+02  0.41248449938E+02  0.46142321110E+02  0.10000030540E+02 0.  0.
         12    1    1    2    0    0 -0.41842538330E+01 -0.17611660461E+02 -0.41248449938E+02  0.45045678890E+02  0.00000000000E+00 0. -1.
         11    1    3    3    0    0 -0.16848898171E+01  0.24086210868E+01  0.98200408484E+01  0.10250537145E+02  0.51100000000E-03 0. -1.
        -11    1    3    3    0    0  0.48716528349E+01  0.13513310845E+02  0.22092289903E+02  0.26351695292E+02  0.51100000000E-03 0.  1.
        -12    1    3    3    0    0  0.99749081518E+00  0.16897285296E+01  0.93361191866E+01  0.95400886734E+01  0.00000000000E+00 0.  1.
</event>
<event>
 7    1  0.1541902E-008  0.4614232E+02  0.7816164E-02  0.1320468E+00
        -11   -1    0    0    0    0  0.00000000000E+00  0.00000000000E+00  0.45593999997E+02  0.45594000000E+02  0.51100000000E-03 0. -1.
         11   -1    0    0    0    0 -0.00000000000E+00 -0.00000000000E+00 -0.45593999997E+02  0.45594000000E+02  0.51100000000E-03 0.  1.
    9900012    2    1    2    0    0  0.42176273400E+02  0.14296600345E+02  0.67736795096E+01  0.46142317039E+02  0.99999934121E+01 0.  0.
         12    1    1    2    0    0 -0.42176273400E+02 -0.14296600345E+02 -0.67736795096E+01  0.45045682961E+02  0.00000000000E+00 0. -1.
         11    1    3    3    0    0  0.25073349681E+02  0.80982847063E+01  0.42454028291E+01  0.26688546698E+02  0.51100000000E-03 0. -1.
        -11    1    3    3    0    0  0.10367084675E+02  0.49798367919E+01 -0.13602103072E+01  0.11581251723E+02  0.51100000000E-03 0.  1.
        -12    1    3    3    0    0  0.67358390443E+01  0.12184788466E+01  0.38884869877E+01  0.78725186176E+01  0.00000000000E+00 0.  1.
</event>
<event>
 7    1  0.1541902E-008  0.4614232E+02  0.7816164E-02  0.1320468E+00
        -11   -1    0    0    0    0  0.00000000000E+00  0.00000000000E+00  0.45593999997E+02  0.45594000000E+02  0.51100000000E-03 0. -1.
         11   -1    0    0    0    0 -0.00000000000E+00 -0.00000000000E+00 -0.45593999997E+02  0.45594000000E+02  0.51100000000E-03 0.  1.
    9900012    2    1    2    0    0  0.60438732655E+01 -0.21081359080E+02 -0.39346682549E+02  0.46142317273E+02  0.99999955526E+01 0.  0.
         12    1    1    2    0    0 -0.60438732655E+01  0.21081359080E+02  0.39346682549E+02  0.45045682727E+02  0.00000000000E+00 0. -1.
         11    1    3    3    0    0  0.43018161908E+01 -0.15923175026E+02 -0.24578468626E+02  0.29599902799E+02  0.51100000000E-03 0. -1.
        -11    1    3    3    0    0 -0.15037947057E+01 -0.32460095576E+01 -0.57922706131E+01  0.68079641363E+01  0.51100000000E-03 0.  1.
         12    1    3    3    0    0  0.32458517804E+01 -0.19121744962E+01 -0.89759433095E+01  0.97344503378E+01  0.00000000000E+00 0. -1.
</event>
<event>
 7    1  0.1541902E-008  0.4614232E+02  0.7816164E-02  0.1320468E+00
        -11   -1    0    0    0    0  0.00000000000E+00  0.00000000000E+00  0.45593999997E+02  0.45594000000E+02  0.51100000000E-03 0.  1.
         11   -1    0    0    0    0 -0.00000000000E+00 -0.00000000000E+00 -0.45593999997E+02  0.45594000000E+02  0.51100000000E-03 0. -1.
    9900012    2    1    2    0    0  0.34104082147E+02 -0.78651875912E+00  0.29417794514E+02  0.46142315801E+02  0.99999821296E+01 0.  0.
         12    1    1    2    0    0 -0.34104082147E+02  0.78651875912E+00 -0.29417794514E+02  0.45045684199E+02  0.00000000000E+00 0. -1.
         11    1    3    3    0    0  0.19214127279E+01 -0.13704453008E+01  0.31828831182E+01  0.39624099231E+01  0.51100000000E-03 0. -1.
        -11    1    3    3    0    0  0.68537754034E+01  0.59690474432E+00  0.98452797992E+01  0.12010831243E+02  0.51100000000E-03 0.  1.
         12    1    3    3    0    0  0.25328894016E+02 -0.12978202599E-01  0.16389631597E+02  0.30169074636E+02  0.00000000000E+00 0. -1.
</event>
<event>
 7    1  0.1541902E-008  0.4614232E+02  0.7816164E-02  0.1320468E+00
        -11   -1    0    0    0    0  0.00000000000E+00  0.00000000000E+00  0.45593999997E+02  0.45594000000E+02  0.51100000000E-03 0.  1.
         11   -1    0    0    0    0 -0.00000000000E+00 -0.00000000000E+00 -0.45593999997E+02  0.45594000000E+02  0.51100000000E-03 0. -1.
    9900012    2    1    2    0    0  0.22688318646E+02  0.30947414624E+02  0.23592609255E+02  0.46142317783E+02  0.10000000203E+02 0.  0.
         12    1    1    2    0    0 -0.22688318646E+02 -0.30947414624E+02 -0.23592609255E+02  0.45045682217E+02  0.00000000000E+00 0. -1.
         11    1    3    3    0    0  0.15650486475E+01  0.33984923606E+01  0.53481071161E+01  0.65269730796E+01  0.51100000000E-03 0. -1.
        -11    1    3    3    0    0  0.14612756905E+02  0.19609366083E+02  0.15618762376E+02  0.29017333457E+02  0.51100000000E-03 0.  1.
        -12    1    3    3    0    0  0.65105130937E+01  0.79395561807E+01  0.26257397630E+01  0.10598011247E+02  0.00000000000E+00 0.  1.
</event>
<event>
 7    1  0.1541902E-008  0.4614232E+02  0.7816164E-02  0.1320468E+00
        -11   -1    0    0    0    0  0.00000000000E+00  0.00000000000E+00  0.45593999997E+02  0.45594000000E+02  0.51100000000E-03 0. -1.
         11   -1    0    0    0    0 -0.00000000000E+00 -0.00000000000E+00 -0.45593999997E+02  0.45594000000E+02  0.51100000000E-03 0.  1.
    9900012    2    1    2    0    0 -0.39909634020E+02 -0.11848764861E+01 -0.20854992173E+02  0.46142317427E+02  0.99999969558E+01 0.  0.
         12    1    1    2    0    0  0.39909634020E+02  0.11848764861E+01  0.20854992173E+02  0.45045682573E+02  0.00000000000E+00 0. -1.
         11    1    3    3    0    0 -0.19367960710E+02 -0.39830342065E+01 -0.13280553108E+02  0.23819226576E+02  0.51100000000E-03 0. -1.
        -11    1    3    3    0    0 -0.15683133750E+02  0.34584408360E+01 -0.63465972169E+01  0.17268491357E+02  0.51100000000E-03 0.  1.
         12    1    3    3    0    0 -0.48585395597E+01 -0.66028311560E+00 -0.12278418478E+01  0.50545994945E+01  0.00000000000E+00 0. -1.
</event>
<event>
 7    1  0.1541902E-008  0.4614232E+02  0.7816164E-02  0.1320468E+00
        -11   -1    0    0    0    0  0.00000000000E+00  0.00000000000E+00  0.45593999997E+02  0.45594000000E+02  0.51100000000E-03 0.  1.
         11   -1    0    0    0    0 -0.00000000000E+00 -0.00000000000E+00 -0.45593999997E+02  0.45594000000E+02  0.51100000000E-03 0. -1.
    9900012    2    1    2    0    0 -0.25774327578E+01 -0.12278582793E+02  0.43263225559E+02  0.46142318289E+02  0.10000004815E+02 0.  0.
         12    1    1    2    0    0  0.25774327578E+01  0.12278582793E+02 -0.43263225559E+02  0.45045681711E+02  0.00000000000E+00 0. -1.
         11    1    3    3    0    0  0.14186760963E-03 -0.46994767378E+01  0.77152605958E+01  0.90338434762E+01  0.51100000000E-03 0. -1.
        -11    1    3    3    0    0 -0.22381106104E+01 -0.53797811473E+01  0.10894791657E+02  0.12355066564E+02  0.51100000000E-03 0.  1.
        -12    1    3    3    0    0 -0.33946401503E+00 -0.21993249084E+01  0.24653173306E+02  0.24753408249E+02  0.00000000000E+00 0.  1.
</event>
<event>
 7    1  0.1541902E-008  0.4614232E+02  0.7816164E-02  0.1320468E+00
        -11   -1    0    0    0    0  0.00000000000E+00  0.00000000000E+00  0.45593999997E+02  0.45594000000E+02  0.51100000000E-03 0.  1.
         11   -1    0    0    0    0 -0.00000000000E+00 -0.00000000000E+00 -0.45593999997E+02  0.45594000000E+02  0.51100000000E-03 0. -1.
    9900012    2    1    2    0    0  0.41340351512E+02 -0.15515875933E+02  0.89076627806E+01  0.46142317351E+02  0.99999962577E+01 0.  0.
         12    1    1    2    0    0 -0.41340351512E+02  0.15515875933E+02 -0.89076627806E+01  0.45045682649E+02  0.00000000000E+00 0. -1.
         11    1    3    3    0    0  0.11318924757E+01 -0.22438902266E+00 -0.11733987204E+01  0.16457204587E+01  0.51100000000E-03 0. -1.
        -11    1    3    3    0    0  0.19704859684E+02 -0.46844925970E+01  0.48454265498E+01  0.20825564212E+02  0.51100000000E-03 0.  1.
        -12    1    3    3    0    0  0.20503599353E+02 -0.10606994314E+02  0.52356349512E+01  0.23671032680E+02  0.00000000000E+00 0.  1.
</event>
<event>
 7    1  0.1541902E-008  0.4614232E+02  0.7816164E-02  0.1320468E+00
        -11   -1    0    0    0    0  0.00000000000E+00  0.00000000000E+00  0.45593999997E+02  0.45594000000E+02  0.51100000000E-03 0.  1.
         11   -1    0    0    0    0 -0.00000000000E+00 -0.00000000000E+00 -0.45593999997E+02  0.45594000000E+02  0.51100000000E-03 0. -1.
    9900012    2    1    2    0    0 -0.57462418885E+01 -0.35369686273E+02  0.27296145449E+02  0.46142316974E+02  0.99999928217E+01 0.  0.
         12    1    1    2    0    0  0.57462418885E+01  0.35369686273E+02 -0.27296145449E+02  0.45045683026E+02  0.00000000000E+00 0. -1.
         11    1    3    3    0    0 -0.11672189972E+01 -0.21479139059E+02  0.11572103494E+02  0.24425998331E+02  0.51100000000E-03 0. -1.
        -11    1    3    3    0    0 -0.17846808952E+00 -0.51606147574E+01  0.47079601736E+01  0.69877524849E+01  0.51100000000E-03 0.  1.
         12    1    3    3    0    0 -0.44005548018E+01 -0.87299324564E+01  0.11016081782E+02  0.14728566158E+02  0.00000000000E+00 0. -1.
</event>
<event>
 7    1  0.1541902E-008  0.4614232E+02  0.7816164E-02  0.1320468E+00
        -11   -1    0    0    0    0  0.00000000000E+00  0.00000000000E+00  0.45593999997E+02  0.45594000000E+02  0.51100000000E-03 0.  1.
         11   -1    0    0    0    0 -0.00000000000E+00 -0.00000000000E+00 -0.45593999997E+02  0.45594000000E+02  0.51100000000E-03 0. -1.
    9900012    2    1    2    0    0 -0.36630493604E+02  0.14928271736E+01  0.26174260807E+02  0.46142317372E+02  0.99999964531E+01 0.  0.
         12    1    1    2    0    0  0.36630493604E+02 -0.14928271736E+01 -0.26174260807E+02  0.45045682628E+02  0.00000000000E+00 0. -1.
         11    1    3    3    0    0 -0.86511014607E+01  0.12075705259E+01  0.46604778840E+01  0.99004968273E+01  0.51100000000E-03 0. -1.
        -11    1    3    3    0    0 -0.19884614925E+02  0.27001122594E+01  0.18439184039E+02  0.27252376506E+02  0.51100000000E-03 0.  1.
        -12    1    3    3    0    0 -0.80947772178E+01 -0.24148556118E+01  0.30745988838E+01  0.89894440388E+01  0.00000000000E+00 0.  1.
</event>
<event>
 7    1  0.1541902E-008  0.4614232E+02  0.7816164E-02  0.1320468E+00
        -11   -1    0    0    0    0  0.00000000000E+00  0.00000000000E+00  0.45593999997E+02  0.45594000000E+02  0.51100000000E-03 0.  1.
         11   -1    0    0    0    0 -0.00000000000E+00 -0.00000000000E+00 -0.45593999997E+02  0.45594000000E+02  0.51100000000E-03 0. -1.
    9900012    2    1    2    0    0 -0.27255956756E+02 -0.35844937580E+02 -0.11690763230E+01  0.46142317984E+02  0.10000002032E+02 0.  0.
         12    1    1    2    0    0  0.27255956756E+02  0.35844937580E+02  0.11690763230E+01  0.45045682016E+02  0.00000000000E+00 0. -1.
         11    1    3    3    0    0 -0.34276096036E+01 -0.75431126979E+01 -0.35553868338E+01  0.90159765177E+01  0.51100000000E-03 0. -1.
        -11    1    3    3    0    0 -0.14052431270E+02 -0.15791850191E+02  0.21496779343E+01  0.21247928664E+02  0.51100000000E-03 0.  1.
         12    1    3    3    0    0 -0.97759158831E+01 -0.12509974692E+02  0.23663257652E+00  0.15878412802E+02  0.00000000000E+00 0. -1.
</event>
<event>
 7    1  0.1541902E-008  0.4614232E+02  0.7816164E-02  0.1320468E+00
        -11   -1    0    0    0    0  0.00000000000E+00  0.00000000000E+00  0.45593999997E+02  0.45594000000E+02  0.51100000000E-03 0. -1.
         11   -1    0    0    0    0 -0.00000000000E+00 -0.00000000000E+00 -0.45593999997E+02  0.45594000000E+02  0.51100000000E-03 0.  1.
    9900012    2    1    2    0    0 -0.14334530972E+02  0.12564098989E+02 -0.40813946810E+02  0.46142316347E+02  0.99999871035E+01 0.  0.
         12    1    1    2    0    0  0.14334530972E+02 -0.12564098989E+02  0.40813946810E+02  0.45045683653E+02  0.00000000000E+00 0. -1.
         11    1    3    3    0    0 -0.48589823718E+00  0.81009914600E+00 -0.59510514145E+00  0.11164712776E+01  0.51100000000E-03 0. -1.
        -11    1    3    3    0    0 -0.25624249824E+01  0.54852693144E+01 -0.63207371624E+01  0.87524807785E+01  0.51100000000E-03 0.  1.
        -12    1    3    3    0    0 -0.11286207753E+02  0.62687305286E+01 -0.33898104506E+02  0.36273364291E+02  0.00000000000E+00 0.  1.
</event>
<event>
 7    1  0.1541902E-008  0.4614232E+02  0.7816164E-02  0.1320468E+00
        -11   -1    0    0    0    0  0.00000000000E+00  0.00000000000E+00  0.45593999997E+02  0.45594000000E+02  0.51100000000E-03 0. -1.
         11   -1    0    0    0    0 -0.00000000000E+00 -0.00000000000E+00 -0.45593999997E+02  0.45594000000E+02  0.51100000000E-03 0.  1.
    9900012    2    1    2    0    0  0.16825467319E+02 -0.39658762631E+02 -0.13160533923E+02  0.46142318109E+02  0.10000003172E+02 0.  0.
         12    1    1    2    0    0 -0.16825467319E+02  0.39658762631E+02  0.13160533923E+02  0.45045681891E+02  0.00000000000E+00 0. -1.
         11    1    3    3    0    0  0.15857275079E+02 -0.29255198176E+02 -0.12600390658E+02  0.35582153367E+02  0.51100000000E-03 0.  1.
        -11    1    3    3    0    0  0.11660469933E+01 -0.90509638233E+01 -0.12860534718E+00  0.91266725216E+01  0.51100000000E-03 0. -1.
        -12    1    3    3    0    0 -0.19785475328E+00 -0.13526006310E+01 -0.43153791749E+00  0.14334922199E+01  0.00000000000E+00 0.  1.
</event>
<event>
 7    1  0.1541902E-008  0.4614232E+02  0.7816164E-02  0.1320468E+00
        -11   -1    0    0    0    0  0.00000000000E+00  0.00000000000E+00  0.45593999997E+02  0.45594000000E+02  0.51100000000E-03 0.  1.
         11   -1    0    0    0    0 -0.00000000000E+00 -0.00000000000E+00 -0.45593999997E+02  0.45594000000E+02  0.51100000000E-03 0. -1.
    9900012    2    1    2    0    0  0.24906350294E+02  0.20187172104E+02  0.31642778912E+02  0.46142315858E+02  0.99999826485E+01 0.  0.
         12    1    1    2    0    0 -0.24906350294E+02 -0.20187172104E+02 -0.31642778912E+02  0.45045684142E+02  0.00000000000E+00 0. -1.
         11    1    3    3    0    0  0.11188378105E+02  0.81258004411E+01  0.12084405268E+02  0.18364130482E+02  0.51100000000E-03 0. -1.
        -11    1    3    3    0    0  0.90415548745E+00  0.47766131372E+01  0.35650937202E+01  0.60285507133E+01  0.51100000000E-03 0.  1.
        -12    1    3    3    0    0  0.12813816701E+02  0.72847585257E+01  0.15993279924E+02  0.21749634663E+02  0.00000000000E+00 0.  1.
</event>
<event>
 7    1  0.1541902E-008  0.4614232E+02  0.7816164E-02  0.1320468E+00
        -11   -1    0    0    0    0  0.00000000000E+00  0.00000000000E+00  0.45593999997E+02  0.45594000000E+02  0.51100000000E-03 0.  1.
         11   -1    0    0    0    0 -0.00000000000E+00 -0.00000000000E+00 -0.45593999997E+02  0.45594000000E+02  0.51100000000E-03 0. -1.
    9900012    2    1    2    0    0 -0.19453841060E+01  0.41655191058E+01  0.44810456657E+02  0.46142322133E+02  0.10000039864E+02 0.  0.
         12    1    1    2    0    0  0.19453841060E+01 -0.41655191058E+01 -0.44810456657E+02  0.45045677867E+02  0.00000000000E+00 0. -1.
         11    1    3    3    0    0  0.37234508832E+00 -0.58209915285E+00  0.19464415627E+01  0.20654576507E+01  0.51100000000E-03 0. -1.
        -11    1    3    3    0    0 -0.38462774399E+01  0.35309390648E+01  0.41143909638E+02  0.41473879507E+02  0.51100000000E-03 0.  1.
        -12    1    3    3    0    0  0.15285482457E+01  0.12166791938E+01  0.17201054562E+01  0.26029849751E+01  0.00000000000E+00 0.  1.
</event>
<event>
 7    1  0.1541902E-008  0.4614233E+02  0.7816164E-02  0.1320468E+00
        -11   -1    0    0    0    0  0.00000000000E+00  0.00000000000E+00  0.45593999997E+02  0.45594000000E+02  0.51100000000E-03 0. -1.
         11   -1    0    0    0    0 -0.00000000000E+00 -0.00000000000E+00 -0.45593999997E+02  0.45594000000E+02  0.51100000000E-03 0.  1.
    9900012    2    1    2    0    0 -0.21193026372E+01 -0.38780451748E+02 -0.22818789362E+02  0.46142333955E+02  0.10000147672E+02 0.  0.
         12    1    1    2    0    0  0.21193026372E+01  0.38780451748E+02  0.22818789362E+02  0.45045666045E+02  0.00000000000E+00 0. -1.
         11    1    3    3    0    0 -0.10654728275E+01 -0.15453903490E+01 -0.22652195693E+01  0.29418843681E+01  0.51100000000E-03 0. -1.
        -11    1    3    3    0    0  0.11086629922E+01 -0.18311242938E+01  0.12269554303E+00  0.21441092012E+01  0.51100000000E-03 0.  1.
        -12    1    3    3    0    0 -0.21624928019E+01 -0.35403937105E+02 -0.20676265335E+02  0.41056340386E+02  0.00000000000E+00 0.  1.
</event>
<event>
 7    1  0.1541902E-008  0.4614232E+02  0.7816164E-02  0.1320468E+00
        -11   -1    0    0    0    0  0.00000000000E+00  0.00000000000E+00  0.45593999997E+02  0.45594000000E+02  0.51100000000E-03 0.  1.
         11   -1    0    0    0    0 -0.00000000000E+00 -0.00000000000E+00 -0.45593999997E+02  0.45594000000E+02  0.51100000000E-03 0. -1.
    9900012    2    1    2    0    0 -0.29254189553E+01  0.43888738279E+01  0.44735815649E+02  0.46142317728E+02  0.99999997015E+01 0.  0.
         12    1    1    2    0    0  0.29254189553E+01 -0.43888738279E+01 -0.44735815649E+02  0.45045682272E+02  0.00000000000E+00 0. -1.
         11    1    3    3    0    0 -0.30396577913E+01 -0.21620393910E+01  0.24788191546E+02  0.25067276960E+02  0.51100000000E-03 0. -1.
        -11    1    3    3    0    0  0.91666170679E+00  0.45027293318E+01  0.13893090174E+02  0.14633276972E+02  0.51100000000E-03 0.  1.
         12    1    3    3    0    0 -0.80242287078E+00  0.20481838871E+01  0.60545339297E+01  0.64417637961E+01  0.00000000000E+00 0. -1.
</event>
<event>
 7    1  0.1541902E-008  0.4614232E+02  0.7816164E-02  0.1320468E+00
        -11   -1    0    0    0    0  0.00000000000E+00  0.00000000000E+00  0.45593999997E+02  0.45594000000E+02  0.51100000000E-03 0.  1.
         11   -1    0    0    0    0 -0.00000000000E+00 -0.00000000000E+00 -0.45593999997E+02  0.45594000000E+02  0.51100000000E-03 0. -1.
    9900012    2    1    2    0    0 -0.43252995933E+02  0.11379529433E+02  0.53663886243E+01  0.46142317919E+02  0.10000001442E+02 0.  0.
         12    1    1    2    0    0  0.43252995933E+02 -0.11379529433E+02 -0.53663886243E+01  0.45045682081E+02  0.00000000000E+00 0. -1.
         11    1    3    3    0    0 -0.28806300092E+02  0.10912693047E+02  0.77710536940E+00  0.30813855447E+02  0.51100000000E-03 0. -1.
        -11    1    3    3    0    0 -0.53826267031E+01 -0.39672577754E+00  0.75833630858E+00  0.54502418098E+01  0.51100000000E-03 0.  1.
         12    1    3    3    0    0 -0.90640691376E+01  0.86356216334E+00  0.38309469463E+01  0.98782206620E+01  0.00000000000E+00 0. -1.
</event>
<event>
 7    1  0.1541902E-008  0.4614232E+02  0.7816164E-02  0.1320468E+00
        -11   -1    0    0    0    0  0.00000000000E+00  0.00000000000E+00  0.45593999997E+02  0.45594000000E+02  0.51100000000E-03 0.  1.
         11   -1    0    0    0    0 -0.00000000000E+00 -0.00000000000E+00 -0.45593999997E+02  0.45594000000E+02  0.51100000000E-03 0. -1.
    9900012    2    1    2    0    0  0.36554420546E+02  0.26322161810E+02  0.17742931669E+00  0.46142319353E+02  0.10000014512E+02 0.  0.
         12    1    1    2    0    0 -0.36554420546E+02 -0.26322161810E+02 -0.17742931669E+00  0.45045680647E+02  0.00000000000E+00 0. -1.
         11    1    3    3    0    0 -0.46620966420E-01  0.11071821517E+00  0.23531151546E+00  0.26420410313E+00  0.51100000000E-03 0. -1.
        -11    1    3    3    0    0  0.20286358108E+02  0.10692212324E+02 -0.31603564141E+01  0.23148381857E+02  0.51100000000E-03 0.  1.
        -12    1    3    3    0    0  0.16314683405E+02  0.15519231271E+02  0.31024742153E+01  0.22729733393E+02  0.00000000000E+00 0.  1.
</event>
<event>
 7    1  0.1541902E-008  0.4614232E+02  0.7816164E-02  0.1320468E+00
        -11   -1    0    0    0    0  0.00000000000E+00  0.00000000000E+00  0.45593999997E+02  0.45594000000E+02  0.51100000000E-03 0.  1.
         11   -1    0    0    0    0 -0.00000000000E+00 -0.00000000000E+00 -0.45593999997E+02  0.45594000000E+02  0.51100000000E-03 0. -1.
    9900012    2    1    2    0    0  0.20729043527E+02  0.15199814425E+02  0.36991700780E+02  0.46142317292E+02  0.99999957188E+01 0.  0.
         12    1    1    2    0    0 -0.20729043527E+02 -0.15199814425E+02 -0.36991700780E+02  0.45045682708E+02  0.00000000000E+00 0. -1.
         11    1    3    3    0    0  0.14335202063E+02  0.12581726722E+02  0.23748722215E+02  0.30459804211E+02  0.51100000000E-03 0. -1.
        -11    1    3    3    0    0  0.54242589151E+01 -0.10584146243E+00  0.96513534800E+01  0.11071694154E+02  0.51100000000E-03 0.  1.
        -12    1    3    3    0    0  0.96958254863E+00  0.27239291652E+01  0.35916250849E+01  0.46108189258E+01  0.00000000000E+00 0.  1.
</event>
<event>
 7    1  0.1541902E-008  0.4614232E+02  0.7816164E-02  0.1320468E+00
        -11   -1    0    0    0    0  0.00000000000E+00  0.00000000000E+00  0.45593999997E+02  0.45594000000E+02  0.51100000000E-03 0.  1.
         11   -1    0    0    0    0 -0.00000000000E+00 -0.00000000000E+00 -0.45593999997E+02  0.45594000000E+02  0.51100000000E-03 0. -1.
    9900012    2    1    2    0    0  0.17042466511E+01 -0.28498092906E+02  0.34843473998E+02  0.46142318340E+02  0.10000005282E+02 0.  0.
         12    1    1    2    0    0 -0.17042466511E+01  0.28498092906E+02 -0.34843473998E+02  0.45045681660E+02  0.00000000000E+00 0. -1.
         11    1    3    3    0    0  0.57750367930E+00  0.98646407947E-01  0.22945466219E+01  0.23681609056E+01  0.51100000000E-03 0. -1.
        -11    1    3    3    0    0  0.24163292084E+00 -0.59489592163E+01  0.10959106469E+02  0.12471989300E+02  0.51100000000E-03 0.  1.
         12    1    3    3    0    0  0.88511005092E+00 -0.22647780098E+02  0.21589820906E+02  0.31302168135E+02  0.00000000000E+00 0. -1.
</event>
<event>
 7    1  0.1541902E-008  0.4614232E+02  0.7816164E-02  0.1320468E+00
        -11   -1    0    0    0    0  0.00000000000E+00  0.00000000000E+00  0.45593999997E+02  0.45594000000E+02  0.51100000000E-03 0. -1.
         11   -1    0    0    0    0 -0.00000000000E+00 -0.00000000000E+00 -0.45593999997E+02  0.45594000000E+02  0.51100000000E-03 0.  1.
    9900012    2    1    2    0    0  0.74681658762E+01  0.12547486535E+02 -0.42613386427E+02  0.46142316271E+02  0.99999864092E+01 0.  0.
         12    1    1    2    0    0 -0.74681658762E+01 -0.12547486535E+02  0.42613386427E+02  0.45045683729E+02  0.00000000000E+00 0. -1.
         11    1    3    3    0    0  0.27962772626E+01  0.69776568613E+00 -0.32798146475E+01  0.43661456532E+01  0.51100000000E-03 0. -1.
        -11    1    3    3    0    0  0.35685510230E+01  0.37710568606E+01 -0.92524305778E+01  0.10609566349E+02  0.51100000000E-03 0.  1.
         12    1    3    3    0    0  0.11033375906E+01  0.80786639881E+01 -0.30081141201E+02  0.31166604269E+02  0.00000000000E+00 0. -1.
</event>
<event>
 7    1  0.1541902E-008  0.4614232E+02  0.7816164E-02  0.1320468E+00
        -11   -1    0    0    0    0  0.00000000000E+00  0.00000000000E+00  0.45593999997E+02  0.45594000000E+02  0.51100000000E-03 0. -1.
         11   -1    0    0    0    0 -0.00000000000E+00 -0.00000000000E+00 -0.45593999997E+02  0.45594000000E+02  0.51100000000E-03 0.  1.
    9900012    2    1    2    0    0 -0.25605454678E+02  0.34566988524E+02  0.13364026045E+02  0.46142320995E+02  0.10000029491E+02 0.  0.
         12    1    1    2    0    0  0.25605454678E+02 -0.34566988524E+02 -0.13364026045E+02  0.45045679005E+02  0.00000000000E+00 0. -1.
         11    1    3    3    0    0 -0.31324073510E+01  0.22539175293E+01  0.32426115315E+01  0.50405009520E+01  0.51100000000E-03 0. -1.
        -11    1    3    3    0    0 -0.19118146047E+02  0.24811968635E+02  0.10010683299E+02  0.32883902995E+02  0.51100000000E-03 0.  1.
         12    1    3    3    0    0 -0.33549012794E+01  0.75011023600E+01  0.11073121495E+00  0.82179170483E+01  0.00000000000E+00 0. -1.
</event>
<event>
 7    1  0.1541902E-008  0.4614232E+02  0.7816164E-02  0.1320468E+00
        -11   -1    0    0    0    0  0.00000000000E+00  0.00000000000E+00  0.45593999997E+02  0.45594000000E+02  0.51100000000E-03 0.  1.
         11   -1    0    0    0    0 -0.00000000000E+00 -0.00000000000E+00 -0.45593999997E+02  0.45594000000E+02  0.51100000000E-03 0. -1.
    9900012    2    1    2    0    0  0.99085692252E+01  0.12745440097E+02  0.42053389316E+02  0.46142317184E+02  0.99999947420E+01 0.  0.
         12    1    1    2    0    0 -0.99085692252E+01 -0.12745440097E+02 -0.42053389316E+02  0.45045682816E+02  0.00000000000E+00 0. -1.
         11    1    3    3    0    0  0.29399541930E+01  0.35650453935E+01  0.54377245559E+01  0.71359461827E+01  0.51100000000E-03 0. -1.
        -11    1    3    3    0    0 -0.69424016559E+00  0.29425790733E+01  0.46332006608E+01  0.55323855283E+01  0.51100000000E-03 0.  1.
        -12    1    3    3    0    0  0.76628551978E+01  0.62378156301E+01  0.31982464099E+02  0.33473985474E+02  0.00000000000E+00 0.  1.
</event>
<event>
 7    1  0.1541902E-008  0.4614232E+02  0.7816164E-02  0.1320468E+00
        -11   -1    0    0    0    0  0.00000000000E+00  0.00000000000E+00  0.45593999997E+02  0.45594000000E+02  0.51100000000E-03 0. -1.
         11   -1    0    0    0    0 -0.00000000000E+00 -0.00000000000E+00 -0.45593999997E+02  0.45594000000E+02  0.51100000000E-03 0.  1.
    9900012    2    1    2    0    0 -0.19643466640E+01  0.43318864063E+02 -0.12195525519E+02  0.46142317807E+02  0.10000000422E+02 0.  0.
         12    1    1    2    0    0  0.19643466640E+01 -0.43318864063E+02  0.12195525519E+02  0.45045682193E+02  0.00000000000E+00 0. -1.
         11    1    3    3    0    0 -0.59132046134E+00  0.12394479942E+02 -0.66039342553E+01  0.14056483942E+02  0.51100000000E-03 0. -1.
        -11    1    3    3    0    0 -0.35845908453E+01  0.13668431685E+02 -0.35468385900E+01  0.14568986942E+02  0.51100000000E-03 0.  1.
        -12    1    3    3    0    0  0.22115646426E+01  0.17255952436E+02 -0.20447526741E+01  0.17516846923E+02  0.00000000000E+00 0.  1.
</event>
<event>
 7    1  0.1541902E-008  0.4614232E+02  0.7816164E-02  0.1320468E+00
        -11   -1    0    0    0    0  0.00000000000E+00  0.00000000000E+00  0.45593999997E+02  0.45594000000E+02  0.51100000000E-03 0.  1.
         11   -1    0    0    0    0 -0.00000000000E+00 -0.00000000000E+00 -0.45593999997E+02  0.45594000000E+02  0.51100000000E-03 0. -1.
    9900012    2    1    2    0    0  0.96501036978E+01 -0.10731731986E+01  0.43986786819E+02  0.46142316336E+02  0.99999870027E+01 0.  0.
         12    1    1    2    0    0 -0.96501036978E+01  0.10731731986E+01 -0.43986786819E+02  0.45045683664E+02  0.00000000000E+00 0. -1.
         11    1    3    3    0    0 -0.65812265235E-01  0.17737164211E+01  0.11822166825E+01  0.21326128909E+01  0.51100000000E-03 0. -1.
        -11    1    3    3    0    0  0.77977661014E+01 -0.28372563939E+01  0.33886628468E+02  0.34887802585E+02  0.51100000000E-03 0.  1.
         12    1    3    3    0    0  0.19181498616E+01 -0.96332258049E-02  0.89179416684E+01  0.91219008596E+01  0.00000000000E+00 0. -1.
</event>
<event>
 7    1  0.1541902E-008  0.4614233E+02  0.7816164E-02  0.1320468E+00
        -11   -1    0    0    0    0  0.00000000000E+00  0.00000000000E+00  0.45593999997E+02  0.45594000000E+02  0.51100000000E-03 0. -1.
         11   -1    0    0    0    0 -0.00000000000E+00 -0.00000000000E+00 -0.45593999997E+02  0.45594000000E+02  0.51100000000E-03 0.  1.
    9900012    2    1    2    0    0 -0.91777178930E+01 -0.44033327769E+02 -0.24389055190E+01  0.46142326287E+02  0.10000077746E+02 0.  0.
         12    1    1    2    0    0  0.91777178930E+01  0.44033327769E+02  0.24389055190E+01  0.45045673713E+02  0.00000000000E+00 0. -1.
         11    1    3    3    0    0  0.58880048772E+00 -0.77998208724E+01  0.11066092884E+01  0.78999035458E+01  0.51100000000E-03 0. -1.
        -11    1    3    3    0    0 -0.18042457772E+01 -0.20524411626E+01  0.87391169172E+00  0.28690659554E+01  0.51100000000E-03 0.  1.
        -12    1    3    3    0    0 -0.79622726036E+01 -0.34181065734E+02 -0.44194264991E+01  0.35373356786E+02  0.00000000000E+00 0.  1.
</event>
<event>
 7    1  0.1541902E-008  0.4614232E+02  0.7816164E-02  0.1320468E+00
        -11   -1    0    0    0    0  0.00000000000E+00  0.00000000000E+00  0.45593999997E+02  0.45594000000E+02  0.51100000000E-03 0.  1.
         11   -1    0    0    0    0 -0.00000000000E+00 -0.00000000000E+00 -0.45593999997E+02  0.45594000000E+02  0.51100000000E-03 0. -1.
    9900012    2    1    2    0    0 -0.21865140279E+02 -0.29539044983E+02  0.26047530480E+02  0.46142318941E+02  0.10000010762E+02 0.  0.
         12    1    1    2    0    0  0.21865140279E+02  0.29539044983E+02 -0.26047530480E+02  0.45045681059E+02  0.00000000000E+00 0. -1.
         11    1    3    3    0    0 -0.75086224952E+01 -0.11556650885E+02  0.13771514354E+02  0.19483074688E+02  0.51100000000E-03 0. -1.
        -11    1    3    3    0    0 -0.11131133612E+02 -0.96602762213E+01  0.77555150093E+01  0.16654461429E+02  0.51100000000E-03 0.  1.
        -12    1    3    3    0    0 -0.32253841717E+01 -0.83221178772E+01  0.45205011166E+01  0.10004782824E+02  0.00000000000E+00 0.  1.
</event>
<event>
 7    1  0.1541902E-008  0.4614232E+02  0.7816164E-02  0.1320468E+00
        -11   -1    0    0    0    0  0.00000000000E+00  0.00000000000E+00  0.45593999997E+02  0.45594000000E+02  0.51100000000E-03 0.  1.
         11   -1    0    0    0    0 -0.00000000000E+00 -0.00000000000E+00 -0.45593999997E+02  0.45594000000E+02  0.51100000000E-03 0. -1.
    9900012    2    1    2    0    0 -0.29884338326E+02 -0.19451789437E+02  0.27525765567E+02  0.46142316971E+02  0.99999927966E+01 0.  0.
         12    1    1    2    0    0  0.29884338326E+02  0.19451789437E+02 -0.27525765567E+02  0.45045683029E+02  0.00000000000E+00 0. -1.
         11    1    3    3    0    0  0.29732275957E+00  0.58450314559E+00  0.29765775118E+00  0.72017022190E+00  0.51100000000E-03 0. -1.
        -11    1    3    3    0    0 -0.10244382319E+02 -0.50971574984E+01  0.84224146104E+01  0.14207936225E+02  0.51100000000E-03 0.  1.
         12    1    3    3    0    0 -0.19937278767E+02 -0.14939135084E+02  0.18805693206E+02  0.31214210524E+02  0.00000000000E+00 0. -1.
</event>
<event>
 7    1  0.1541902E-008  0.4614232E+02  0.7816164E-02  0.1320468E+00
        -11   -1    0    0    0    0  0.00000000000E+00  0.00000000000E+00  0.45593999997E+02  0.45594000000E+02  0.51100000000E-03 0.  1.
         11   -1    0    0    0    0 -0.00000000000E+00 -0.00000000000E+00 -0.45593999997E+02  0.45594000000E+02  0.51100000000E-03 0. -1.
    9900012    2    1    2    0    0 -0.16105999276E+02 -0.37665045667E+02  0.18736450184E+02  0.46142318262E+02  0.10000004564E+02 0.  0.
         12    1    1    2    0    0  0.16105999276E+02  0.37665045667E+02 -0.18736450184E+02  0.45045681738E+02  0.00000000000E+00 0. -1.
         11    1    3    3    0    0 -0.59614321217E+01 -0.99372206094E+01  0.75552659544E+01  0.13833621011E+02  0.51100000000E-03 0. -1.
        -11    1    3    3    0    0 -0.13103371887E+01 -0.13027379355E+02  0.59191009982E+01  0.14368902299E+02  0.51100000000E-03 0.  1.
         12    1    3    3    0    0 -0.88342299659E+01 -0.14700445703E+02  0.52620832315E+01  0.17939794951E+02  0.00000000000E+00 0. -1.
</event>
<event>
 7    1  0.1541902E-008  0.4614232E+02  0.7816164E-02  0.1320468E+00
        -11   -1    0    0    0    0  0.00000000000E+00  0.00000000000E+00  0.45593999997E+02  0.45594000000E+02  0.51100000000E-03 0.  1.
         11   -1    0    0    0    0 -0.00000000000E+00 -0.00000000000E+00 -0.45593999997E+02  0.45594000000E+02  0.51100000000E-03 0. -1.
    9900012    2    1    2    0    0 -0.19984538022E+02  0.39265409867E+02  0.93786607604E+01  0.46142318191E+02  0.10000003919E+02 0.  0.
         12    1    1    2    0    0  0.19984538022E+02 -0.39265409867E+02 -0.93786607604E+01  0.45045681809E+02  0.00000000000E+00 0. -1.
         11    1    3    3    0    0  0.22422075797E-01  0.40714944937E+01  0.94601999124E-01  0.40726551488E+01  0.51100000000E-03 0. -1.
        -11    1    3    3    0    0 -0.18961946473E+02  0.29409331858E+02  0.66073179940E+01  0.35610684713E+02  0.51100000000E-03 0.  1.
        -12    1    3    3    0    0 -0.10450136246E+01  0.57845835154E+01  0.26767407674E+01  0.64589783293E+01  0.00000000000E+00 0.  1.
</event>
<event>
 7    1  0.1541902E-008  0.4614232E+02  0.7816164E-02  0.1320468E+00
        -11   -1    0    0    0    0  0.00000000000E+00  0.00000000000E+00  0.45593999997E+02  0.45594000000E+02  0.51100000000E-03 0.  1.
         11   -1    0    0    0    0 -0.00000000000E+00 -0.00000000000E+00 -0.45593999997E+02  0.45594000000E+02  0.51100000000E-03 0. -1.
    9900012    2    1    2    0    0 -0.19795569284E+02  0.39406506880E+02  0.91856523720E+01  0.46142316996E+02  0.99999930270E+01 0.  0.
         12    1    1    2    0    0  0.19795569284E+02 -0.39406506880E+02 -0.91856523720E+01  0.45045683004E+02  0.00000000000E+00 0. -1.
         11    1    3    3    0    0 -0.33904476761E+01  0.30749501461E+01 -0.17906705165E+00  0.45806679770E+01  0.51100000000E-03 0. -1.
        -11    1    3    3    0    0 -0.29300697471E+01  0.14191575548E+02  0.46450343481E+01  0.15217176795E+02  0.51100000000E-03 0.  1.
        -12    1    3    3    0    0 -0.13475051861E+02  0.22139981185E+02  0.47196850756E+01  0.26344472224E+02  0.00000000000E+00 0.  1.
</event>
<event>
 7    1  0.1541902E-008  0.4614232E+02  0.7816164E-02  0.1320468E+00
        -11   -1    0    0    0    0  0.00000000000E+00  0.00000000000E+00  0.45593999997E+02  0.45594000000E+02  0.51100000000E-03 0.  1.
         11   -1    0    0    0    0 -0.00000000000E+00 -0.00000000000E+00 -0.45593999997E+02  0.45594000000E+02  0.51100000000E-03 0. -1.
    9900012    2    1    2    0    0 -0.30960883112E+02  0.10274316153E+01  0.32702929590E+02  0.46142317604E+02  0.99999985647E+01 0.  0.
         12    1    1    2    0    0  0.30960883112E+02 -0.10274316153E+01 -0.32702929590E+02  0.45045682396E+02  0.00000000000E+00 0. -1.
         11    1    3    3    0    0 -0.31396602201E+01  0.46452987864E+00  0.17130381347E+01  0.36066264318E+01  0.51100000000E-03 0. -1.
        -11    1    3    3    0    0 -0.29837834548E+00 -0.39948185068E+00  0.38092983175E+01  0.38417924618E+01  0.51100000000E-03 0.  1.
        -12    1    3    3    0    0 -0.27522844546E+02  0.96238358733E+00  0.27180593137E+02  0.38693898710E+02  0.00000000000E+00 0.  1.
</event>
<event>
 7    1  0.1541902E-008  0.4614232E+02  0.7816164E-02  0.1320468E+00
        -11   -1    0    0    0    0  0.00000000000E+00  0.00000000000E+00  0.45593999997E+02  0.45594000000E+02  0.51100000000E-03 0. -1.
         11   -1    0    0    0    0 -0.00000000000E+00 -0.00000000000E+00 -0.45593999997E+02  0.45594000000E+02  0.51100000000E-03 0.  1.
    9900012    2    1    2    0    0 -0.40122070951E+02  0.71965926032E+01 -0.19171382085E+02  0.46142318591E+02  0.10000007572E+02 0.  0.
         12    1    1    2    0    0  0.40122070951E+02 -0.71965926032E+01  0.19171382085E+02  0.45045681409E+02  0.00000000000E+00 0. -1.
         11    1    3    3    0    0 -0.11318777325E+02  0.35837941446E+00 -0.89434258487E+01  0.14430108180E+02  0.51100000000E-03 0. -1.
        -11    1    3    3    0    0 -0.21651403893E+02  0.47857185423E+01 -0.53343520328E+01  0.22806615365E+02  0.51100000000E-03 0.  1.
        -12    1    3    3    0    0 -0.71518897334E+01  0.20524946464E+01 -0.48936042030E+01  0.89055950463E+01  0.00000000000E+00 0.  1.
</event>
<event>
 7    1  0.1541902E-008  0.4614232E+02  0.7816164E-02  0.1320468E+00
        -11   -1    0    0    0    0  0.00000000000E+00  0.00000000000E+00  0.45593999997E+02  0.45594000000E+02  0.51100000000E-03 0.  1.
         11   -1    0    0    0    0 -0.00000000000E+00 -0.00000000000E+00 -0.45593999997E+02  0.45594000000E+02  0.51100000000E-03 0. -1.
    9900012    2    1    2    0    0 -0.36942883694E+02 -0.20178385442E+02  0.16036505232E+02  0.46142318800E+02  0.10000009474E+02 0.  0.
         12    1    1    2    0    0  0.36942883694E+02  0.20178385442E+02 -0.16036505232E+02  0.45045681200E+02  0.00000000000E+00 0. -1.
         11    1    3    3    0    0 -0.27981649612E+01 -0.20349038033E+01  0.22263144230E+01  0.41142480248E+01  0.51100000000E-03 0. -1.
        -11    1    3    3    0    0 -0.10385184421E+02 -0.34411637001E+01  0.78326873850E+01  0.13455283534E+02  0.51100000000E-03 0.  1.
        -12    1    3    3    0    0 -0.23759534313E+02 -0.14702317938E+02  0.59775034243E+01  0.28572787241E+02  0.00000000000E+00 0.  1.
</event>
<event>
 7    1  0.1541902E-008  0.4614232E+02  0.7816164E-02  0.1320468E+00
        -11   -1    0    0    0    0  0.00000000000E+00  0.00000000000E+00  0.45593999997E+02  0.45594000000E+02  0.51100000000E-03 0.  1.
         11   -1    0    0    0    0 -0.00000000000E+00 -0.00000000000E+00 -0.45593999997E+02  0.45594000000E+02  0.51100000000E-03 0. -1.
    9900012    2    1    2    0    0 -0.19319523554E+02  0.24160305050E+02  0.32743691154E+02  0.46142316069E+02  0.99999845685E+01 0.  0.
         12    1    1    2    0    0  0.19319523554E+02 -0.24160305050E+02 -0.32743691154E+02  0.45045683931E+02  0.00000000000E+00 0. -1.
         11    1    3    3    0    0 -0.27987793871E+01  0.10811144603E+01  0.41347979841E+01  0.51086719570E+01  0.51100000000E-03 0. -1.
        -11    1    3    3    0    0 -0.69019254475E+01  0.15705759636E+02  0.14767066441E+02  0.22635673442E+02  0.51100000000E-03 0.  1.
        -12    1    3    3    0    0 -0.96188187197E+01  0.73734309529E+01  0.13841826729E+02  0.18397970670E+02  0.00000000000E+00 0.  1.
</event>
<event>
 7    1  0.1541902E-008  0.4614232E+02  0.7816164E-02  0.1320468E+00
        -11   -1    0    0    0    0  0.00000000000E+00  0.00000000000E+00  0.45593999997E+02  0.45594000000E+02  0.51100000000E-03 0. -1.
         11   -1    0    0    0    0 -0.00000000000E+00 -0.00000000000E+00 -0.45593999997E+02  0.45594000000E+02  0.51100000000E-03 0.  1.
    9900012    2    1    2    0    0 -0.34291397754E+02 -0.13579540055E+01 -0.29178233830E+02  0.46142319536E+02  0.10000016186E+02 0.  0.
         12    1    1    2    0    0  0.34291397754E+02  0.13579540055E+01  0.29178233830E+02  0.45045680464E+02  0.00000000000E+00 0. -1.
         11    1    3    3    0    0 -0.26331975118E+01  0.25961934062E+01 -0.31254667882E+01  0.48417447520E+01  0.51100000000E-03 0. -1.
        -11    1    3    3    0    0 -0.29212863811E+02 -0.28140648813E+01 -0.23791117003E+02  0.37779989699E+02  0.51100000000E-03 0.  1.
         12    1    3    3    0    0 -0.24453364313E+01 -0.11400825304E+01 -0.22616500394E+01  0.35205850848E+01  0.00000000000E+00 0. -1.
</event>
<event>
 7    1  0.1541902E-008  0.4614233E+02  0.7816164E-02  0.1320468E+00
        -11   -1    0    0    0    0  0.00000000000E+00  0.00000000000E+00  0.45593999997E+02  0.45594000000E+02  0.51100000000E-03 0. -1.
         11   -1    0    0    0    0 -0.00000000000E+00 -0.00000000000E+00 -0.45593999997E+02  0.45594000000E+02  0.51100000000E-03 0.  1.
    9900012    2    1    2    0    0  0.37623676219E+02  0.19462046483E+02  0.15323202568E+02  0.46142325374E+02  0.10000069422E+02 0.  0.
         12    1    1    2    0    0 -0.37623676219E+02 -0.19462046483E+02 -0.15323202568E+02  0.45045674626E+02  0.00000000000E+00 0. -1.
         11    1    3    3    0    0  0.11689239564E+02  0.94616530385E+01  0.58547426919E+01  0.16138129138E+02  0.51100000000E-03 0. -1.
        -11    1    3    3    0    0  0.25126058093E+02  0.80902136673E+01  0.88219437453E+01  0.27831583573E+02  0.51100000000E-03 0.  1.
        -12    1    3    3    0    0  0.80837856244E+00  0.19101797767E+01  0.64651613087E+00  0.21726126639E+01  0.00000000000E+00 0.  1.
</event>
<event>
 7    1  0.1541902E-008  0.4614232E+02  0.7816164E-02  0.1320468E+00
        -11   -1    0    0    0    0  0.00000000000E+00  0.00000000000E+00  0.45593999997E+02  0.45594000000E+02  0.51100000000E-03 0.  1.
         11   -1    0    0    0    0 -0.00000000000E+00 -0.00000000000E+00 -0.45593999997E+02  0.45594000000E+02  0.51100000000E-03 0. -1.
    9900012    2    1    2    0    0 -0.42066160368E+02  0.11954231975E+02  0.10800371539E+02  0.46142317236E+02  0.99999952157E+01 0.  0.
         12    1    1    2    0    0  0.42066160368E+02 -0.11954231975E+02 -0.10800371539E+02  0.45045682764E+02  0.00000000000E+00 0. -1.
         11    1    3    3    0    0 -0.34011097963E+02  0.10935334000E+02  0.99604253762E+01  0.37088359202E+02  0.51100000000E-03 0.  1.
        -11    1    3    3    0    0 -0.67249682005E+01  0.20577381600E+01 -0.26326710275E+00  0.70376696045E+01  0.51100000000E-03 0. -1.
         12    1    3    3    0    0 -0.13300942052E+01 -0.10388401854E+01  0.11032132654E+01  0.20162884304E+01  0.00000000000E+00 0. -1.
</event>
<event>
 7    1  0.1541902E-008  0.4614232E+02  0.7816164E-02  0.1320468E+00
        -11   -1    0    0    0    0  0.00000000000E+00  0.00000000000E+00  0.45593999997E+02  0.45594000000E+02  0.51100000000E-03 0. -1.
         11   -1    0    0    0    0 -0.00000000000E+00 -0.00000000000E+00 -0.45593999997E+02  0.45594000000E+02  0.51100000000E-03 0.  1.
    9900012    2    1    2    0    0 -0.22331356277E+02 -0.26740811483E+02 -0.28554390371E+02  0.46142315619E+02  0.99999804674E+01 0.  0.
         12    1    1    2    0    0  0.22331356277E+02  0.26740811483E+02  0.28554390371E+02  0.45045684381E+02  0.00000000000E+00 0. -1.
         11    1    3    3    0    0 -0.29495583158E+01 -0.83441228705E+01 -0.89909895179E+01  0.12615949172E+02  0.51100000000E-03 0. -1.
        -11    1    3    3    0    0 -0.41772252536E+01 -0.64038674921E+01 -0.75056507533E+01  0.10714173938E+02  0.51100000000E-03 0.  1.
         12    1    3    3    0    0 -0.15204572707E+02 -0.11992821120E+02 -0.12057750099E+02  0.22812192509E+02  0.00000000000E+00 0. -1.
</event>
<event>
 7    1  0.1541902E-008  0.4614232E+02  0.7816164E-02  0.1320468E+00
        -11   -1    0    0    0    0  0.00000000000E+00  0.00000000000E+00  0.45593999997E+02  0.45594000000E+02  0.51100000000E-03 0. -1.
         11   -1    0    0    0    0 -0.00000000000E+00 -0.00000000000E+00 -0.45593999997E+02  0.45594000000E+02  0.51100000000E-03 0.  1.
    9900012    2    1    2    0    0  0.39453296319E+01 -0.43239868119E+02  0.11994243337E+02  0.46142315477E+02  0.99999791761E+01 0.  0.
         12    1    1    2    0    0 -0.39453296319E+01  0.43239868119E+02 -0.11994243337E+02  0.45045684523E+02  0.00000000000E+00 0. -1.
         11    1    3    3    0    0 -0.23862047633E+01 -0.42888155493E+01  0.13554228505E+01  0.50916680325E+01  0.51100000000E-03 0. -1.
        -11    1    3    3    0    0  0.23569363709E+01 -0.25171549420E+02  0.74890665894E+01  0.26367559005E+02  0.51100000000E-03 0.  1.
         12    1    3    3    0    0  0.39745980243E+01 -0.13779503150E+02  0.31497538972E+01  0.14683088440E+02  0.00000000000E+00 0. -1.
</event>
<event>
 7    1  0.1541902E-008  0.4614232E+02  0.7816164E-02  0.1320468E+00
        -11   -1    0    0    0    0  0.00000000000E+00  0.00000000000E+00  0.45593999997E+02  0.45594000000E+02  0.51100000000E-03 0.  1.
         11   -1    0    0    0    0 -0.00000000000E+00 -0.00000000000E+00 -0.45593999997E+02  0.45594000000E+02  0.51100000000E-03 0. -1.
    9900012    2    1    2    0    0  0.12625039904E+01 -0.44783712101E+02  0.46838749134E+01  0.46142317965E+02  0.10000001855E+02 0.  0.
         12    1    1    2    0    0 -0.12625039904E+01  0.44783712101E+02 -0.46838749134E+01  0.45045682035E+02  0.00000000000E+00 0. -1.
         11    1    3    3    0    0  0.26734122257E+00 -0.12588498839E+01 -0.77384567434E+00  0.15016696535E+01  0.51100000000E-03 0. -1.
        -11    1    3    3    0    0 -0.54745029239E+00 -0.39692501383E+02  0.68463310605E+01  0.40282336291E+02  0.51100000000E-03 0.  1.
        -12    1    3    3    0    0  0.15426130602E+01 -0.38323608340E+01 -0.13886104728E+01  0.43583120196E+01  0.00000000000E+00 0.  1.
</event>
<event>
 7    1  0.1541902E-008  0.4614232E+02  0.7816164E-02  0.1320468E+00
        -11   -1    0    0    0    0  0.00000000000E+00  0.00000000000E+00  0.45593999997E+02  0.45594000000E+02  0.51100000000E-03 0. -1.
         11   -1    0    0    0    0 -0.00000000000E+00 -0.00000000000E+00 -0.45593999997E+02  0.45594000000E+02  0.51100000000E-03 0.  1.
    9900012    2    1    2    0    0 -0.47849994571E+01  0.27955481816E+02 -0.34995832592E+02  0.46142317830E+02  0.10000000628E+02 0.  0.
         12    1    1    2    0    0  0.47849994571E+01 -0.27955481816E+02  0.34995832592E+02  0.45045682170E+02  0.00000000000E+00 0. -1.
         11    1    3    3    0    0  0.10345808549E+01  0.33520274758E+01 -0.74972897915E+01  0.82774271500E+01  0.51100000000E-03 0. -1.
        -11    1    3    3    0    0 -0.56017199919E+01  0.21117379862E+02 -0.20117474749E+02  0.29699087354E+02  0.51100000000E-03 0.  1.
        -12    1    3    3    0    0 -0.21786032015E+00  0.34860744777E+01 -0.73810680510E+01  0.81658033259E+01  0.00000000000E+00 0.  1.
</event>
<event>
 7    1  0.1541902E-008  0.4614232E+02  0.7816164E-02  0.1320468E+00
        -11   -1    0    0    0    0  0.00000000000E+00  0.00000000000E+00  0.45593999997E+02  0.45594000000E+02  0.51100000000E-03 0.  1.
         11   -1    0    0    0    0 -0.00000000000E+00 -0.00000000000E+00 -0.45593999997E+02  0.45594000000E+02  0.51100000000E-03 0. -1.
    9900012    2    1    2    0    0 -0.14408871616E+02 -0.31434877241E+02  0.28867739259E+02  0.46142318095E+02  0.10000003042E+02 0.  0.
         12    1    1    2    0    0  0.14408871616E+02  0.31434877241E+02 -0.28867739259E+02  0.45045681905E+02  0.00000000000E+00 0. -1.
         11    1    3    3    0    0 -0.14173675897E+01 -0.27864073293E+01  0.13991134501E+00  0.31293085713E+01  0.51100000000E-03 0. -1.
        -11    1    3    3    0    0 -0.29166535024E+01 -0.30327030818E+01  0.20495886657E+01  0.46802745214E+01  0.51100000000E-03 0.  1.
        -12    1    3    3    0    0 -0.10074850524E+02 -0.25615766830E+02  0.26678239249E+02  0.38332735002E+02  0.00000000000E+00 0.  1.
</event>
<event>
 7    1  0.1541902E-008  0.4614232E+02  0.7816164E-02  0.1320468E+00
        -11   -1    0    0    0    0  0.00000000000E+00  0.00000000000E+00  0.45593999997E+02  0.45594000000E+02  0.51100000000E-03 0.  1.
         11   -1    0    0    0    0 -0.00000000000E+00 -0.00000000000E+00 -0.45593999997E+02  0.45594000000E+02  0.51100000000E-03 0. -1.
    9900012    2    1    2    0    0 -0.21315499560E+02 -0.39577231291E+02 -0.28992727502E+01  0.46142317181E+02  0.99999947078E+01 0.  0.
         12    1    1    2    0    0  0.21315499560E+02  0.39577231291E+02  0.28992727502E+01  0.45045682819E+02  0.00000000000E+00 0. -1.
         11    1    3    3    0    0 -0.29853272414E+01 -0.40030130309E+01 -0.17946870911E+01  0.53063352778E+01  0.51100000000E-03 0. -1.
        -11    1    3    3    0    0 -0.49408674555E+01 -0.13256621136E+02  0.30718187692E+01  0.14477093838E+02  0.51100000000E-03 0.  1.
        -12    1    3    3    0    0 -0.13389304863E+02 -0.22317597124E+02 -0.41764044282E+01  0.26358888065E+02  0.00000000000E+00 0.  1.
</event>
<event>
 7    1  0.1541902E-008  0.4614232E+02  0.7816164E-02  0.1320468E+00
        -11   -1    0    0    0    0  0.00000000000E+00  0.00000000000E+00  0.45593999997E+02  0.45594000000E+02  0.51100000000E-03 0.  1.
         11   -1    0    0    0    0 -0.00000000000E+00 -0.00000000000E+00 -0.45593999997E+02  0.45594000000E+02  0.51100000000E-03 0. -1.
    9900012    2    1    2    0    0 -0.38165799574E+02  0.12974779328E+02  0.20103245845E+02  0.46142315976E+02  0.99999837192E+01 0.  0.
         12    1    1    2    0    0  0.38165799574E+02 -0.12974779328E+02 -0.20103245845E+02  0.45045684024E+02  0.00000000000E+00 0. -1.
         11    1    3    3    0    0 -0.18274084069E+02  0.41272589851E+01  0.12247090937E+02  0.22382306673E+02  0.51100000000E-03 0. -1.
        -11    1    3    3    0    0 -0.16797598319E+02  0.80661547299E+01  0.85378535587E+01  0.20496758404E+02  0.51100000000E-03 0.  1.
         12    1    3    3    0    0 -0.30941171856E+01  0.78136561303E+00 -0.68169865144E+00  0.32632508992E+01  0.00000000000E+00 0. -1.
</event>
<event>
 7    1  0.1541902E-008  0.4614232E+02  0.7816164E-02  0.1320468E+00
        -11   -1    0    0    0    0  0.00000000000E+00  0.00000000000E+00  0.45593999997E+02  0.45594000000E+02  0.51100000000E-03 0. -1.
         11   -1    0    0    0    0 -0.00000000000E+00 -0.00000000000E+00 -0.45593999997E+02  0.45594000000E+02  0.51100000000E-03 0.  1.
    9900012    2    1    2    0    0  0.20146552226E+02 -0.38611743037E+02  0.11504923855E+02  0.46142317190E+02  0.99999947888E+01 0.  0.
         12    1    1    2    0    0 -0.20146552226E+02  0.38611743037E+02 -0.11504923855E+02  0.45045682810E+02  0.00000000000E+00 0. -1.
         11    1    3    3    0    0  0.52802411957E+01 -0.80412111494E+01  0.49043682652E+01  0.10797909621E+02  0.51100000000E-03 0. -1.
        -11    1    3    3    0    0  0.14142535843E+02 -0.23216351317E+02  0.38338779792E+01  0.27453759473E+02  0.51100000000E-03 0.  1.
        -12    1    3    3    0    0  0.72377518752E+00 -0.73541805701E+01  0.27666776106E+01  0.78906480964E+01  0.00000000000E+00 0.  1.
</event>
<event>
 7    1  0.1541902E-008  0.4614232E+02  0.7816164E-02  0.1320468E+00
        -11   -1    0    0    0    0  0.00000000000E+00  0.00000000000E+00  0.45593999997E+02  0.45594000000E+02  0.51100000000E-03 0. -1.
         11   -1    0    0    0    0 -0.00000000000E+00 -0.00000000000E+00 -0.45593999997E+02  0.45594000000E+02  0.51100000000E-03 0.  1.
    9900012    2    1    2    0    0  0.40538158349E+02  0.91290427610E+01 -0.17390572852E+02  0.46142315100E+02  0.99999757301E+01 0.  0.
         12    1    1    2    0    0 -0.40538158349E+02 -0.91290427610E+01  0.17390572852E+02  0.45045684900E+02  0.00000000000E+00 0. -1.
         11    1    3    3    0    0  0.25357637144E+02  0.25176696621E+01 -0.86280870151E+01  0.26903388408E+02  0.51100000000E-03 0. -1.
        -11    1    3    3    0    0  0.95427023688E+01  0.58624564623E+01 -0.72928340743E+01  0.13364766865E+02  0.51100000000E-03 0.  1.
        -12    1    3    3    0    0  0.56378188362E+01  0.74891663663E+00 -0.14696517623E+01  0.58741598259E+01  0.00000000000E+00 0.  1.
</event>
<event>
 7    1  0.1541902E-008  0.4614232E+02  0.7816164E-02  0.1320468E+00
        -11   -1    0    0    0    0  0.00000000000E+00  0.00000000000E+00  0.45593999997E+02  0.45594000000E+02  0.51100000000E-03 0. -1.
         11   -1    0    0    0    0 -0.00000000000E+00 -0.00000000000E+00 -0.45593999997E+02  0.45594000000E+02  0.51100000000E-03 0.  1.
    9900012    2    1    2    0    0 -0.43888242315E+01  0.43801939240E+02 -0.95520637449E+01  0.46142316731E+02  0.99999906098E+01 0.  0.
         12    1    1    2    0    0  0.43888242315E+01 -0.43801939240E+02  0.95520637449E+01  0.45045683269E+02  0.00000000000E+00 0. -1.
         11    1    3    3    0    0 -0.48417430370E+01  0.13121768571E+02 -0.40443236597E+01  0.14559527472E+02  0.51100000000E-03 0. -1.
        -11    1    3    3    0    0  0.78944579291E+00  0.30378573095E+02 -0.59326331094E+01  0.30962510619E+02  0.51100000000E-03 0.  1.
        -12    1    3    3    0    0 -0.33652698744E+00  0.30159757366E+00  0.42489302418E+00  0.62027864037E+00  0.00000000000E+00 0.  1.
</event>
<event>
 7    1  0.1541902E-008  0.4614231E+02  0.7816164E-02  0.1320468E+00
        -11   -1    0    0    0    0  0.00000000000E+00  0.00000000000E+00  0.45593999997E+02  0.45594000000E+02  0.51100000000E-03 0.  1.
         11   -1    0    0    0    0 -0.00000000000E+00 -0.00000000000E+00 -0.45593999997E+02  0.45594000000E+02  0.51100000000E-03 0. -1.
    9900012    2    1    2    0    0 -0.42468839214E+02 -0.94932466143E+01  0.11635709204E+02  0.46142314700E+02  0.99999720876E+01 0.  0.
         12    1    1    2    0    0  0.42468839214E+02  0.94932466143E+01 -0.11635709204E+02  0.45045685300E+02  0.00000000000E+00 0. -1.
         11    1    3    3    0    0 -0.73221005476E+01 -0.40413388340E+01  0.13867045124E+01  0.84775306349E+01  0.51100000000E-03 0. -1.
        -11    1    3    3    0    0 -0.24755418088E+02 -0.52003247173E+01  0.10187825998E+02  0.27270238369E+02  0.51100000000E-03 0.  1.
        -12    1    3    3    0    0 -0.10391320578E+02 -0.25158306311E+00  0.61178693487E-01  0.10394545696E+02  0.00000000000E+00 0.  1.
</event>
<event>
 7    1  0.1541902E-008  0.4614232E+02  0.7816164E-02  0.1320468E+00
        -11   -1    0    0    0    0  0.00000000000E+00  0.00000000000E+00  0.45593999997E+02  0.45594000000E+02  0.51100000000E-03 0.  1.
         11   -1    0    0    0    0 -0.00000000000E+00 -0.00000000000E+00 -0.45593999997E+02  0.45594000000E+02  0.51100000000E-03 0. -1.
    9900012    2    1    2    0    0  0.88119796176E+01 -0.44064935665E+02 -0.31215291696E+01  0.46142317806E+02  0.10000000412E+02 0.  0.
         12    1    1    2    0    0 -0.88119796176E+01  0.44064935665E+02  0.31215291696E+01  0.45045682194E+02  0.00000000000E+00 0. -1.
         11    1    3    3    0    0  0.10268754277E+01 -0.13581620882E+02 -0.24024299955E+01  0.13830638780E+02  0.51100000000E-03 0. -1.
        -11    1    3    3    0    0  0.62091535145E+01 -0.27571101064E+02  0.15393903338E+01  0.28303514342E+02  0.51100000000E-03 0.  1.
        -12    1    3    3    0    0  0.15759506754E+01 -0.29122137191E+01 -0.22584895079E+01  0.40081646840E+01  0.00000000000E+00 0.  1.
</event>
<event>
 7    1  0.1541902E-008  0.4614232E+02  0.7816164E-02  0.1320468E+00
        -11   -1    0    0    0    0  0.00000000000E+00  0.00000000000E+00  0.45593999997E+02  0.45594000000E+02  0.51100000000E-03 0. -1.
         11   -1    0    0    0    0 -0.00000000000E+00 -0.00000000000E+00 -0.45593999997E+02  0.45594000000E+02  0.51100000000E-03 0.  1.
    9900012    2    1    2    0    0  0.21888211528E+02 -0.17849812094E+02 -0.35091364295E+02  0.46142318256E+02  0.10000004512E+02 0.  0.
         12    1    1    2    0    0 -0.21888211528E+02  0.17849812094E+02  0.35091364295E+02  0.45045681744E+02  0.00000000000E+00 0. -1.
         11    1    3    3    0    0 -0.70271011891E+00 -0.14105993237E+00 -0.20819976079E+01  0.22019113779E+01  0.51100000000E-03 0. -1.
        -11    1    3    3    0    0  0.20798760968E+02 -0.14636279153E+02 -0.29380401746E+02  0.38858938898E+02  0.51100000000E-03 0.  1.
        -12    1    3    3    0    0  0.17921606788E+01 -0.30724730088E+01 -0.36289649413E+01  0.50814679801E+01  0.00000000000E+00 0.  1.
</event>
<event>
 7    1  0.1541902E-008  0.4614232E+02  0.7816164E-02  0.1320468E+00
        -11   -1    0    0    0    0  0.00000000000E+00  0.00000000000E+00  0.45593999997E+02  0.45594000000E+02  0.51100000000E-03 0.  1.
         11   -1    0    0    0    0 -0.00000000000E+00 -0.00000000000E+00 -0.45593999997E+02  0.45594000000E+02  0.51100000000E-03 0. -1.
    9900012    2    1    2    0    0 -0.43281398265E+02  0.10760872736E+02  0.63275292996E+01  0.46142318244E+02  0.10000004402E+02 0.  0.
         12    1    1    2    0    0  0.43281398265E+02 -0.10760872736E+02 -0.63275292996E+01  0.45045681756E+02  0.00000000000E+00 0. -1.
         11    1    3    3    0    0 -0.15156027123E+02  0.21808084307E+01 -0.39085220171E+00  0.15317109690E+02  0.51100000000E-03 0. -1.
        -11    1    3    3    0    0 -0.26202081837E+02  0.87594922350E+01  0.46873511869E+01  0.28022295734E+02  0.51100000000E-03 0.  1.
         12    1    3    3    0    0 -0.19232893057E+01 -0.17942793010E+00  0.20310303144E+01  0.28029128195E+01  0.00000000000E+00 0. -1.
</event>
<event>
 7    1  0.1541902E-008  0.4614232E+02  0.7816164E-02  0.1320468E+00
        -11   -1    0    0    0    0  0.00000000000E+00  0.00000000000E+00  0.45593999997E+02  0.45594000000E+02  0.51100000000E-03 0. -1.
         11   -1    0    0    0    0 -0.00000000000E+00 -0.00000000000E+00 -0.45593999997E+02  0.45594000000E+02  0.51100000000E-03 0.  1.
    9900012    2    1    2    0    0  0.34093626601E+02 -0.13415785970E+00 -0.29440109560E+02  0.46142318475E+02  0.10000006509E+02 0.  0.
         12    1    1    2    0    0 -0.34093626601E+02  0.13415785970E+00  0.29440109560E+02  0.45045681525E+02  0.00000000000E+00 0. -1.
         11    1    3    3    0    0  0.93430254529E+01 -0.92058712046E+00 -0.53992020217E+01  0.10830096398E+02  0.51100000000E-03 0. -1.
        -11    1    3    3    0    0  0.19479229477E+01 -0.18338932576E+01 -0.12034962274E+01  0.29335936530E+01  0.51100000000E-03 0.  1.
        -12    1    3    3    0    0  0.22802678201E+02  0.26203225183E+01 -0.22837411311E+02  0.32378628424E+02  0.00000000000E+00 0.  1.
</event>
<event>
 7    1  0.1541902E-008  0.4614232E+02  0.7816164E-02  0.1320468E+00
        -11   -1    0    0    0    0  0.00000000000E+00  0.00000000000E+00  0.45593999997E+02  0.45594000000E+02  0.51100000000E-03 0. -1.
         11   -1    0    0    0    0 -0.00000000000E+00 -0.00000000000E+00 -0.45593999997E+02  0.45594000000E+02  0.51100000000E-03 0.  1.
    9900012    2    1    2    0    0  0.31027729222E+02 -0.41701867041E+01 -0.32388318541E+02  0.46142316347E+02  0.99999871089E+01 0.  0.
         12    1    1    2    0    0 -0.31027729222E+02  0.41701867041E+01  0.32388318541E+02  0.45045683653E+02  0.00000000000E+00 0. -1.
         11    1    3    3    0    0  0.14562767285E+01 -0.15843949772E+01 -0.11306101664E+01  0.24309111385E+01  0.51100000000E-03 0. -1.
        -11    1    3    3    0    0  0.54221221873E+01 -0.20474693253E+01 -0.98815926234E+01  0.11455889869E+02  0.51100000000E-03 0.  1.
        -12    1    3    3    0    0  0.24149330306E+02 -0.53832240148E+00 -0.21376115751E+02  0.32255515340E+02  0.00000000000E+00 0.  1.
</event>
<event>
 7    1  0.1541902E-008  0.4614232E+02  0.7816164E-02  0.1320468E+00
        -11   -1    0    0    0    0  0.00000000000E+00  0.00000000000E+00  0.45593999997E+02  0.45594000000E+02  0.51100000000E-03 0.  1.
         11   -1    0    0    0    0 -0.00000000000E+00 -0.00000000000E+00 -0.45593999997E+02  0.45594000000E+02  0.51100000000E-03 0. -1.
    9900012    2    1    2    0    0 -0.25679282768E+02  0.32489324651E+02  0.17723761805E+02  0.46142317496E+02  0.99999975809E+01 0.  0.
         12    1    1    2    0    0  0.25679282768E+02 -0.32489324651E+02 -0.17723761805E+02  0.45045682504E+02  0.00000000000E+00 0. -1.
         11    1    3    3    0    0 -0.37280392170E+01  0.79254546385E+01  0.56535208971E+01  0.10424653780E+02  0.51100000000E-03 0. -1.
        -11    1    3    3    0    0 -0.21217586797E+02  0.21067460001E+02  0.11766792667E+02  0.32132246581E+02  0.51100000000E-03 0.  1.
        -12    1    3    3    0    0 -0.73365675351E+00  0.34964100116E+01  0.30344824098E+00  0.35854171356E+01  0.00000000000E+00 0.  1.
</event>
<event>
 7    1  0.1541902E-008  0.4614232E+02  0.7816164E-02  0.1320468E+00
        -11   -1    0    0    0    0  0.00000000000E+00  0.00000000000E+00  0.45593999997E+02  0.45594000000E+02  0.51100000000E-03 0. -1.
         11   -1    0    0    0    0 -0.00000000000E+00 -0.00000000000E+00 -0.45593999997E+02  0.45594000000E+02  0.51100000000E-03 0.  1.
    9900012    2    1    2    0    0 -0.37716080108E+02 -0.90839262945E+01 -0.22893077754E+02  0.46142318468E+02  0.10000006444E+02 0.  0.
         12    1    1    2    0    0  0.37716080108E+02  0.90839262945E+01  0.22893077754E+02  0.45045681532E+02  0.00000000000E+00 0. -1.
         11    1    3    3    0    0 -0.15299778235E+02 -0.60948502698E+00 -0.69353434363E+01  0.16809332969E+02  0.51100000000E-03 0.  1.
        -11    1    3    3    0    0 -0.11862749793E+02 -0.41453388221E+01 -0.11662448720E+02  0.17144135353E+02  0.51100000000E-03 0. -1.
         12    1    3    3    0    0 -0.10553552081E+02 -0.43291024454E+01 -0.42952855972E+01  0.12188850145E+02  0.00000000000E+00 0. -1.
</event>
<event>
 7    1  0.1541902E-008  0.4614232E+02  0.7816164E-02  0.1320468E+00
        -11   -1    0    0    0    0  0.00000000000E+00  0.00000000000E+00  0.45593999997E+02  0.45594000000E+02  0.51100000000E-03 0.  1.
         11   -1    0    0    0    0 -0.00000000000E+00 -0.00000000000E+00 -0.45593999997E+02  0.45594000000E+02  0.51100000000E-03 0. -1.
    9900012    2    1    2    0    0  0.38316592208E+02  0.54409153008E+01  0.23051003888E+02  0.46142316766E+02  0.99999909294E+01 0.  0.
         12    1    1    2    0    0 -0.38316592208E+02 -0.54409153008E+01 -0.23051003888E+02  0.45045683234E+02  0.00000000000E+00 0. -1.
         11    1    3    3    0    0  0.15934326217E+02  0.57501212592E+01  0.12445801029E+02  0.21020575872E+02  0.51100000000E-03 0.  1.
        -11    1    3    3    0    0  0.44565065195E+01 -0.17170861854E+01  0.18387661688E+01  0.51176065315E+01  0.51100000000E-03 0. -1.
        -12    1    3    3    0    0  0.17925759471E+02  0.14078802269E+01  0.87664366905E+01  0.20004134363E+02  0.00000000000E+00 0.  1.
</event>
<event>
 7    1  0.1541902E-008  0.4614232E+02  0.7816164E-02  0.1320468E+00
        -11   -1    0    0    0    0  0.00000000000E+00  0.00000000000E+00  0.45593999997E+02  0.45594000000E+02  0.51100000000E-03 0. -1.
         11   -1    0    0    0    0 -0.00000000000E+00 -0.00000000000E+00 -0.45593999997E+02  0.45594000000E+02  0.51100000000E-03 0.  1.
    9900012    2    1    2    0    0 -0.34615565734E+02  0.28542442031E+02 -0.40255498260E+01  0.46142318303E+02  0.10000004942E+02 0.  0.
         12    1    1    2    0    0  0.34615565734E+02 -0.28542442031E+02  0.40255498260E+01  0.45045681697E+02  0.00000000000E+00 0. -1.
         11    1    3    3    0    0 -0.10302335629E+02  0.11096056977E+02  0.18857355302E+01  0.15258328827E+02  0.51100000000E-03 0. -1.
        -11    1    3    3    0    0 -0.96437385633E+01  0.74526252418E+01 -0.48002160307E+01  0.13099060679E+02  0.51100000000E-03 0.  1.
        -12    1    3    3    0    0 -0.14669491541E+02  0.99937598121E+01 -0.11110693255E+01  0.17784928797E+02  0.00000000000E+00 0.  1.
</event>
<event>
 7    1  0.1541902E-008  0.4614232E+02  0.7816164E-02  0.1320468E+00
        -11   -1    0    0    0    0  0.00000000000E+00  0.00000000000E+00  0.45593999997E+02  0.45594000000E+02  0.51100000000E-03 0.  1.
         11   -1    0    0    0    0 -0.00000000000E+00 -0.00000000000E+00 -0.45593999997E+02  0.45594000000E+02  0.51100000000E-03 0. -1.
    9900012    2    1    2    0    0 -0.13497281779E+01 -0.38538441470E+02  0.23282617566E+02  0.46142317434E+02  0.99999970205E+01 0.  0.
         12    1    1    2    0    0  0.13497281779E+01  0.38538441470E+02 -0.23282617566E+02  0.45045682566E+02  0.00000000000E+00 0. -1.
         11    1    3    3    0    0 -0.20696376177E+01 -0.69425208484E+01  0.76689506494E+01  0.10549635061E+02  0.51100000000E-03 0. -1.
        -11    1    3    3    0    0  0.45990003356E-01 -0.88270814485E+01  0.69004696060E+01  0.11204283245E+02  0.51100000000E-03 0.  1.
        -12    1    3    3    0    0  0.67391943641E+00 -0.22768839173E+02  0.87131973108E+01  0.24388399129E+02  0.00000000000E+00 0.  1.
</event>
<event>
 7    1  0.1541902E-008  0.4614232E+02  0.7816164E-02  0.1320468E+00
        -11   -1    0    0    0    0  0.00000000000E+00  0.00000000000E+00  0.45593999997E+02  0.45594000000E+02  0.51100000000E-03 0. -1.
         11   -1    0    0    0    0 -0.00000000000E+00 -0.00000000000E+00 -0.45593999997E+02  0.45594000000E+02  0.51100000000E-03 0.  1.
    9900012    2    1    2    0    0 -0.17576320614E+02 -0.30080400433E+02  0.28554438184E+02  0.46142317892E+02  0.10000001194E+02 0.  0.
         12    1    1    2    0    0  0.17576320614E+02  0.30080400433E+02 -0.28554438184E+02  0.45045682108E+02  0.00000000000E+00 0. -1.
         11    1    3    3    0    0 -0.53819173667E+00 -0.12427014866E+01  0.20858865515E+01  0.24869419570E+01  0.51100000000E-03 0. -1.
        -11    1    3    3    0    0 -0.70277150912E+01 -0.62869782324E+01  0.11197826350E+02  0.14639200454E+02  0.51100000000E-03 0.  1.
        -12    1    3    3    0    0 -0.10010413786E+02 -0.22550720714E+02  0.15270725283E+02  0.29016175482E+02  0.00000000000E+00 0.  1.
</event>
<event>
 7    1  0.1541902E-008  0.4614232E+02  0.7816164E-02  0.1320468E+00
        -11   -1    0    0    0    0  0.00000000000E+00  0.00000000000E+00  0.45593999997E+02  0.45594000000E+02  0.51100000000E-03 0. -1.
         11   -1    0    0    0    0 -0.00000000000E+00 -0.00000000000E+00 -0.45593999997E+02  0.45594000000E+02  0.51100000000E-03 0.  1.
    9900012    2    1    2    0    0 -0.39927597524E+02 -0.19022038253E+02  0.85476613121E+01  0.46142317662E+02  0.99999990989E+01 0.  0.
         12    1    1    2    0    0  0.39927597524E+02  0.19022038253E+02 -0.85476613121E+01  0.45045682338E+02  0.00000000000E+00 0. -1.
         11    1    3    3    0    0 -0.15136758577E+02 -0.91153622872E+01  0.66509347980E+01  0.18879783468E+02  0.51100000000E-03 0. -1.
        -11    1    3    3    0    0 -0.10518813486E+02 -0.30667485033E+01 -0.15480360590E+01  0.11065568193E+02  0.51100000000E-03 0.  1.
        -12    1    3    3    0    0 -0.14272025461E+02 -0.68399274626E+01  0.34447625731E+01  0.16196966001E+02  0.00000000000E+00 0.  1.
</event>
<event>
 7    1  0.1541902E-008  0.4614232E+02  0.7816164E-02  0.1320468E+00
        -11   -1    0    0    0    0  0.00000000000E+00  0.00000000000E+00  0.45593999997E+02  0.45594000000E+02  0.51100000000E-03 0.  1.
         11   -1    0    0    0    0 -0.00000000000E+00 -0.00000000000E+00 -0.45593999997E+02  0.45594000000E+02  0.51100000000E-03 0. -1.
    9900012    2    1    2    0    0 -0.24787018569E+02  0.21639863297E+02  0.30764158551E+02  0.46142318471E+02  0.10000006475E+02 0.  0.
         12    1    1    2    0    0  0.24787018569E+02 -0.21639863297E+02 -0.30764158551E+02  0.45045681529E+02  0.00000000000E+00 0. -1.
         11    1    3    3    0    0  0.56978497490E+00  0.73292474604E+00  0.10916383899E+01  0.14330067119E+01  0.51100000000E-03 0. -1.
        -11    1    3    3    0    0 -0.11689324817E+02  0.69893059381E+01  0.15274656641E+02  0.20464746466E+02  0.51100000000E-03 0.  1.
         12    1    3    3    0    0 -0.13667478727E+02  0.13917632613E+02  0.14397863521E+02  0.24244565293E+02  0.00000000000E+00 0. -1.
</event>
<event>
 7    1  0.1541902E-008  0.4614232E+02  0.7816164E-02  0.1320468E+00
        -11   -1    0    0    0    0  0.00000000000E+00  0.00000000000E+00  0.45593999997E+02  0.45594000000E+02  0.51100000000E-03 0. -1.
         11   -1    0    0    0    0 -0.00000000000E+00 -0.00000000000E+00 -0.45593999997E+02  0.45594000000E+02  0.51100000000E-03 0.  1.
    9900012    2    1    2    0    0  0.39717429969E+02  0.18605579424E+02 -0.10269938153E+02  0.46142318090E+02  0.10000003000E+02 0.  0.
         12    1    1    2    0    0 -0.39717429969E+02 -0.18605579424E+02  0.10269938153E+02  0.45045681910E+02  0.00000000000E+00 0. -1.
         11    1    3    3    0    0  0.17450765683E+02  0.47575967510E+01 -0.79114057444E+01  0.19742195695E+02  0.51100000000E-03 0.  1.
        -11    1    3    3    0    0  0.19838021171E+02  0.12144099858E+02 -0.26896629759E+01  0.23414963859E+02  0.51100000000E-03 0. -1.
        -12    1    3    3    0    0  0.24286431159E+01  0.17038828144E+01  0.33113056765E+00  0.29851585356E+01  0.00000000000E+00 0.  1.
</event>
<event>
 7    1  0.1541902E-008  0.4614232E+02  0.7816164E-02  0.1320468E+00
        -11   -1    0    0    0    0  0.00000000000E+00  0.00000000000E+00  0.45593999997E+02  0.45594000000E+02  0.51100000000E-03 0. -1.
         11   -1    0    0    0    0 -0.00000000000E+00 -0.00000000000E+00 -0.45593999997E+02  0.45594000000E+02  0.51100000000E-03 0.  1.
    9900012    2    1    2    0    0 -0.24249007232E+02  0.51664686553E+01 -0.37608600473E+02  0.46142316748E+02  0.99999907637E+01 0.  0.
         12    1    1    2    0    0  0.24249007232E+02 -0.51664686553E+01  0.37608600473E+02  0.45045683252E+02  0.00000000000E+00 0. -1.
         11    1    3    3    0    0 -0.23882404920E+00  0.11842903011E+01 -0.62189408471E+01  0.63352037035E+01  0.51100000000E-03 0.  1.
        -11    1    3    3    0    0 -0.15549680414E+02  0.28353004858E+01 -0.18323768442E+02  0.24199007831E+02  0.51100000000E-03 0. -1.
        -12    1    3    3    0    0 -0.84605027689E+01  0.11468778685E+01 -0.13065891183E+02  0.15608105214E+02  0.00000000000E+00 0.  1.
</event>
<event>
 7    1  0.1541902E-008  0.4614232E+02  0.7816164E-02  0.1320468E+00
        -11   -1    0    0    0    0  0.00000000000E+00  0.00000000000E+00  0.45593999997E+02  0.45594000000E+02  0.51100000000E-03 0.  1.
         11   -1    0    0    0    0 -0.00000000000E+00 -0.00000000000E+00 -0.45593999997E+02  0.45594000000E+02  0.51100000000E-03 0. -1.
    9900012    2    1    2    0    0  0.21187875598E+02  0.39352518392E+02  0.56184284156E+01  0.46142317476E+02  0.99999974026E+01 0.  0.
         12    1    1    2    0    0 -0.21187875598E+02 -0.39352518392E+02 -0.56184284156E+01  0.45045682524E+02  0.00000000000E+00 0. -1.
         11    1    3    3    0    0  0.83056275193E+01  0.10262350769E+02 -0.21581196070E+01  0.13377472567E+02  0.51100000000E-03 0. -1.
        -11    1    3    3    0    0  0.32955825765E+01  0.79144677137E+01  0.17187465390E+01  0.87437837139E+01  0.51100000000E-03 0.  1.
         12    1    3    3    0    0  0.95866655026E+01  0.21175699910E+02  0.60578014836E+01  0.24021061195E+02  0.00000000000E+00 0. -1.
</event>
<event>
 7    1  0.1541902E-008  0.4614232E+02  0.7816164E-02  0.1320468E+00
        -11   -1    0    0    0    0  0.00000000000E+00  0.00000000000E+00  0.45593999997E+02  0.45594000000E+02  0.51100000000E-03 0.  1.
         11   -1    0    0    0    0 -0.00000000000E+00 -0.00000000000E+00 -0.45593999997E+02  0.45594000000E+02  0.51100000000E-03 0. -1.
    9900012    2    1    2    0    0 -0.28110242796E+02  0.17231013625E+02  0.30692344323E+02  0.46142316737E+02  0.99999906577E+01 0.  0.
         12    1    1    2    0    0  0.28110242796E+02 -0.17231013625E+02 -0.30692344323E+02  0.45045683263E+02  0.00000000000E+00 0. -1.
         11    1    3    3    0    0 -0.98090875249E+00  0.74400311892E+00  0.41930480987E+00  0.13005919446E+01  0.51100000000E-03 0. -1.
        -11    1    3    3    0    0 -0.87837447214E+01  0.39364574246E+01  0.39899546907E+01  0.10419674039E+02  0.51100000000E-03 0.  1.
        -12    1    3    3    0    0 -0.18345589322E+02  0.12550553081E+02  0.26283084823E+02  0.34422050753E+02  0.00000000000E+00 0.  1.
</event>
<event>
 7    1  0.1541902E-008  0.4614232E+02  0.7816164E-02  0.1320468E+00
        -11   -1    0    0    0    0  0.00000000000E+00  0.00000000000E+00  0.45593999997E+02  0.45594000000E+02  0.51100000000E-03 0.  1.
         11   -1    0    0    0    0 -0.00000000000E+00 -0.00000000000E+00 -0.45593999997E+02  0.45594000000E+02  0.51100000000E-03 0. -1.
    9900012    2    1    2    0    0  0.17082442791E+01  0.54515673591E+01  0.44681941295E+02  0.46142316932E+02  0.99999924390E+01 0.  0.
         12    1    1    2    0    0 -0.17082442791E+01 -0.54515673591E+01 -0.44681941295E+02  0.45045683068E+02  0.00000000000E+00 0. -1.
         11    1    3    3    0    0  0.26061673668E+01  0.59176677423E+01  0.20936911507E+02  0.21912671301E+02  0.51100000000E-03 0.  1.
        -11    1    3    3    0    0 -0.14785836330E+01 -0.12527064022E+01  0.38463287060E+01  0.43069394778E+01  0.51100000000E-03 0. -1.
         12    1    3    3    0    0  0.58066054531E+00  0.78660601905E+00  0.19898701082E+02  0.19922706153E+02  0.00000000000E+00 0. -1.
</event>
<event>
 7    1  0.1541902E-008  0.4614232E+02  0.7816164E-02  0.1320468E+00
        -11   -1    0    0    0    0  0.00000000000E+00  0.00000000000E+00  0.45593999997E+02  0.45594000000E+02  0.51100000000E-03 0. -1.
         11   -1    0    0    0    0 -0.00000000000E+00 -0.00000000000E+00 -0.45593999997E+02  0.45594000000E+02  0.51100000000E-03 0.  1.
    9900012    2    1    2    0    0 -0.29174137737E+02 -0.19255164478E+02 -0.28411649243E+02  0.46142317804E+02  0.10000000392E+02 0.  0.
         12    1    1    2    0    0  0.29174137737E+02  0.19255164478E+02  0.28411649243E+02  0.45045682196E+02  0.00000000000E+00 0. -1.
         11    1    3    3    0    0 -0.47950815210E+01 -0.48355600540E+01 -0.88275438797E+01  0.11149034893E+02  0.51100000000E-03 0. -1.
        -11    1    3    3    0    0 -0.12954273437E+02 -0.10984119378E+02 -0.10171530018E+02  0.19797073065E+02  0.51100000000E-03 0.  1.
        -12    1    3    3    0    0 -0.11424782780E+02 -0.34354850462E+01 -0.94125753451E+01  0.15196209846E+02  0.00000000000E+00 0.  1.
</event>
<event>
 7    1  0.1541902E-008  0.4614232E+02  0.7816164E-02  0.1320468E+00
        -11   -1    0    0    0    0  0.00000000000E+00  0.00000000000E+00  0.45593999997E+02  0.45594000000E+02  0.51100000000E-03 0.  1.
         11   -1    0    0    0    0 -0.00000000000E+00 -0.00000000000E+00 -0.45593999997E+02  0.45594000000E+02  0.51100000000E-03 0. -1.
    9900012    2    1    2    0    0 -0.31716467517E+02 -0.15733224602E+02  0.27850401073E+02  0.46142317542E+02  0.99999980019E+01 0.  0.
         12    1    1    2    0    0  0.31716467517E+02  0.15733224602E+02 -0.27850401073E+02  0.45045682458E+02  0.00000000000E+00 0. -1.
         11    1    3    3    0    0 -0.20029528546E+02 -0.10239836062E+02  0.21330463103E+02  0.31000401817E+02  0.51100000000E-03 0.  1.
        -11    1    3    3    0    0 -0.34495985478E+01 -0.55872903732E-01  0.27271352187E+00  0.34608127439E+01  0.51100000000E-03 0. -1.
         12    1    3    3    0    0 -0.82373404236E+01 -0.54375156367E+01  0.62472244486E+01  0.11681102982E+02  0.00000000000E+00 0. -1.
</event>
<event>
 7    1  0.1541902E-008  0.4614232E+02  0.7816164E-02  0.1320468E+00
        -11   -1    0    0    0    0  0.00000000000E+00  0.00000000000E+00  0.45593999997E+02  0.45594000000E+02  0.51100000000E-03 0.  1.
         11   -1    0    0    0    0 -0.00000000000E+00 -0.00000000000E+00 -0.45593999997E+02  0.45594000000E+02  0.51100000000E-03 0. -1.
    9900012    2    1    2    0    0 -0.23367447089E+02 -0.99819566837E+01  0.37194575521E+02  0.46142317733E+02  0.99999997461E+01 0.  0.
         12    1    1    2    0    0  0.23367447089E+02  0.99819566837E+01 -0.37194575521E+02  0.45045682267E+02  0.00000000000E+00 0. -1.
         11    1    3    3    0    0 -0.20774529928E+01  0.50499015671E+00  0.64360158116E+01  0.67818231903E+01  0.51100000000E-03 0. -1.
        -11    1    3    3    0    0 -0.52913817963E+01  0.21967884092E+00  0.71663626662E+01  0.89108772987E+01  0.51100000000E-03 0.  1.
         12    1    3    3    0    0 -0.15998612300E+02 -0.10706625681E+02  0.23592197043E+02  0.30449617244E+02  0.00000000000E+00 0. -1.
</event>
<event>
 7    1  0.1541902E-008  0.4614232E+02  0.7816164E-02  0.1320468E+00
        -11   -1    0    0    0    0  0.00000000000E+00  0.00000000000E+00  0.45593999997E+02  0.45594000000E+02  0.51100000000E-03 0. -1.
         11   -1    0    0    0    0 -0.00000000000E+00 -0.00000000000E+00 -0.45593999997E+02  0.45594000000E+02  0.51100000000E-03 0.  1.
    9900012    2    1    2    0    0 -0.52793412828E+01  0.44553366551E+02 -0.40298260727E+01  0.46142318591E+02  0.10000007568E+02 0.  0.
         12    1    1    2    0    0  0.52793412828E+01 -0.44553366551E+02  0.40298260727E+01  0.45045681409E+02  0.00000000000E+00 0. -1.
         11    1    3    3    0    0 -0.13384603756E+01  0.55661818279E+01  0.16563782696E+01  0.59596514622E+01  0.51100000000E-03 0. -1.
        -11    1    3    3    0    0 -0.49750758338E+01  0.15806878159E+02 -0.26363427166E+01  0.16779722282E+02  0.51100000000E-03 0.  1.
        -12    1    3    3    0    0  0.10341949266E+01  0.23180306564E+02 -0.30498616257E+01  0.23402944847E+02  0.00000000000E+00 0.  1.
</event>
<event>
 7    1  0.1541902E-008  0.4614232E+02  0.7816164E-02  0.1320468E+00
        -11   -1    0    0    0    0  0.00000000000E+00  0.00000000000E+00  0.45593999997E+02  0.45594000000E+02  0.51100000000E-03 0.  1.
         11   -1    0    0    0    0 -0.00000000000E+00 -0.00000000000E+00 -0.45593999997E+02  0.45594000000E+02  0.51100000000E-03 0. -1.
    9900012    2    1    2    0    0 -0.10603155830E+02  0.41926833102E+02 -0.12602664529E+02  0.46142318734E+02  0.10000008870E+02 0.  0.
         12    1    1    2    0    0  0.10603155830E+02 -0.41926833102E+02  0.12602664529E+02  0.45045681266E+02  0.00000000000E+00 0. -1.
         11    1    3    3    0    0  0.14048574070E+00 -0.39854766822E+00  0.35604087778E+00  0.55257746512E+00  0.51100000000E-03 0. -1.
        -11    1    3    3    0    0 -0.70988087482E+01  0.28497756081E+02 -0.77879868841E+01  0.30383678633E+02  0.51100000000E-03 0.  1.
         12    1    3    3    0    0 -0.36448328228E+01  0.13827624689E+02 -0.51707185225E+01  0.15206062636E+02  0.00000000000E+00 0. -1.
</event>
<event>
 7    1  0.1541902E-008  0.4614232E+02  0.7816164E-02  0.1320468E+00
        -11   -1    0    0    0    0  0.00000000000E+00  0.00000000000E+00  0.45593999997E+02  0.45594000000E+02  0.51100000000E-03 0. -1.
         11   -1    0    0    0    0 -0.00000000000E+00 -0.00000000000E+00 -0.45593999997E+02  0.45594000000E+02  0.51100000000E-03 0.  1.
    9900012    2    1    2    0    0  0.32361169262E+02  0.51751586999E+01 -0.30904463935E+02  0.46142318357E+02  0.10000005435E+02 0.  0.
         12    1    1    2    0    0 -0.32361169262E+02 -0.51751586999E+01  0.30904463935E+02  0.45045681643E+02  0.00000000000E+00 0. -1.
         11    1    3    3    0    0  0.12292246953E+02  0.37016036366E+01 -0.16588895863E+02  0.20976002261E+02  0.51100000000E-03 0. -1.
        -11    1    3    3    0    0  0.16472911100E+02  0.30694476452E+01 -0.11853555114E+02  0.20525230280E+02  0.51100000000E-03 0.  1.
         12    1    3    3    0    0  0.35960112088E+01 -0.15958925820E+01 -0.24620129586E+01  0.46410858164E+01  0.00000000000E+00 0. -1.
</event>
<event>
 7    1  0.1541902E-008  0.4614232E+02  0.7816164E-02  0.1320468E+00
        -11   -1    0    0    0    0  0.00000000000E+00  0.00000000000E+00  0.45593999997E+02  0.45594000000E+02  0.51100000000E-03 0.  1.
         11   -1    0    0    0    0 -0.00000000000E+00 -0.00000000000E+00 -0.45593999997E+02  0.45594000000E+02  0.51100000000E-03 0. -1.
    9900012    2    1    2    0    0 -0.42725334434E+02 -0.11881656610E+02 -0.79047833177E+01  0.46142316904E+02  0.99999921844E+01 0.  0.
         12    1    1    2    0    0  0.42725334434E+02  0.11881656610E+02  0.79047833177E+01  0.45045683096E+02  0.00000000000E+00 0. -1.
         11    1    3    3    0    0 -0.19856466259E+02 -0.30908218994E+01 -0.80139267662E+01  0.21634589314E+02  0.51100000000E-03 0. -1.
        -11    1    3    3    0    0 -0.20454758158E+02 -0.80559536923E+01  0.89362888335E-01  0.21984164919E+02  0.51100000000E-03 0.  1.
         12    1    3    3    0    0 -0.24141100173E+01 -0.73488101817E+00  0.19780560148E-01  0.25235626716E+01  0.00000000000E+00 0. -1.
</event>
<event>
 7    1  0.1541902E-008  0.4614232E+02  0.7816164E-02  0.1320468E+00
        -11   -1    0    0    0    0  0.00000000000E+00  0.00000000000E+00  0.45593999997E+02  0.45594000000E+02  0.51100000000E-03 0.  1.
         11   -1    0    0    0    0 -0.00000000000E+00 -0.00000000000E+00 -0.45593999997E+02  0.45594000000E+02  0.51100000000E-03 0. -1.
    9900012    2    1    2    0    0 -0.28526189620E+01  0.23922308064E+02  0.38061781276E+02  0.46142318165E+02  0.10000003683E+02 0.  0.
         12    1    1    2    0    0  0.28526189620E+01 -0.23922308064E+02 -0.38061781276E+02  0.45045681835E+02  0.00000000000E+00 0. -1.
         11    1    3    3    0    0  0.71534448510E+00  0.71536167168E+00  0.74914337687E+00  0.12588391930E+01  0.51100000000E-03 0. -1.
        -11    1    3    3    0    0 -0.40096044318E+01  0.20491768370E+02  0.26562268858E+02  0.33786737424E+02  0.51100000000E-03 0.  1.
        -12    1    3    3    0    0  0.44164098467E+00  0.27151780230E+01  0.10750369041E+02  0.11096741548E+02  0.00000000000E+00 0.  1.
</event>
<event>
 7    1  0.1541902E-008  0.4614232E+02  0.7816164E-02  0.1320468E+00
        -11   -1    0    0    0    0  0.00000000000E+00  0.00000000000E+00  0.45593999997E+02  0.45594000000E+02  0.51100000000E-03 0.  1.
         11   -1    0    0    0    0 -0.00000000000E+00 -0.00000000000E+00 -0.45593999997E+02  0.45594000000E+02  0.51100000000E-03 0. -1.
    9900012    2    1    2    0    0  0.29396035701E+02  0.13146641836E+02  0.31498451117E+02  0.46142317307E+02  0.99999958605E+01 0.  0.
         12    1    1    2    0    0 -0.29396035701E+02 -0.13146641836E+02 -0.31498451117E+02  0.45045682693E+02  0.00000000000E+00 0. -1.
         11    1    3    3    0    0  0.89608447033E+01  0.55460434227E+01  0.16032357400E+02  0.19185719155E+02  0.51100000000E-03 0. -1.
        -11    1    3    3    0    0  0.17810281810E+02  0.53681864915E+01  0.13552411644E+02  0.23015026091E+02  0.51100000000E-03 0.  1.
        -12    1    3    3    0    0  0.26249091879E+01  0.22324119217E+01  0.19136820728E+01  0.39415720606E+01  0.00000000000E+00 0.  1.
</event>
<event>
 7    1  0.1541902E-008  0.4614232E+02  0.7816164E-02  0.1320468E+00
        -11   -1    0    0    0    0  0.00000000000E+00  0.00000000000E+00  0.45593999997E+02  0.45594000000E+02  0.51100000000E-03 0.  1.
         11   -1    0    0    0    0 -0.00000000000E+00 -0.00000000000E+00 -0.45593999997E+02  0.45594000000E+02  0.51100000000E-03 0. -1.
    9900012    2    1    2    0    0 -0.23963929632E+02  0.24329400760E+02  0.29375563831E+02  0.46142318574E+02  0.10000007409E+02 0.  0.
         12    1    1    2    0    0  0.23963929632E+02 -0.24329400760E+02 -0.29375563831E+02  0.45045681426E+02  0.00000000000E+00 0. -1.
         11    1    3    3    0    0 -0.18075047089E+02  0.13185591540E+02  0.15968364682E+02  0.27487375691E+02  0.51100000000E-03 0. -1.
        -11    1    3    3    0    0 -0.42744051769E+01  0.69306946670E+01  0.65678721038E+01  0.10461453647E+02  0.51100000000E-03 0.  1.
         12    1    3    3    0    0 -0.16144773665E+01  0.42131145538E+01  0.68393270453E+01  0.81934892349E+01  0.00000000000E+00 0. -1.
</event>
<event>
 7    1  0.1541902E-008  0.4614232E+02  0.7816164E-02  0.1320468E+00
        -11   -1    0    0    0    0  0.00000000000E+00  0.00000000000E+00  0.45593999997E+02  0.45594000000E+02  0.51100000000E-03 0.  1.
         11   -1    0    0    0    0 -0.00000000000E+00 -0.00000000000E+00 -0.45593999997E+02  0.45594000000E+02  0.51100000000E-03 0. -1.
    9900012    2    1    2    0    0 -0.23540602333E+01  0.44925742677E+02 -0.22911941512E+01  0.46142317351E+02  0.99999962610E+01 0.  0.
         12    1    1    2    0    0  0.23540602333E+01 -0.44925742677E+02  0.22911941512E+01  0.45045682649E+02  0.00000000000E+00 0. -1.
         11    1    3    3    0    0  0.33794446267E+01  0.11177335845E+02 -0.19865681690E+01  0.11844827391E+02  0.51100000000E-03 0. -1.
        -11    1    3    3    0    0 -0.52510646071E+01  0.31151623211E+02 -0.84131583663E+00  0.31602296131E+02  0.51100000000E-03 0.  1.
        -12    1    3    3    0    0 -0.48244025285E+00  0.25967836212E+01  0.53668985440E+00  0.26951938284E+01  0.00000000000E+00 0.  1.
</event>
<event>
 7    1  0.1541902E-008  0.4614232E+02  0.7816164E-02  0.1320468E+00
        -11   -1    0    0    0    0  0.00000000000E+00  0.00000000000E+00  0.45593999997E+02  0.45594000000E+02  0.51100000000E-03 0.  1.
         11   -1    0    0    0    0 -0.00000000000E+00 -0.00000000000E+00 -0.45593999997E+02  0.45594000000E+02  0.51100000000E-03 0. -1.
    9900012    2    1    2    0    0 -0.22587019019E+02  0.20490156632E+02  0.33152579263E+02  0.46142318090E+02  0.10000003000E+02 0.  0.
         12    1    1    2    0    0  0.22587019019E+02 -0.20490156632E+02 -0.33152579263E+02  0.45045681910E+02  0.00000000000E+00 0. -1.
         11    1    3    3    0    0 -0.12976543581E+00  0.17073011788E+01  0.37800269523E+00  0.17534544996E+01  0.51100000000E-03 0. -1.
        -11    1    3    3    0    0 -0.21131089437E+02  0.18649536126E+02  0.32517288171E+02  0.43031409096E+02  0.51100000000E-03 0.  1.
        -12    1    3    3    0    0 -0.13261641464E+01  0.13331932698E+00  0.25728839613E+00  0.13574544946E+01  0.00000000000E+00 0.  1.
</event>
<event>
 7    1  0.1541902E-008  0.4614232E+02  0.7816164E-02  0.1320468E+00
        -11   -1    0    0    0    0  0.00000000000E+00  0.00000000000E+00  0.45593999997E+02  0.45594000000E+02  0.51100000000E-03 0.  1.
         11   -1    0    0    0    0 -0.00000000000E+00 -0.00000000000E+00 -0.45593999997E+02  0.45594000000E+02  0.51100000000E-03 0. -1.
    9900012    2    1    2    0    0  0.43786086944E+00 -0.25672148848E+02  0.37011653038E+02  0.46142318639E+02  0.10000008007E+02 0.  0.
         12    1    1    2    0    0 -0.43786086944E+00  0.25672148848E+02 -0.37011653038E+02  0.45045681361E+02  0.00000000000E+00 0. -1.
         11    1    3    3    0    0 -0.20205456062E+00  0.13476825874E+00  0.52242056486E-01  0.24843112248E+00  0.51100000000E-03 0. -1.
        -11    1    3    3    0    0  0.33009129710E+01 -0.59696523753E+01  0.63374527717E+01  0.93110731830E+01  0.51100000000E-03 0.  1.
        -12    1    3    3    0    0 -0.26609975410E+01 -0.19837264732E+02  0.30621958210E+02  0.36582814334E+02  0.00000000000E+00 0.  1.
</event>
<event>
 7    1  0.1541902E-008  0.4614232E+02  0.7816164E-02  0.1320468E+00
        -11   -1    0    0    0    0  0.00000000000E+00  0.00000000000E+00  0.45593999997E+02  0.45594000000E+02  0.51100000000E-03 0.  1.
         11   -1    0    0    0    0 -0.00000000000E+00 -0.00000000000E+00 -0.45593999997E+02  0.45594000000E+02  0.51100000000E-03 0. -1.
    9900012    2    1    2    0    0 -0.31443414871E+02 -0.31549692343E+02  0.67113275371E+01  0.46142319375E+02  0.10000014714E+02 0.  0.
         12    1    1    2    0    0  0.31443414871E+02  0.31549692343E+02 -0.67113275371E+01  0.45045680625E+02  0.00000000000E+00 0. -1.
         11    1    3    3    0    0 -0.83347079831E+01 -0.63361939059E+01 -0.59576200475E+00  0.10486641169E+02  0.51100000000E-03 0. -1.
        -11    1    3    3    0    0 -0.16329053190E+01  0.59382548349E-01  0.93929645311E+00  0.18847238937E+01  0.51100000000E-03 0.  1.
        -12    1    3    3    0    0 -0.21475801569E+02 -0.25272880985E+02  0.63677930888E+01  0.33770954312E+02  0.00000000000E+00 0.  1.
</event>
<event>
 7    1  0.1541902E-008  0.4614232E+02  0.7816164E-02  0.1320468E+00
        -11   -1    0    0    0    0  0.00000000000E+00  0.00000000000E+00  0.45593999997E+02  0.45594000000E+02  0.51100000000E-03 0.  1.
         11   -1    0    0    0    0 -0.00000000000E+00 -0.00000000000E+00 -0.45593999997E+02  0.45594000000E+02  0.51100000000E-03 0. -1.
    9900012    2    1    2    0    0 -0.42575475530E+02 -0.10512231574E+02  0.10292489855E+02  0.46142317890E+02  0.10000001179E+02 0.  0.
         12    1    1    2    0    0  0.42575475530E+02  0.10512231574E+02 -0.10292489855E+02  0.45045682110E+02  0.00000000000E+00 0. -1.
         11    1    3    3    0    0 -0.30468929366E+02 -0.62835883060E+01  0.82806476584E+01  0.32193295336E+02  0.51100000000E-03 0. -1.
        -11    1    3    3    0    0 -0.99919419434E+01 -0.52725620523E+01  0.24244723299E+01  0.11554950486E+02  0.51100000000E-03 0.  1.
         12    1    3    3    0    0 -0.21146042213E+01  0.10439187846E+01 -0.41263013308E+00  0.23940720683E+01  0.00000000000E+00 0. -1.
</event>
<event>
 7    1  0.1541902E-008  0.4614232E+02  0.7816164E-02  0.1320468E+00
        -11   -1    0    0    0    0  0.00000000000E+00  0.00000000000E+00  0.45593999997E+02  0.45594000000E+02  0.51100000000E-03 0.  1.
         11   -1    0    0    0    0 -0.00000000000E+00 -0.00000000000E+00 -0.45593999997E+02  0.45594000000E+02  0.51100000000E-03 0. -1.
    9900012    2    1    2    0    0 -0.26144212049E+02  0.27608307757E+02  0.24153159915E+02  0.46142316359E+02  0.99999872113E+01 0.  0.
         12    1    1    2    0    0  0.26144212049E+02 -0.27608307757E+02 -0.24153159915E+02  0.45045683641E+02  0.00000000000E+00 0. -1.
         11    1    3    3    0    0 -0.93331760599E+01  0.66856442323E+01  0.32337004222E+01  0.11927398411E+02  0.51100000000E-03 0. -1.
        -11    1    3    3    0    0 -0.13867470583E+02  0.14926010138E+02  0.15169226907E+02  0.25400747317E+02  0.51100000000E-03 0.  1.
         12    1    3    3    0    0 -0.29435654058E+01  0.59966533860E+01  0.57502325852E+01  0.88141706312E+01  0.00000000000E+00 0. -1.
</event>
<event>
 7    1  0.1541902E-008  0.4614232E+02  0.7816164E-02  0.1320468E+00
        -11   -1    0    0    0    0  0.00000000000E+00  0.00000000000E+00  0.45593999997E+02  0.45594000000E+02  0.51100000000E-03 0. -1.
         11   -1    0    0    0    0 -0.00000000000E+00 -0.00000000000E+00 -0.45593999997E+02  0.45594000000E+02  0.51100000000E-03 0.  1.
    9900012    2    1    2    0    0  0.35778132667E+02 -0.10303813553E+02 -0.25354883766E+02  0.46142317836E+02  0.10000000680E+02 0.  0.
         12    1    1    2    0    0 -0.35778132667E+02  0.10303813553E+02  0.25354883766E+02  0.45045682164E+02  0.00000000000E+00 0. -1.
         11    1    3    3    0    0  0.75872983552E+01 -0.18559346049E+01 -0.32304463860E+01  0.84526548316E+01  0.51100000000E-03 0. -1.
        -11    1    3    3    0    0  0.27675732090E+02 -0.65699071192E+01 -0.19801489913E+02  0.34658459708E+02  0.51100000000E-03 0.  1.
         12    1    3    3    0    0  0.51510222174E+00 -0.18779718293E+01 -0.23229474670E+01  0.30312032965E+01  0.00000000000E+00 0. -1.
</event>
<event>
 7    1  0.1541902E-008  0.4614232E+02  0.7816164E-02  0.1320468E+00
        -11   -1    0    0    0    0  0.00000000000E+00  0.00000000000E+00  0.45593999997E+02  0.45594000000E+02  0.51100000000E-03 0. -1.
         11   -1    0    0    0    0 -0.00000000000E+00 -0.00000000000E+00 -0.45593999997E+02  0.45594000000E+02  0.51100000000E-03 0.  1.
    9900012    2    1    2    0    0 -0.34715181761E+02  0.16562159400E+02 -0.23444923962E+02  0.46142318429E+02  0.10000006086E+02 0.  0.
         12    1    1    2    0    0  0.34715181761E+02 -0.16562159400E+02  0.23444923962E+02  0.45045681571E+02  0.00000000000E+00 0. -1.
         11    1    3    3    0    0 -0.17740578394E+02  0.33068146984E+01 -0.11321329440E+02  0.21303418641E+02  0.51100000000E-03 0. -1.
        -11    1    3    3    0    0 -0.37571521639E+01  0.17618241154E+01 -0.26750357325E+01  0.49372090322E+01  0.51100000000E-03 0.  1.
        -12    1    3    3    0    0 -0.13217451202E+02  0.11493520586E+02 -0.94485587887E+01  0.19901690756E+02  0.00000000000E+00 0.  1.
</event>
<event>
 7    1  0.1541902E-008  0.4614232E+02  0.7816164E-02  0.1320468E+00
        -11   -1    0    0    0    0  0.00000000000E+00  0.00000000000E+00  0.45593999997E+02  0.45594000000E+02  0.51100000000E-03 0.  1.
         11   -1    0    0    0    0 -0.00000000000E+00 -0.00000000000E+00 -0.45593999997E+02  0.45594000000E+02  0.51100000000E-03 0. -1.
    9900012    2    1    2    0    0  0.30014335581E-01 -0.32800917436E+02  0.30874138867E+02  0.46142317229E+02  0.99999951521E+01 0.  0.
         12    1    1    2    0    0 -0.30014335581E-01  0.32800917436E+02 -0.30874138867E+02  0.45045682771E+02  0.00000000000E+00 0. -1.
         11    1    3    3    0    0  0.80820619568E-01  0.44108698415E-01  0.28052912299E+00  0.29525311140E+00  0.51100000000E-03 0. -1.
        -11    1    3    3    0    0 -0.15029256372E+01 -0.33454723039E+00  0.84663021107E+00  0.17571255776E+01  0.51100000000E-03 0.  1.
        -12    1    3    3    0    0  0.14521193532E+01 -0.32510478904E+02  0.29746979532E+02  0.44089938540E+02  0.00000000000E+00 0.  1.
</event>
<event>
 7    1  0.1541902E-008  0.4614231E+02  0.7816164E-02  0.1320468E+00
        -11   -1    0    0    0    0  0.00000000000E+00  0.00000000000E+00  0.45593999997E+02  0.45594000000E+02  0.51100000000E-03 0. -1.
         11   -1    0    0    0    0 -0.00000000000E+00 -0.00000000000E+00 -0.45593999997E+02  0.45594000000E+02  0.51100000000E-03 0.  1.
    9900012    2    1    2    0    0 -0.29354819977E+02  0.21999990949E+02 -0.26142087836E+02  0.46142314146E+02  0.99999670328E+01 0.  0.
         12    1    1    2    0    0  0.29354819977E+02 -0.21999990949E+02  0.26142087836E+02  0.45045685854E+02  0.00000000000E+00 0. -1.
         11    1    3    3    0    0 -0.47940785358E+01  0.42288190076E+01 -0.75191549490E+01  0.98693358751E+01  0.51100000000E-03 0. -1.
        -11    1    3    3    0    0 -0.58011241178E+01  0.14952066566E+01 -0.57298107047E+01  0.82897174227E+01  0.51100000000E-03 0.  1.
        -12    1    3    3    0    0 -0.18759617323E+02  0.16275965285E+02 -0.12893122182E+02  0.27983260848E+02  0.00000000000E+00 0.  1.
</event>
<event>
 7    1  0.1541902E-008  0.4614232E+02  0.7816164E-02  0.1320468E+00
        -11   -1    0    0    0    0  0.00000000000E+00  0.00000000000E+00  0.45593999997E+02  0.45594000000E+02  0.51100000000E-03 0. -1.
         11   -1    0    0    0    0 -0.00000000000E+00 -0.00000000000E+00 -0.45593999997E+02  0.45594000000E+02  0.51100000000E-03 0.  1.
    9900012    2    1    2    0    0  0.47566420845E+01 -0.44752407097E+02 -0.19261441095E+01  0.46142316344E+02  0.99999870822E+01 0.  0.
         12    1    1    2    0    0 -0.47566420845E+01  0.44752407097E+02  0.19261441095E+01  0.45045683656E+02  0.00000000000E+00 0. -1.
         11    1    3    3    0    0 -0.14366324410E+01 -0.10845211643E+02 -0.31757863582E+01  0.11391582314E+02  0.51100000000E-03 0. -1.
        -11    1    3    3    0    0  0.16115753115E+01 -0.16025110818E+02 -0.10929154586E+01  0.16142980399E+02  0.51100000000E-03 0.  1.
         12    1    3    3    0    0  0.45816992140E+01 -0.17882084636E+02  0.23425577072E+01  0.18607753632E+02  0.00000000000E+00 0. -1.
</event>
<event>
 7    1  0.1541902E-008  0.4614232E+02  0.7816164E-02  0.1320468E+00
        -11   -1    0    0    0    0  0.00000000000E+00  0.00000000000E+00  0.45593999997E+02  0.45594000000E+02  0.51100000000E-03 0.  1.
         11   -1    0    0    0    0 -0.00000000000E+00 -0.00000000000E+00 -0.45593999997E+02  0.45594000000E+02  0.51100000000E-03 0. -1.
    9900012    2    1    2    0    0 -0.36089264063E+02 -0.48438239885E+01  0.26518217749E+02  0.46142317809E+02  0.10000000440E+02 0.  0.
         12    1    1    2    0    0  0.36089264063E+02  0.48438239885E+01 -0.26518217749E+02  0.45045682191E+02  0.00000000000E+00 0. -1.
         11    1    3    3    0    0 -0.50182479421E+01 -0.24395868973E+01  0.55602460685E+01  0.78772287793E+01  0.51100000000E-03 0. -1.
        -11    1    3    3    0    0 -0.22955252793E+02 -0.33769960479E+01  0.18658534670E+02  0.29773959250E+02  0.51100000000E-03 0.  1.
         12    1    3    3    0    0 -0.81157633277E+01  0.97275895672E+00  0.22994370098E+01  0.84911297800E+01  0.00000000000E+00 0. -1.
</event>
<event>
 7    1  0.1541902E-008  0.4614232E+02  0.7816164E-02  0.1320468E+00
        -11   -1    0    0    0    0  0.00000000000E+00  0.00000000000E+00  0.45593999997E+02  0.45594000000E+02  0.51100000000E-03 0.  1.
         11   -1    0    0    0    0 -0.00000000000E+00 -0.00000000000E+00 -0.45593999997E+02  0.45594000000E+02  0.51100000000E-03 0. -1.
    9900012    2    1    2    0    0  0.21292882208E+02  0.71354195183E+01  0.39048849306E+02  0.46142315672E+02  0.99999809507E+01 0.  0.
         12    1    1    2    0    0 -0.21292882208E+02 -0.71354195183E+01 -0.39048849306E+02  0.45045684328E+02  0.00000000000E+00 0. -1.
         11    1    3    3    0    0  0.95447308639E+01  0.11760899506E+01  0.11716195899E+02  0.15157648941E+02  0.51100000000E-03 0. -1.
        -11    1    3    3    0    0  0.11679930990E+02  0.60737006685E+01  0.21913539721E+02  0.25563916975E+02  0.51100000000E-03 0.  1.
         12    1    3    3    0    0  0.68220354388E-01 -0.11437110080E+00  0.54191136867E+01  0.54207497558E+01  0.00000000000E+00 0. -1.
</event>
<event>
 7    1  0.1541902E-008  0.4614232E+02  0.7816164E-02  0.1320468E+00
        -11   -1    0    0    0    0  0.00000000000E+00  0.00000000000E+00  0.45593999997E+02  0.45594000000E+02  0.51100000000E-03 0. -1.
         11   -1    0    0    0    0 -0.00000000000E+00 -0.00000000000E+00 -0.45593999997E+02  0.45594000000E+02  0.51100000000E-03 0.  1.
    9900012    2    1    2    0    0  0.80292432342E+01  0.44147991134E+02 -0.39496482579E+01  0.46142316639E+02  0.99999897682E+01 0.  0.
         12    1    1    2    0    0 -0.80292432342E+01 -0.44147991134E+02  0.39496482579E+01  0.45045683361E+02  0.00000000000E+00 0. -1.
         11    1    3    3    0    0 -0.12106970001E+01  0.10132801874E+02  0.89996969362E+00  0.10244481771E+02  0.51100000000E-03 0. -1.
        -11    1    3    3    0    0  0.82946922327E+01  0.31542548101E+02 -0.31833779483E+01  0.32769927607E+02  0.51100000000E-03 0.  1.
        -12    1    3    3    0    0  0.94524800167E+00  0.24726411589E+01 -0.16662400032E+01  0.31279072611E+01  0.00000000000E+00 0.  1.
</event>
<event>
 7    1  0.1541902E-008  0.4614232E+02  0.7816164E-02  0.1320468E+00
        -11   -1    0    0    0    0  0.00000000000E+00  0.00000000000E+00  0.45593999997E+02  0.45594000000E+02  0.51100000000E-03 0.  1.
         11   -1    0    0    0    0 -0.00000000000E+00 -0.00000000000E+00 -0.45593999997E+02  0.45594000000E+02  0.51100000000E-03 0. -1.
    9900012    2    1    2    0    0  0.16340012079E+02 -0.56698541643E+01  0.41592910980E+02  0.46142317801E+02  0.10000000366E+02 0.  0.
         12    1    1    2    0    0 -0.16340012079E+02  0.56698541643E+01 -0.41592910980E+02  0.45045682199E+02  0.00000000000E+00 0. -1.
         11    1    3    3    0    0  0.12188004283E+00 -0.18025283975E+01  0.13982282294E+01  0.22845143491E+01  0.51100000000E-03 0. -1.
        -11    1    3    3    0    0  0.14134556590E+02 -0.36551146488E+01  0.38461898323E+02  0.41139557313E+02  0.51100000000E-03 0.  1.
        -12    1    3    3    0    0  0.20835754463E+01 -0.21221111799E+00  0.17327844277E+01  0.27182461389E+01  0.00000000000E+00 0.  1.
</event>
<event>
 7    1  0.1541902E-008  0.4614232E+02  0.7816164E-02  0.1320468E+00
        -11   -1    0    0    0    0  0.00000000000E+00  0.00000000000E+00  0.45593999997E+02  0.45594000000E+02  0.51100000000E-03 0.  1.
         11   -1    0    0    0    0 -0.00000000000E+00 -0.00000000000E+00 -0.45593999997E+02  0.45594000000E+02  0.51100000000E-03 0. -1.
    9900012    2    1    2    0    0 -0.42991575433E+02  0.10201558759E+02 -0.87616308399E+01  0.46142317251E+02  0.99999953469E+01 0.  0.
         12    1    1    2    0    0  0.42991575433E+02 -0.10201558759E+02  0.87616308399E+01  0.45045682749E+02  0.00000000000E+00 0. -1.
         11    1    3    3    0    0 -0.22456483293E+01 -0.66558877201E+00 -0.46301801769E+00  0.23875365501E+01  0.51100000000E-03 0. -1.
        -11    1    3    3    0    0 -0.21342772492E+02  0.29228823843E+01 -0.10389490962E+01  0.21567025631E+02  0.51100000000E-03 0.  1.
        -12    1    3    3    0    0 -0.19403154612E+02  0.79442651470E+01 -0.72596637259E+01  0.22187755070E+02  0.00000000000E+00 0.  1.
</event>
<event>
 7    1  0.1541902E-008  0.4614232E+02  0.7816164E-02  0.1320468E+00
        -11   -1    0    0    0    0  0.00000000000E+00  0.00000000000E+00  0.45593999997E+02  0.45594000000E+02  0.51100000000E-03 0. -1.
         11   -1    0    0    0    0 -0.00000000000E+00 -0.00000000000E+00 -0.45593999997E+02  0.45594000000E+02  0.51100000000E-03 0.  1.
    9900012    2    1    2    0    0  0.10918007023E+02  0.26139582166E+02 -0.35023319735E+02  0.46142316984E+02  0.99999929098E+01 0.  0.
         12    1    1    2    0    0 -0.10918007023E+02 -0.26139582166E+02  0.35023319735E+02  0.45045683016E+02  0.00000000000E+00 0. -1.
         11    1    3    3    0    0  0.81998235160E+01  0.11405629591E+02 -0.15111231839E+02  0.20631888426E+02  0.51100000000E-03 0. -1.
        -11    1    3    3    0    0 -0.14659299234E+00 -0.13001403955E-01  0.29575435285E+00  0.33034745384E+00  0.51100000000E-03 0.  1.
        -12    1    3    3    0    0  0.28647764988E+01  0.14746953979E+02 -0.20207842249E+02  0.25180081104E+02  0.00000000000E+00 0.  1.
</event>
<event>
 7    1  0.1541902E-008  0.4614232E+02  0.7816164E-02  0.1320468E+00
        -11   -1    0    0    0    0  0.00000000000E+00  0.00000000000E+00  0.45593999997E+02  0.45594000000E+02  0.51100000000E-03 0.  1.
         11   -1    0    0    0    0 -0.00000000000E+00 -0.00000000000E+00 -0.45593999997E+02  0.45594000000E+02  0.51100000000E-03 0. -1.
    9900012    2    1    2    0    0  0.31899100028E+02 -0.30298627160E+02  0.96723356813E+01  0.46142317988E+02  0.10000002071E+02 0.  0.
         12    1    1    2    0    0 -0.31899100028E+02  0.30298627160E+02 -0.96723356813E+01  0.45045682012E+02  0.00000000000E+00 0. -1.
         11    1    3    3    0    0  0.59678175688E+01 -0.35822302886E+01  0.80928208324E+00  0.70072932097E+01  0.51100000000E-03 0. -1.
        -11    1    3    3    0    0  0.73292454205E+01 -0.44727177009E+01  0.48513678371E+01  0.98619882487E+01  0.51100000000E-03 0.  1.
        -12    1    3    3    0    0  0.18602037038E+02 -0.22243679171E+02  0.40116857610E+01  0.29273036530E+02  0.00000000000E+00 0.  1.
</event>
<event>
 7    1  0.1541902E-008  0.4614232E+02  0.7816164E-02  0.1320468E+00
        -11   -1    0    0    0    0  0.00000000000E+00  0.00000000000E+00  0.45593999997E+02  0.45594000000E+02  0.51100000000E-03 0.  1.
         11   -1    0    0    0    0 -0.00000000000E+00 -0.00000000000E+00 -0.45593999997E+02  0.45594000000E+02  0.51100000000E-03 0. -1.
    9900012    2    1    2    0    0 -0.31152225017E+01  0.53008768201E+01  0.44624091659E+02  0.46142318046E+02  0.10000002598E+02 0.  0.
         12    1    1    2    0    0  0.31152225017E+01 -0.53008768201E+01 -0.44624091659E+02  0.45045681954E+02  0.00000000000E+00 0. -1.
         11    1    3    3    0    0  0.10269770073E+00  0.63112890215E+01  0.23172973410E+02  0.24017277382E+02  0.51100000000E-03 0.  1.
        -11    1    3    3    0    0  0.74754173985E+00 -0.10984661041E+01  0.35690623076E+01  0.38083661131E+01  0.51100000000E-03 0. -1.
        -12    1    3    3    0    0 -0.39654619423E+01  0.88053902687E-01  0.17882055942E+02  0.18316674551E+02  0.00000000000E+00 0.  1.
</event>
<event>
 7    1  0.1541902E-008  0.4614232E+02  0.7816164E-02  0.1320468E+00
        -11   -1    0    0    0    0  0.00000000000E+00  0.00000000000E+00  0.45593999997E+02  0.45594000000E+02  0.51100000000E-03 0. -1.
         11   -1    0    0    0    0 -0.00000000000E+00 -0.00000000000E+00 -0.45593999997E+02  0.45594000000E+02  0.51100000000E-03 0.  1.
    9900012    2    1    2    0    0  0.35455867790E+02  0.10964136472E+01 -0.27763153277E+02  0.46142319147E+02  0.10000012635E+02 0.  0.
         12    1    1    2    0    0 -0.35455867790E+02 -0.10964136472E+01  0.27763153277E+02  0.45045680853E+02  0.00000000000E+00 0. -1.
         11    1    3    3    0    0  0.25036574734E+02 -0.20105216618E+01 -0.17759279509E+02  0.30761408952E+02  0.51100000000E-03 0.  1.
        -11    1    3    3    0    0  0.20373910649E+01 -0.69178963038E-01 -0.42938372983E+01  0.47531870450E+01  0.51100000000E-03 0. -1.
         12    1    3    3    0    0  0.83819019911E+01  0.31761142721E+01 -0.57100364696E+01  0.10627723149E+02  0.00000000000E+00 0. -1.
</event>
<event>
 7    1  0.1541902E-008  0.4614232E+02  0.7816164E-02  0.1320468E+00
        -11   -1    0    0    0    0  0.00000000000E+00  0.00000000000E+00  0.45593999997E+02  0.45594000000E+02  0.51100000000E-03 0.  1.
         11   -1    0    0    0    0 -0.00000000000E+00 -0.00000000000E+00 -0.45593999997E+02  0.45594000000E+02  0.51100000000E-03 0. -1.
    9900012    2    1    2    0    0 -0.29669874192E+02 -0.32685661552E+02  0.89699252883E+01  0.46142318017E+02  0.10000002331E+02 0.  0.
         12    1    1    2    0    0  0.29669874192E+02  0.32685661552E+02 -0.89699252883E+01  0.45045681983E+02  0.00000000000E+00 0. -1.
         11    1    3    3    0    0 -0.50892460001E+01 -0.37620142169E+01  0.46814833750E+01  0.78720685127E+01  0.51100000000E-03 0. -1.
        -11    1    3    3    0    0 -0.24052918628E+02 -0.28645527784E+02  0.44027231511E+01  0.37662887940E+02  0.51100000000E-03 0.  1.
        -12    1    3    3    0    0 -0.52770956400E+00 -0.27811955101E+00 -0.11428123780E+00  0.60736156439E+00  0.00000000000E+00 0.  1.
</event>
<event>
 7    1  0.1541902E-008  0.4614232E+02  0.7816164E-02  0.1320468E+00
        -11   -1    0    0    0    0  0.00000000000E+00  0.00000000000E+00  0.45593999997E+02  0.45594000000E+02  0.51100000000E-03 0.  1.
         11   -1    0    0    0    0 -0.00000000000E+00 -0.00000000000E+00 -0.45593999997E+02  0.45594000000E+02  0.51100000000E-03 0. -1.
    9900012    2    1    2    0    0 -0.43266563371E+02 -0.11222977022E+02  0.55823588727E+01  0.46142318190E+02  0.10000003910E+02 0.  0.
         12    1    1    2    0    0  0.43266563371E+02  0.11222977022E+02 -0.55823588727E+01  0.45045681810E+02  0.00000000000E+00 0. -1.
         11    1    3    3    0    0 -0.10617184518E+02 -0.93589837090E+00  0.19320450635E+01  0.10832050186E+02  0.51100000000E-03 0. -1.
        -11    1    3    3    0    0 -0.25545438608E+02 -0.59808408918E+01  0.54836250110E+01  0.26803172106E+02  0.51100000000E-03 0.  1.
         12    1    3    3    0    0 -0.71039402452E+01 -0.43062377596E+01 -0.18333112018E+01  0.85070958977E+01  0.00000000000E+00 0. -1.
</event>
<event>
 7    1  0.1541902E-008  0.4614232E+02  0.7816164E-02  0.1320468E+00
        -11   -1    0    0    0    0  0.00000000000E+00  0.00000000000E+00  0.45593999997E+02  0.45594000000E+02  0.51100000000E-03 0. -1.
         11   -1    0    0    0    0 -0.00000000000E+00 -0.00000000000E+00 -0.45593999997E+02  0.45594000000E+02  0.51100000000E-03 0.  1.
    9900012    2    1    2    0    0  0.26287155734E+02  0.17008920365E+02 -0.32385113520E+02  0.46142317563E+02  0.99999981906E+01 0.  0.
         12    1    1    2    0    0 -0.26287155734E+02 -0.17008920365E+02  0.32385113520E+02  0.45045682437E+02  0.00000000000E+00 0. -1.
         11    1    3    3    0    0  0.10576793991E+02  0.18101643721E+01 -0.10903256290E+02  0.15297916988E+02  0.51100000000E-03 0. -1.
        -11    1    3    3    0    0  0.12863442997E+02  0.13401740888E+02 -0.16589180928E+02  0.24905335748E+02  0.51100000000E-03 0.  1.
         12    1    3    3    0    0  0.28469187461E+01  0.17970151043E+01 -0.48926763007E+01  0.59390648267E+01  0.00000000000E+00 0. -1.
</event>
<event>
 7    1  0.1541902E-008  0.4614232E+02  0.7816164E-02  0.1320468E+00
        -11   -1    0    0    0    0  0.00000000000E+00  0.00000000000E+00  0.45593999997E+02  0.45594000000E+02  0.51100000000E-03 0.  1.
         11   -1    0    0    0    0 -0.00000000000E+00 -0.00000000000E+00 -0.45593999997E+02  0.45594000000E+02  0.51100000000E-03 0. -1.
    9900012    2    1    2    0    0 -0.41923496097E+02 -0.46571911435E+01  0.15806468946E+02  0.46142318577E+02  0.10000007441E+02 0.  0.
         12    1    1    2    0    0  0.41923496097E+02  0.46571911435E+01 -0.15806468946E+02  0.45045681423E+02  0.00000000000E+00 0. -1.
         11    1    3    3    0    0 -0.39985426838E+01 -0.28970290913E+01  0.36149285774E+01  0.61195449202E+01  0.51100000000E-03 0. -1.
        -11    1    3    3    0    0 -0.23605541115E+02 -0.27583444744E+01  0.76895022678E+01  0.24979160934E+02  0.51100000000E-03 0.  1.
         12    1    3    3    0    0 -0.14319412298E+02  0.99818242219E+00  0.45020381009E+01  0.15043612723E+02  0.00000000000E+00 0. -1.
</event>
<event>
 7    1  0.1541902E-008  0.4614232E+02  0.7816164E-02  0.1320468E+00
        -11   -1    0    0    0    0  0.00000000000E+00  0.00000000000E+00  0.45593999997E+02  0.45594000000E+02  0.51100000000E-03 0. -1.
         11   -1    0    0    0    0 -0.00000000000E+00 -0.00000000000E+00 -0.45593999997E+02  0.45594000000E+02  0.51100000000E-03 0.  1.
    9900012    2    1    2    0    0  0.11759001626E+02 -0.35936581855E+02 -0.24482676587E+02  0.46142317771E+02  0.10000000088E+02 0.  0.
         12    1    1    2    0    0 -0.11759001626E+02  0.35936581855E+02  0.24482676587E+02  0.45045682229E+02  0.00000000000E+00 0. -1.
         11    1    3    3    0    0  0.66660900965E+01 -0.29308334208E+02 -0.16591590336E+02  0.34332143559E+02  0.51100000000E-03 0. -1.
        -11    1    3    3    0    0  0.49527502143E+01 -0.67320431982E+01 -0.69990013210E+01  0.10901199937E+02  0.51100000000E-03 0.  1.
         12    1    3    3    0    0  0.14016131518E+00  0.10379555152E+00 -0.89208492960E+00  0.90897427489E+00  0.00000000000E+00 0. -1.
</event>
<event>
 7    1  0.1541902E-008  0.4614232E+02  0.7816164E-02  0.1320468E+00
        -11   -1    0    0    0    0  0.00000000000E+00  0.00000000000E+00  0.45593999997E+02  0.45594000000E+02  0.51100000000E-03 0.  1.
         11   -1    0    0    0    0 -0.00000000000E+00 -0.00000000000E+00 -0.45593999997E+02  0.45594000000E+02  0.51100000000E-03 0. -1.
    9900012    2    1    2    0    0 -0.15215075837E+02 -0.29267665281E+02  0.30676028347E+02  0.46142317867E+02  0.10000000966E+02 0.  0.
         12    1    1    2    0    0  0.15215075837E+02  0.29267665281E+02 -0.30676028347E+02  0.45045682133E+02  0.00000000000E+00 0. -1.
         11    1    3    3    0    0 -0.79403902121E+01 -0.11427400579E+02  0.82223469042E+01  0.16162990738E+02  0.51100000000E-03 0. -1.
        -11    1    3    3    0    0 -0.41237925562E+01 -0.11058166036E+02  0.17120073413E+02  0.20793884078E+02  0.51100000000E-03 0.  1.
         12    1    3    3    0    0 -0.31508930683E+01 -0.67820986653E+01  0.53336080298E+01  0.91854430513E+01  0.00000000000E+00 0. -1.
</event>
<event>
 7    1  0.1541902E-008  0.4614232E+02  0.7816164E-02  0.1320468E+00
        -11   -1    0    0    0    0  0.00000000000E+00  0.00000000000E+00  0.45593999997E+02  0.45594000000E+02  0.51100000000E-03 0.  1.
         11   -1    0    0    0    0 -0.00000000000E+00 -0.00000000000E+00 -0.45593999997E+02  0.45594000000E+02  0.51100000000E-03 0. -1.
    9900012    2    1    2    0    0  0.95817757438E+01  0.35843588525E+02  0.25544865959E+02  0.46142318280E+02  0.10000004732E+02 0.  0.
         12    1    1    2    0    0 -0.95817757438E+01 -0.35843588525E+02 -0.25544865959E+02  0.45045681720E+02  0.00000000000E+00 0. -1.
         11    1    3    3    0    0  0.18095008534E+01  0.53062329715E+01  0.63713193679E+01  0.84867020942E+01  0.51100000000E-03 0. -1.
        -11    1    3    3    0    0  0.71138529596E+01  0.26564086258E+02  0.13334968599E+02  0.30562705548E+02  0.51100000000E-03 0.  1.
        -12    1    3    3    0    0  0.65842193078E+00  0.39732692956E+01  0.58385779930E+01  0.70929106377E+01  0.00000000000E+00 0.  1.
</event>
<event>
 7    1  0.1541902E-008  0.4614232E+02  0.7816164E-02  0.1320468E+00
        -11   -1    0    0    0    0  0.00000000000E+00  0.00000000000E+00  0.45593999997E+02  0.45594000000E+02  0.51100000000E-03 0. -1.
         11   -1    0    0    0    0 -0.00000000000E+00 -0.00000000000E+00 -0.45593999997E+02  0.45594000000E+02  0.51100000000E-03 0.  1.
    9900012    2    1    2    0    0 -0.19158071377E+02  0.16871166681E+01 -0.40733714631E+02  0.46142316864E+02  0.99999918188E+01 0.  0.
         12    1    1    2    0    0  0.19158071377E+02 -0.16871166681E+01  0.40733714631E+02  0.45045683136E+02  0.00000000000E+00 0. -1.
         11    1    3    3    0    0 -0.97611442025E+01  0.44914328703E+01 -0.19402846435E+02  0.22179345243E+02  0.51100000000E-03 0. -1.
        -11    1    3    3    0    0 -0.95694902909E+01 -0.19105980862E+01 -0.20604356790E+02  0.22798356267E+02  0.51100000000E-03 0.  1.
        -12    1    3    3    0    0  0.17256311632E+00 -0.89371811593E+00 -0.72651140637E+00  0.11646153543E+01  0.00000000000E+00 0.  1.
</event>
<event>
 7    1  0.1541902E-008  0.4614232E+02  0.7816164E-02  0.1320468E+00
        -11   -1    0    0    0    0  0.00000000000E+00  0.00000000000E+00  0.45593999997E+02  0.45594000000E+02  0.51100000000E-03 0. -1.
         11   -1    0    0    0    0 -0.00000000000E+00 -0.00000000000E+00 -0.45593999997E+02  0.45594000000E+02  0.51100000000E-03 0.  1.
    9900012    2    1    2    0    0  0.33382695041E+01 -0.34773979455E+02 -0.28438351140E+02  0.46142317566E+02  0.99999982216E+01 0.  0.
         12    1    1    2    0    0 -0.33382695041E+01  0.34773979455E+02  0.28438351140E+02  0.45045682434E+02  0.00000000000E+00 0. -1.
         11    1    3    3    0    0 -0.12413873229E+01 -0.17377738411E+01 -0.39138864036E+00  0.21711945416E+01  0.51100000000E-03 0. -1.
        -11    1    3    3    0    0  0.22056208667E+01 -0.64463762045E+01 -0.84504837143E+01  0.10855008284E+02  0.51100000000E-03 0.  1.
        -12    1    3    3    0    0  0.23740359603E+01 -0.26589829409E+02 -0.19596478785E+02  0.33116114741E+02  0.00000000000E+00 0.  1.
</event>
<event>
 7    1  0.1541902E-008  0.4614232E+02  0.7816164E-02  0.1320468E+00
        -11   -1    0    0    0    0  0.00000000000E+00  0.00000000000E+00  0.45593999997E+02  0.45594000000E+02  0.51100000000E-03 0.  1.
         11   -1    0    0    0    0 -0.00000000000E+00 -0.00000000000E+00 -0.45593999997E+02  0.45594000000E+02  0.51100000000E-03 0. -1.
    9900012    2    1    2    0    0 -0.27942059904E+02 -0.32211971470E+02  0.14517010583E+02  0.46142318588E+02  0.10000007540E+02 0.  0.
         12    1    1    2    0    0  0.27942059904E+02  0.32211971470E+02 -0.14517010583E+02  0.45045681412E+02  0.00000000000E+00 0. -1.
         11    1    3    3    0    0 -0.21012709770E+02 -0.16916688441E+02  0.96426730168E+01  0.28647678141E+02  0.51100000000E-03 0. -1.
        -11    1    3    3    0    0 -0.27254705160E+01 -0.59555081349E+01  0.21975925378E+01  0.69083775158E+01  0.51100000000E-03 0.  1.
         12    1    3    3    0    0 -0.42038796172E+01 -0.93397748934E+01  0.26767450281E+01  0.10586262931E+02  0.00000000000E+00 0. -1.
</event>
<event>
 7    1  0.1541902E-008  0.4614231E+02  0.7816164E-02  0.1320468E+00
        -11   -1    0    0    0    0  0.00000000000E+00  0.00000000000E+00  0.45593999997E+02  0.45594000000E+02  0.51100000000E-03 0. -1.
         11   -1    0    0    0    0 -0.00000000000E+00 -0.00000000000E+00 -0.45593999997E+02  0.45594000000E+02  0.51100000000E-03 0.  1.
    9900012    2    1    2    0    0  0.75068952515E+01  0.42759685305E+02 -0.12015393094E+02  0.46142313914E+02  0.99999649229E+01 0.  0.
         12    1    1    2    0    0 -0.75068952515E+01 -0.42759685305E+02  0.12015393094E+02  0.45045686086E+02  0.00000000000E+00 0. -1.
         11    1    3    3    0    0  0.68615683577E+01  0.26594316143E+02 -0.97112991084E+01  0.29131565390E+02  0.51100000000E-03 0. -1.
        -11    1    3    3    0    0  0.83858669531E+00  0.47611334612E+01 -0.28134841689E+01  0.55935063163E+01  0.51100000000E-03 0.  1.
         12    1    3    3    0    0 -0.19325980145E+00  0.11404235701E+02  0.50939018376E+00  0.11417242208E+02  0.00000000000E+00 0. -1.
</event>
<event>
 7    1  0.1541902E-008  0.4614232E+02  0.7816164E-02  0.1320468E+00
        -11   -1    0    0    0    0  0.00000000000E+00  0.00000000000E+00  0.45593999997E+02  0.45594000000E+02  0.51100000000E-03 0.  1.
         11   -1    0    0    0    0 -0.00000000000E+00 -0.00000000000E+00 -0.45593999997E+02  0.45594000000E+02  0.51100000000E-03 0. -1.
    9900012    2    1    2    0    0 -0.54061903530E+01  0.23351042567E+02  0.38139420806E+02  0.46142317604E+02  0.99999985634E+01 0.  0.
         12    1    1    2    0    0  0.54061903530E+01 -0.23351042567E+02 -0.38139420806E+02  0.45045682396E+02  0.00000000000E+00 0. -1.
         11    1    3    3    0    0 -0.36367226977E+01  0.99904016293E+01  0.11412525517E+02  0.15597423365E+02  0.51100000000E-03 0. -1.
        -11    1    3    3    0    0 -0.27962745614E+01  0.11363275549E+02  0.25323450853E+02  0.27896600975E+02  0.51100000000E-03 0.  1.
         12    1    3    3    0    0  0.10268069062E+01  0.19973653894E+01  0.14034444366E+01  0.26482932632E+01  0.00000000000E+00 0. -1.
</event>
<event>
 7    1  0.1541902E-008  0.4614232E+02  0.7816164E-02  0.1320468E+00
        -11   -1    0    0    0    0  0.00000000000E+00  0.00000000000E+00  0.45593999997E+02  0.45594000000E+02  0.51100000000E-03 0.  1.
         11   -1    0    0    0    0 -0.00000000000E+00 -0.00000000000E+00 -0.45593999997E+02  0.45594000000E+02  0.51100000000E-03 0. -1.
    9900012    2    1    2    0    0  0.11722043498E+02 -0.42160896205E+02  0.10684848440E+02  0.46142318090E+02  0.10000002995E+02 0.  0.
         12    1    1    2    0    0 -0.11722043498E+02  0.42160896205E+02 -0.10684848440E+02  0.45045681910E+02  0.00000000000E+00 0. -1.
         11    1    3    3    0    0  0.19105474215E+01 -0.10252449797E+02  0.30250593020E+01  0.10858816801E+02  0.51100000000E-03 0. -1.
        -11    1    3    3    0    0 -0.47924688719E+00 -0.64594157078E+00 -0.96821725792E+00  0.12587148253E+01  0.51100000000E-03 0.  1.
        -12    1    3    3    0    0  0.10290742964E+02 -0.31262504838E+02  0.86280063961E+01  0.34024786463E+02  0.00000000000E+00 0.  1.
</event>
<event>
 7    1  0.1541902E-008  0.4614232E+02  0.7816164E-02  0.1320468E+00
        -11   -1    0    0    0    0  0.00000000000E+00  0.00000000000E+00  0.45593999997E+02  0.45594000000E+02  0.51100000000E-03 0. -1.
         11   -1    0    0    0    0 -0.00000000000E+00 -0.00000000000E+00 -0.45593999997E+02  0.45594000000E+02  0.51100000000E-03 0.  1.
    9900012    2    1    2    0    0  0.15674691087E+02 -0.35432131744E+02 -0.22977850445E+02  0.46142317502E+02  0.99999976414E+01 0.  0.
         12    1    1    2    0    0 -0.15674691087E+02  0.35432131744E+02  0.22977850445E+02  0.45045682498E+02  0.00000000000E+00 0. -1.
         11    1    3    3    0    0  0.19639954567E+01 -0.13464754848E+02 -0.10124627874E+02  0.16960689582E+02  0.51100000000E-03 0. -1.
        -11    1    3    3    0    0  0.59786730742E+01 -0.12489307816E+02 -0.82137758972E+01  0.16099486209E+02  0.51100000000E-03 0.  1.
         12    1    3    3    0    0  0.77320225567E+01 -0.94780690800E+01 -0.46394466739E+01  0.13082141711E+02  0.00000000000E+00 0. -1.
</event>
<event>
 7    1  0.1541902E-008  0.4614232E+02  0.7816164E-02  0.1320468E+00
        -11   -1    0    0    0    0  0.00000000000E+00  0.00000000000E+00  0.45593999997E+02  0.45594000000E+02  0.51100000000E-03 0.  1.
         11   -1    0    0    0    0 -0.00000000000E+00 -0.00000000000E+00 -0.45593999997E+02  0.45594000000E+02  0.51100000000E-03 0. -1.
    9900012    2    1    2    0    0  0.34220945783E+00  0.32299994576E+02  0.31395964801E+02  0.46142319156E+02  0.10000012717E+02 0.  0.
         12    1    1    2    0    0 -0.34220945783E+00 -0.32299994576E+02 -0.31395964801E+02  0.45045680844E+02  0.00000000000E+00 0. -1.
         11    1    3    3    0    0  0.16792662960E+01  0.29573255208E+01  0.36801806634E+01  0.50109319996E+01  0.51100000000E-03 0.  1.
        -11    1    3    3    0    0  0.18578493155E+01  0.37806665631E+01  0.65638451885E+01  0.77993017418E+01  0.51100000000E-03 0. -1.
         12    1    3    3    0    0 -0.31949061537E+01  0.25562002492E+02  0.21151938949E+02  0.33332085414E+02  0.00000000000E+00 0. -1.
</event>
<event>
 7    1  0.1541902E-008  0.4614232E+02  0.7816164E-02  0.1320468E+00
        -11   -1    0    0    0    0  0.00000000000E+00  0.00000000000E+00  0.45593999997E+02  0.45594000000E+02  0.51100000000E-03 0.  1.
         11   -1    0    0    0    0 -0.00000000000E+00 -0.00000000000E+00 -0.45593999997E+02  0.45594000000E+02  0.51100000000E-03 0. -1.
    9900012    2    1    2    0    0 -0.30675437498E+02  0.27376408152E+02  0.18402807680E+02  0.46142317415E+02  0.99999968439E+01 0.  0.
         12    1    1    2    0    0  0.30675437498E+02 -0.27376408152E+02 -0.18402807680E+02  0.45045682585E+02  0.00000000000E+00 0. -1.
         11    1    3    3    0    0 -0.90626759373E+01  0.30511696955E+01  0.50958621250E+01  0.10835568407E+02  0.51100000000E-03 0. -1.
        -11    1    3    3    0    0 -0.20175693478E+02  0.21889459992E+02  0.12921054141E+02  0.32452437604E+02  0.51100000000E-03 0.  1.
         12    1    3    3    0    0 -0.14370680827E+01  0.24357784652E+01  0.38589141443E+00  0.28543114037E+01  0.00000000000E+00 0. -1.
</event>
<event>
 7    1  0.1541902E-008  0.4614231E+02  0.7816164E-02  0.1320468E+00
        -11   -1    0    0    0    0  0.00000000000E+00  0.00000000000E+00  0.45593999997E+02  0.45594000000E+02  0.51100000000E-03 0.  1.
         11   -1    0    0    0    0 -0.00000000000E+00 -0.00000000000E+00 -0.45593999997E+02  0.45594000000E+02  0.51100000000E-03 0. -1.
    9900012    2    1    2    0    0  0.33234548875E+02  0.21099044020E+02  0.21895413480E+02  0.46142311761E+02  0.99999452875E+01 0.  0.
         12    1    1    2    0    0 -0.33234548875E+02 -0.21099044020E+02 -0.21895413480E+02  0.45045688239E+02  0.00000000000E+00 0. -1.
         11    1    3    3    0    0  0.41694253659E-01 -0.78504974886E+00  0.44166244736E+00  0.90172473488E+00  0.51100000000E-03 0. -1.
        -11    1    3    3    0    0  0.26708394151E+02  0.16506783321E+02  0.17296411185E+02  0.35846590548E+02  0.51100000000E-03 0.  1.
         12    1    3    3    0    0  0.64844604703E+01  0.53773104472E+01  0.41573398471E+01  0.93939964786E+01  0.00000000000E+00 0. -1.
</event>
<event>
 7    1  0.1541902E-008  0.4614232E+02  0.7816164E-02  0.1320468E+00
        -11   -1    0    0    0    0  0.00000000000E+00  0.00000000000E+00  0.45593999997E+02  0.45594000000E+02  0.51100000000E-03 0. -1.
         11   -1    0    0    0    0 -0.00000000000E+00 -0.00000000000E+00 -0.45593999997E+02  0.45594000000E+02  0.51100000000E-03 0.  1.
    9900012    2    1    2    0    0 -0.16306466596E+02  0.41285716943E+02 -0.76617418533E+01  0.46142316915E+02  0.99999922845E+01 0.  0.
         12    1    1    2    0    0  0.16306466596E+02 -0.41285716943E+02  0.76617418533E+01  0.45045683085E+02  0.00000000000E+00 0. -1.
         11    1    3    3    0    0 -0.44944506762E+01  0.17509412743E+02 -0.31325802417E+01  0.18346462348E+02  0.51100000000E-03 0. -1.
        -11    1    3    3    0    0 -0.42400780490E+00  0.66065830800E+01  0.32693837690E+00  0.66282434759E+01  0.51100000000E-03 0.  1.
        -12    1    3    3    0    0 -0.11388008115E+02  0.17169721121E+02 -0.48560999885E+01  0.21167611091E+02  0.00000000000E+00 0.  1.
</event>
<event>
 7    1  0.1541902E-008  0.4614232E+02  0.7816164E-02  0.1320468E+00
        -11   -1    0    0    0    0  0.00000000000E+00  0.00000000000E+00  0.45593999997E+02  0.45594000000E+02  0.51100000000E-03 0.  1.
         11   -1    0    0    0    0 -0.00000000000E+00 -0.00000000000E+00 -0.45593999997E+02  0.45594000000E+02  0.51100000000E-03 0. -1.
    9900012    2    1    2    0    0 -0.51896725110E+01  0.30209125321E+02  0.33008932166E+02  0.46142317008E+02  0.99999931325E+01 0.  0.
         12    1    1    2    0    0  0.51896725110E+01 -0.30209125321E+02 -0.33008932166E+02  0.45045682992E+02  0.00000000000E+00 0. -1.
         11    1    3    3    0    0  0.35378940961E+00  0.37403933547E+01  0.64298269365E+01  0.74470386120E+01  0.51100000000E-03 0.  1.
        -11    1    3    3    0    0 -0.15208263356E+01  0.88395305559E+00  0.38665787955E+01  0.42479074367E+01  0.51100000000E-03 0. -1.
        -12    1    3    3    0    0 -0.40226355849E+01  0.25584778911E+02  0.22712526434E+02  0.34447370959E+02  0.00000000000E+00 0.  1.
</event>
<event>
 7    1  0.1541902E-008  0.4614232E+02  0.7816164E-02  0.1320468E+00
        -11   -1    0    0    0    0  0.00000000000E+00  0.00000000000E+00  0.45593999997E+02  0.45594000000E+02  0.51100000000E-03 0.  1.
         11   -1    0    0    0    0 -0.00000000000E+00 -0.00000000000E+00 -0.45593999997E+02  0.45594000000E+02  0.51100000000E-03 0. -1.
    9900012    2    1    2    0    0 -0.14184403486E+02 -0.10816119077E+02  0.41363363163E+02  0.46142317118E+02  0.99999941375E+01 0.  0.
         12    1    1    2    0    0  0.14184403486E+02  0.10816119077E+02 -0.41363363163E+02  0.45045682882E+02  0.00000000000E+00 0. -1.
         11    1    3    3    0    0 -0.80880030020E+00 -0.28062736663E+01  0.21426559943E+01  0.36221961276E+01  0.51100000000E-03 0. -1.
        -11    1    3    3    0    0 -0.94246068668E+01 -0.79907650512E+01  0.27417010381E+02  0.30072711870E+02  0.51100000000E-03 0.  1.
        -12    1    3    3    0    0 -0.39509963192E+01 -0.19080359312E-01  0.11803696787E+02  0.12447409121E+02  0.00000000000E+00 0.  1.
</event>
<event>
 7    1  0.1541902E-008  0.4614232E+02  0.7816164E-02  0.1320468E+00
        -11   -1    0    0    0    0  0.00000000000E+00  0.00000000000E+00  0.45593999997E+02  0.45594000000E+02  0.51100000000E-03 0. -1.
         11   -1    0    0    0    0 -0.00000000000E+00 -0.00000000000E+00 -0.45593999997E+02  0.45594000000E+02  0.51100000000E-03 0.  1.
    9900012    2    1    2    0    0 -0.22590292009E+02  0.10950451281E+02 -0.37401600526E+02  0.46142318762E+02  0.10000009123E+02 0.  0.
         12    1    1    2    0    0  0.22590292009E+02 -0.10950451281E+02  0.37401600526E+02  0.45045681238E+02  0.00000000000E+00 0. -1.
         11    1    3    3    0    0 -0.77437868700E+00  0.16415911261E+01 -0.44009327974E+00  0.18676632813E+01  0.51100000000E-03 0. -1.
        -11    1    3    3    0    0 -0.44389328620E+01 -0.35380946916E+00 -0.58412555410E+01  0.73450372803E+01  0.51100000000E-03 0.  1.
         12    1    3    3    0    0 -0.17376980460E+02  0.96626696244E+01 -0.31120251705E+02  0.36929618200E+02  0.00000000000E+00 0. -1.
</event>
<event>
 7    1  0.1541902E-008  0.4614232E+02  0.7816164E-02  0.1320468E+00
        -11   -1    0    0    0    0  0.00000000000E+00  0.00000000000E+00  0.45593999997E+02  0.45594000000E+02  0.51100000000E-03 0. -1.
         11   -1    0    0    0    0 -0.00000000000E+00 -0.00000000000E+00 -0.45593999997E+02  0.45594000000E+02  0.51100000000E-03 0.  1.
    9900012    2    1    2    0    0  0.36384611014E+02 -0.12229432922E+02 -0.23573600179E+02  0.46142316814E+02  0.99999913667E+01 0.  0.
         12    1    1    2    0    0 -0.36384611014E+02  0.12229432922E+02  0.23573600179E+02  0.45045683186E+02  0.00000000000E+00 0. -1.
         11    1    3    3    0    0  0.75228502262E+01 -0.57686194858E+01 -0.74010661872E+01  0.12026887680E+02  0.51100000000E-03 0. -1.
        -11    1    3    3    0    0  0.11131791595E+02 -0.12417779294E+01 -0.86878880909E+01  0.14175267062E+02  0.51100000000E-03 0.  1.
        -12    1    3    3    0    0  0.17729969192E+02 -0.52190355072E+01 -0.74846459013E+01  0.19940162072E+02  0.00000000000E+00 0.  1.
</event>
<event>
 7    1  0.1541902E-008  0.4614232E+02  0.7816164E-02  0.1320468E+00
        -11   -1    0    0    0    0  0.00000000000E+00  0.00000000000E+00  0.45593999997E+02  0.45594000000E+02  0.51100000000E-03 0.  1.
         11   -1    0    0    0    0 -0.00000000000E+00 -0.00000000000E+00 -0.45593999997E+02  0.45594000000E+02  0.51100000000E-03 0. -1.
    9900012    2    1    2    0    0 -0.17370821702E+02  0.27402721110E+02  0.31248342571E+02  0.46142317806E+02  0.10000000413E+02 0.  0.
         12    1    1    2    0    0  0.17370821702E+02 -0.27402721110E+02 -0.31248342571E+02  0.45045682194E+02  0.00000000000E+00 0. -1.
         11    1    3    3    0    0 -0.73814851176E+01  0.10839896969E+02  0.13807352200E+02  0.19042916370E+02  0.51100000000E-03 0.  1.
        -11    1    3    3    0    0 -0.10912774756E+02  0.16380837409E+02  0.15940935296E+02  0.25328519607E+02  0.51100000000E-03 0. -1.
         12    1    3    3    0    0  0.92343817090E+00  0.18198673171E+00  0.15000550749E+01  0.17708818294E+01  0.00000000000E+00 0. -1.
</event>
<event>
 7    1  0.1541902E-008  0.4614232E+02  0.7816164E-02  0.1320468E+00
        -11   -1    0    0    0    0  0.00000000000E+00  0.00000000000E+00  0.45593999997E+02  0.45594000000E+02  0.51100000000E-03 0. -1.
         11   -1    0    0    0    0 -0.00000000000E+00 -0.00000000000E+00 -0.45593999997E+02  0.45594000000E+02  0.51100000000E-03 0.  1.
    9900012    2    1    2    0    0  0.21967885889E+02 -0.38380671051E+02  0.85702723366E+01  0.46142317757E+02  0.99999999635E+01 0.  0.
         12    1    1    2    0    0 -0.21967885889E+02  0.38380671051E+02 -0.85702723366E+01  0.45045682243E+02  0.00000000000E+00 0. -1.
         11    1    3    3    0    0  0.15213598294E+02 -0.28395919194E+02  0.10109873476E+02  0.33763757817E+02  0.51100000000E-03 0. -1.
        -11    1    3    3    0    0  0.58064051210E+01 -0.96216448717E+01 -0.11713776209E+01  0.11298783840E+02  0.51100000000E-03 0.  1.
         12    1    3    3    0    0  0.94788247447E+00 -0.36310698536E+00 -0.36822351831E+00  0.10797761007E+01  0.00000000000E+00 0. -1.
</event>
<event>
 7    1  0.1541902E-008  0.4614232E+02  0.7816164E-02  0.1320468E+00
        -11   -1    0    0    0    0  0.00000000000E+00  0.00000000000E+00  0.45593999997E+02  0.45594000000E+02  0.51100000000E-03 0. -1.
         11   -1    0    0    0    0 -0.00000000000E+00 -0.00000000000E+00 -0.45593999997E+02  0.45594000000E+02  0.51100000000E-03 0.  1.
    9900012    2    1    2    0    0 -0.29078385001E+02 -0.31436977554E+02 -0.13974171264E+02  0.46142317693E+02  0.99999993779E+01 0.  0.
         12    1    1    2    0    0  0.29078385001E+02  0.31436977554E+02  0.13974171264E+02  0.45045682307E+02  0.00000000000E+00 0. -1.
         11    1    3    3    0    0 -0.24748626638E+02 -0.26518510621E+02 -0.13658346358E+02  0.38759209893E+02  0.51100000000E-03 0. -1.
        -11    1    3    3    0    0 -0.27057794754E+01 -0.45371759302E+01  0.84628268796E+00  0.53500843582E+01  0.51100000000E-03 0.  1.
         12    1    3    3    0    0 -0.16239788880E+01 -0.38129100326E+00 -0.11621075934E+01  0.20330234421E+01  0.00000000000E+00 0. -1.
</event>
<event>
 7    1  0.1541902E-008  0.4614232E+02  0.7816164E-02  0.1320468E+00
        -11   -1    0    0    0    0  0.00000000000E+00  0.00000000000E+00  0.45593999997E+02  0.45594000000E+02  0.51100000000E-03 0. -1.
         11   -1    0    0    0    0 -0.00000000000E+00 -0.00000000000E+00 -0.45593999997E+02  0.45594000000E+02  0.51100000000E-03 0.  1.
    9900012    2    1    2    0    0  0.19176072237E+02  0.35912955991E+02 -0.19278262844E+02  0.46142316825E+02  0.99999914599E+01 0.  0.
         12    1    1    2    0    0 -0.19176072237E+02 -0.35912955991E+02  0.19278262844E+02  0.45045683175E+02  0.00000000000E+00 0. -1.
         11    1    3    3    0    0  0.84608236026E+01  0.12465547371E+02 -0.11011541222E+02  0.18660906935E+02  0.51100000000E-03 0. -1.
        -11    1    3    3    0    0  0.30404938854E+01  0.74505477836E+01 -0.35550831461E+00  0.80549147584E+01  0.51100000000E-03 0.  1.
         12    1    3    3    0    0  0.76747547489E+01  0.15996860836E+02 -0.79112133073E+01  0.19426495131E+02  0.00000000000E+00 0. -1.
</event>
<event>
 7    1  0.1541902E-008  0.4614232E+02  0.7816164E-02  0.1320468E+00
        -11   -1    0    0    0    0  0.00000000000E+00  0.00000000000E+00  0.45593999997E+02  0.45594000000E+02  0.51100000000E-03 0. -1.
         11   -1    0    0    0    0 -0.00000000000E+00 -0.00000000000E+00 -0.45593999997E+02  0.45594000000E+02  0.51100000000E-03 0.  1.
    9900012    2    1    2    0    0 -0.30178890744E+02  0.32241838317E+02 -0.88776032169E+01  0.46142318482E+02  0.10000006569E+02 0.  0.
         12    1    1    2    0    0  0.30178890744E+02 -0.32241838317E+02  0.88776032169E+01  0.45045681518E+02  0.00000000000E+00 0. -1.
         11    1    3    3    0    0 -0.92240350454E+00  0.41143428871E+01 -0.24479343343E+01  0.48755541618E+01  0.51100000000E-03 0. -1.
        -11    1    3    3    0    0 -0.60668643861E+01  0.39235996708E+01 -0.67630825195E+00  0.72566432301E+01  0.51100000000E-03 0.  1.
         12    1    3    3    0    0 -0.23189622853E+02  0.24203895759E+02 -0.57533606306E+01  0.34010121090E+02  0.00000000000E+00 0. -1.
</event>
<event>
 7    1  0.1541902E-008  0.4614232E+02  0.7816164E-02  0.1320468E+00
        -11   -1    0    0    0    0  0.00000000000E+00  0.00000000000E+00  0.45593999997E+02  0.45594000000E+02  0.51100000000E-03 0.  1.
         11   -1    0    0    0    0 -0.00000000000E+00 -0.00000000000E+00 -0.45593999997E+02  0.45594000000E+02  0.51100000000E-03 0. -1.
    9900012    2    1    2    0    0  0.82457406716E+01  0.26846842560E+02  0.35218863097E+02  0.46142317493E+02  0.99999975514E+01 0.  0.
         12    1    1    2    0    0 -0.82457406716E+01 -0.26846842560E+02 -0.35218863097E+02  0.45045682507E+02  0.00000000000E+00 0. -1.
         11    1    3    3    0    0  0.47044484079E+01  0.29429089023E+01  0.78920574172E+01  0.96476483232E+01  0.51100000000E-03 0. -1.
        -11    1    3    3    0    0  0.27418246937E+01  0.18477020641E+02  0.21791873290E+02  0.28701979656E+02  0.51100000000E-03 0.  1.
         12    1    3    3    0    0  0.79946756999E+00  0.54269130170E+01  0.55349323907E+01  0.77926895138E+01  0.00000000000E+00 0. -1.
</event>
<event>
 7    1  0.1541902E-008  0.4614232E+02  0.7816164E-02  0.1320468E+00
        -11   -1    0    0    0    0  0.00000000000E+00  0.00000000000E+00  0.45593999997E+02  0.45594000000E+02  0.51100000000E-03 0.  1.
         11   -1    0    0    0    0 -0.00000000000E+00 -0.00000000000E+00 -0.45593999997E+02  0.45594000000E+02  0.51100000000E-03 0. -1.
    9900012    2    1    2    0    0 -0.37098289835E+02 -0.17974869030E+02  0.18158593285E+02  0.46142317239E+02  0.99999952430E+01 0.  0.
         12    1    1    2    0    0  0.37098289835E+02  0.17974869030E+02 -0.18158593285E+02  0.45045682761E+02  0.00000000000E+00 0. -1.
         11    1    3    3    0    0 -0.18950731255E+02 -0.11552698374E+02  0.95393158535E+01  0.24157682050E+02  0.51100000000E-03 0. -1.
        -11    1    3    3    0    0 -0.10179467419E+02 -0.60628944093E+00  0.57691608818E+01  0.11716328835E+02  0.51100000000E-03 0.  1.
        -12    1    3    3    0    0 -0.79680911600E+01 -0.58158812149E+01  0.28501165493E+01  0.10268306354E+02  0.00000000000E+00 0.  1.
</event>
<event>
 7    1  0.1541902E-008  0.4614232E+02  0.7816164E-02  0.1320468E+00
        -11   -1    0    0    0    0  0.00000000000E+00  0.00000000000E+00  0.45593999997E+02  0.45594000000E+02  0.51100000000E-03 0.  1.
         11   -1    0    0    0    0 -0.00000000000E+00 -0.00000000000E+00 -0.45593999997E+02  0.45594000000E+02  0.51100000000E-03 0. -1.
    9900012    2    1    2    0    0 -0.22742027317E+02 -0.12301186119E+02  0.36886238956E+02  0.46142316403E+02  0.99999876167E+01 0.  0.
         12    1    1    2    0    0  0.22742027317E+02  0.12301186119E+02 -0.36886238956E+02  0.45045683597E+02  0.00000000000E+00 0. -1.
         11    1    3    3    0    0 -0.57169822716E+01 -0.61840672605E+00  0.42102195064E+01  0.71268689988E+01  0.51100000000E-03 0. -1.
        -11    1    3    3    0    0 -0.12234846229E-01  0.25048739524E+00  0.16761233015E+01  0.16947811687E+01  0.51100000000E-03 0.  1.
        -12    1    3    3    0    0 -0.17012810199E+02 -0.11933266788E+02  0.30999896148E+02  0.37320666236E+02  0.00000000000E+00 0.  1.
</event>
<event>
 7    1  0.1541902E-008  0.4614231E+02  0.7816164E-02  0.1320468E+00
        -11   -1    0    0    0    0  0.00000000000E+00  0.00000000000E+00  0.45593999997E+02  0.45594000000E+02  0.51100000000E-03 0.  1.
         11   -1    0    0    0    0 -0.00000000000E+00 -0.00000000000E+00 -0.45593999997E+02  0.45594000000E+02  0.51100000000E-03 0. -1.
    9900012    2    1    2    0    0 -0.33783228922E+02  0.23114584728E+02  0.18802213467E+02  0.46142314138E+02  0.99999669610E+01 0.  0.
         12    1    1    2    0    0  0.33783228922E+02 -0.23114584728E+02 -0.18802213467E+02  0.45045685862E+02  0.00000000000E+00 0. -1.
         11    1    3    3    0    0 -0.48333443701E+01  0.68217220413E+01  0.68197308807E+01  0.10789153765E+02  0.51100000000E-03 0. -1.
        -11    1    3    3    0    0 -0.17315477129E+02  0.95230169538E+01  0.62903548768E+01  0.20738422429E+02  0.51100000000E-03 0.  1.
         12    1    3    3    0    0 -0.11634407423E+02  0.67698457333E+01  0.56921277094E+01  0.14614737945E+02  0.00000000000E+00 0. -1.
</event>
<event>
 7    1  0.1541902E-008  0.4614232E+02  0.7816164E-02  0.1320468E+00
        -11   -1    0    0    0    0  0.00000000000E+00  0.00000000000E+00  0.45593999997E+02  0.45594000000E+02  0.51100000000E-03 0.  1.
         11   -1    0    0    0    0 -0.00000000000E+00 -0.00000000000E+00 -0.45593999997E+02  0.45594000000E+02  0.51100000000E-03 0. -1.
    9900012    2    1    2    0    0  0.33463606865E+01 -0.11327379527E+02  0.43469595984E+02  0.46142318389E+02  0.10000005728E+02 0.  0.
         12    1    1    2    0    0 -0.33463606865E+01  0.11327379527E+02 -0.43469595984E+02  0.45045681611E+02  0.00000000000E+00 0. -1.
         11    1    3    3    0    0  0.50820158957E+01 -0.11078671144E+02  0.27904967720E+02  0.30450797421E+02  0.51100000000E-03 0. -1.
        -11    1    3    3    0    0 -0.15896886837E+01 -0.43320155851E+00  0.14802299725E+02  0.14893718512E+02  0.51100000000E-03 0.  1.
         12    1    3    3    0    0 -0.14596652537E+00  0.18449317514E+00  0.76232853853E+00  0.79780245604E+00  0.00000000000E+00 0. -1.
</event>
<event>
 7    1  0.1541902E-008  0.4614232E+02  0.7816164E-02  0.1320468E+00
        -11   -1    0    0    0    0  0.00000000000E+00  0.00000000000E+00  0.45593999997E+02  0.45594000000E+02  0.51100000000E-03 0.  1.
         11   -1    0    0    0    0 -0.00000000000E+00 -0.00000000000E+00 -0.45593999997E+02  0.45594000000E+02  0.51100000000E-03 0. -1.
    9900012    2    1    2    0    0 -0.40440415251E+01  0.42312193730E+02  0.14914336258E+02  0.46142318341E+02  0.10000005288E+02 0.  0.
         12    1    1    2    0    0  0.40440415251E+01 -0.42312193730E+02 -0.14914336258E+02  0.45045681659E+02  0.00000000000E+00 0. -1.
         11    1    3    3    0    0 -0.11766139906E+00  0.10619055281E+02 -0.76341578995E-01  0.10619981524E+02  0.51100000000E-03 0. -1.
        -11    1    3    3    0    0 -0.44771665627E+01  0.20659511706E+02  0.92813888709E+01  0.23086892905E+02  0.51100000000E-03 0.  1.
         12    1    3    3    0    0  0.55078643665E+00  0.11033626743E+02  0.57092889657E+01  0.12435443912E+02  0.00000000000E+00 0. -1.
</event>
<event>
 7    1  0.1541902E-008  0.4614232E+02  0.7816164E-02  0.1320468E+00
        -11   -1    0    0    0    0  0.00000000000E+00  0.00000000000E+00  0.45593999997E+02  0.45594000000E+02  0.51100000000E-03 0. -1.
         11   -1    0    0    0    0 -0.00000000000E+00 -0.00000000000E+00 -0.45593999997E+02  0.45594000000E+02  0.51100000000E-03 0.  1.
    9900012    2    1    2    0    0 -0.30948347832E+02 -0.32604651383E+02 -0.28722808458E+01  0.46142317381E+02  0.99999965343E+01 0.  0.
         12    1    1    2    0    0  0.30948347832E+02  0.32604651383E+02  0.28722808458E+01  0.45045682619E+02  0.00000000000E+00 0. -1.
         11    1    3    3    0    0  0.32261101113E+00 -0.88771374972E+00 -0.19284716072E+00  0.96400407388E+00  0.51100000000E-03 0. -1.
        -11    1    3    3    0    0 -0.43152803990E+01 -0.20980714743E+01 -0.17857194753E+01  0.51197991307E+01  0.51100000000E-03 0.  1.
         12    1    3    3    0    0 -0.26955678444E+02 -0.29618866159E+02 -0.89371420987E+00  0.40058514176E+02  0.00000000000E+00 0. -1.
</event>
<event>
 7    1  0.1541902E-008  0.4614232E+02  0.7816164E-02  0.1320468E+00
        -11   -1    0    0    0    0  0.00000000000E+00  0.00000000000E+00  0.45593999997E+02  0.45594000000E+02  0.51100000000E-03 0.  1.
         11   -1    0    0    0    0 -0.00000000000E+00 -0.00000000000E+00 -0.45593999997E+02  0.45594000000E+02  0.51100000000E-03 0. -1.
    9900012    2    1    2    0    0 -0.41497619818E+02 -0.16843562125E+02  0.48327476856E+01  0.46142317790E+02  0.10000000259E+02 0.  0.
         12    1    1    2    0    0  0.41497619818E+02  0.16843562125E+02 -0.48327476856E+01  0.45045682210E+02  0.00000000000E+00 0. -1.
         11    1    3    3    0    0 -0.57894997202E+01 -0.19838480581E+01 -0.25108531741E+01  0.66150089986E+01  0.51100000000E-03 0. -1.
        -11    1    3    3    0    0 -0.45317284346E+01 -0.20242264094E+01  0.21721040700E+01  0.54177570556E+01  0.51100000000E-03 0.  1.
         12    1    3    3    0    0 -0.31176391663E+02 -0.12835487658E+02  0.51714967897E+01  0.34109551735E+02  0.00000000000E+00 0. -1.
</event>
<event>
 7    1  0.1541902E-008  0.4614232E+02  0.7816164E-02  0.1320468E+00
        -11   -1    0    0    0    0  0.00000000000E+00  0.00000000000E+00  0.45593999997E+02  0.45594000000E+02  0.51100000000E-03 0.  1.
         11   -1    0    0    0    0 -0.00000000000E+00 -0.00000000000E+00 -0.45593999997E+02  0.45594000000E+02  0.51100000000E-03 0. -1.
    9900012    2    1    2    0    0  0.17678702166E+02 -0.16897420165E+02  0.37829277543E+02  0.46142316989E+02  0.99999929597E+01 0.  0.
         12    1    1    2    0    0 -0.17678702166E+02  0.16897420165E+02 -0.37829277543E+02  0.45045683011E+02  0.00000000000E+00 0. -1.
         11    1    3    3    0    0  0.95502593488E+01 -0.60286568646E+01  0.13458624147E+02  0.17569482673E+02  0.51100000000E-03 0. -1.
        -11    1    3    3    0    0  0.46295946742E+01 -0.10396676329E+02  0.18887923422E+02  0.22051704628E+02  0.51100000000E-03 0.  1.
         12    1    3    3    0    0  0.34988481429E+01 -0.47208697107E+00  0.54827299740E+01  0.65211296877E+01  0.00000000000E+00 0. -1.
</event>
<event>
 7    1  0.9195232E-008  0.4614232E+02  0.7816164E-02  0.1320468E+00
        -11   -1    0    0    0    0  0.00000000000E+00  0.00000000000E+00  0.45593999997E+02  0.45594000000E+02  0.51100000000E-03 0.  1.
         11   -1    0    0    0    0 -0.00000000000E+00 -0.00000000000E+00 -0.45593999997E+02  0.45594000000E+02  0.51100000000E-03 0. -1.
    9900012    2    1    2    0    0  0.36045246800E+02  0.20908372195E+02  0.17108291716E+02  0.46142317741E+02  0.99999998191E+01 0.  0.
         12    1    1    2    0    0 -0.36045246800E+02 -0.20908372195E+02 -0.17108291716E+02  0.45045682259E+02  0.00000000000E+00 0. -1.
         11    1    3    3    0    0  0.80391115593E+01  0.87218093018E+01  0.22316807408E+01  0.12069700549E+02  0.51100000000E-03 0. -1.
        -11    1    3    3    0    0  0.27423846588E+02  0.11459894840E+02  0.14446058377E+02  0.33046711702E+02  0.51100000000E-03 0.  1.
        -12    1    3    3    0    0  0.58228865264E+00  0.72666805317E+00  0.43055259796E+00  0.10259054898E+01  0.00000000000E+00 0.  1.
</event>
<event>
 7    1  0.1541902E-008  0.4614232E+02  0.7816164E-02  0.1320468E+00
        -11   -1    0    0    0    0  0.00000000000E+00  0.00000000000E+00  0.45593999997E+02  0.45594000000E+02  0.51100000000E-03 0. -1.
         11   -1    0    0    0    0 -0.00000000000E+00 -0.00000000000E+00 -0.45593999997E+02  0.45594000000E+02  0.51100000000E-03 0.  1.
    9900012    2    1    2    0    0 -0.24180934899E+02  0.34660380471E+02 -0.15590187627E+02  0.46142317219E+02  0.99999950529E+01 0.  0.
         12    1    1    2    0    0  0.24180934899E+02 -0.34660380471E+02  0.15590187627E+02  0.45045682781E+02  0.00000000000E+00 0. -1.
         11    1    3    3    0    0 -0.80261721632E+01  0.12852065212E+02 -0.74763842463E+01  0.16896489028E+02  0.51100000000E-03 0. -1.
        -11    1    3    3    0    0 -0.12467194411E+02  0.20685178848E+02 -0.77919996167E+01  0.25377604669E+02  0.51100000000E-03 0.  1.
         12    1    3    3    0    0 -0.36875683253E+01  0.11231364112E+01 -0.32180376362E+00  0.38682235217E+01  0.00000000000E+00 0. -1.
</event>
<event>
 7    1  0.1541902E-008  0.4614232E+02  0.7816164E-02  0.1320468E+00
        -11   -1    0    0    0    0  0.00000000000E+00  0.00000000000E+00  0.45593999997E+02  0.45594000000E+02  0.51100000000E-03 0. -1.
         11   -1    0    0    0    0 -0.00000000000E+00 -0.00000000000E+00 -0.45593999997E+02  0.45594000000E+02  0.51100000000E-03 0.  1.
    9900012    2    1    2    0    0  0.20187469093E+02 -0.38485502857E+02 -0.11850979013E+02  0.46142317164E+02  0.99999945584E+01 0.  0.
         12    1    1    2    0    0 -0.20187469093E+02  0.38485502857E+02  0.11850979013E+02  0.45045682836E+02  0.00000000000E+00 0. -1.
         11    1    3    3    0    0  0.22712783131E+01 -0.11428164691E+02 -0.55089038790E+01  0.12888354263E+02  0.51100000000E-03 0. -1.
        -11    1    3    3    0    0  0.10098389608E+02 -0.16008562217E+02 -0.54172178204E+01  0.19687503298E+02  0.51100000000E-03 0.  1.
         12    1    3    3    0    0  0.78178011719E+01 -0.11048775949E+02 -0.92485731370E+00  0.13566459604E+02  0.00000000000E+00 0. -1.
</event>
<event>
 7    1  0.1541902E-008  0.4614232E+02  0.7816164E-02  0.1320468E+00
        -11   -1    0    0    0    0  0.00000000000E+00  0.00000000000E+00  0.45593999997E+02  0.45594000000E+02  0.51100000000E-03 0. -1.
         11   -1    0    0    0    0 -0.00000000000E+00 -0.00000000000E+00 -0.45593999997E+02  0.45594000000E+02  0.51100000000E-03 0.  1.
    9900012    2    1    2    0    0 -0.28902383551E+02 -0.34154723223E+02  0.52173408030E+01  0.46142317206E+02  0.99999949354E+01 0.  0.
         12    1    1    2    0    0  0.28902383551E+02  0.34154723223E+02 -0.52173408030E+01  0.45045682794E+02  0.00000000000E+00 0. -1.
         11    1    3    3    0    0 -0.69199065666E+00 -0.37451979607E+01 -0.10152455517E+01  0.39415837711E+01  0.51100000000E-03 0. -1.
        -11    1    3    3    0    0 -0.24942128879E+02 -0.28756444359E+02  0.54347826623E+01  0.38452304847E+02  0.51100000000E-03 0.  1.
        -12    1    3    3    0    0 -0.32682640155E+01 -0.16530809033E+01  0.79780369232E+00  0.37484285880E+01  0.00000000000E+00 0.  1.
</event>
<event>
 7    1  0.1541902E-008  0.4614232E+02  0.7816164E-02  0.1320468E+00
        -11   -1    0    0    0    0  0.00000000000E+00  0.00000000000E+00  0.45593999997E+02  0.45594000000E+02  0.51100000000E-03 0. -1.
         11   -1    0    0    0    0 -0.00000000000E+00 -0.00000000000E+00 -0.45593999997E+02  0.45594000000E+02  0.51100000000E-03 0.  1.
    9900012    2    1    2    0    0 -0.42485754413E+02 -0.12816990931E+02 -0.77329806324E+01  0.46142316811E+02  0.99999913317E+01 0.  0.
         12    1    1    2    0    0  0.42485754413E+02  0.12816990931E+02  0.77329806324E+01  0.45045683189E+02  0.00000000000E+00 0. -1.
         11    1    3    3    0    0 -0.22629330562E+02 -0.38089100204E+01 -0.51199135484E+01  0.23511867476E+02  0.51100000000E-03 0. -1.
        -11    1    3    3    0    0 -0.15190074999E+02 -0.42995227800E+01 -0.10634774130E+01  0.15822618591E+02  0.51100000000E-03 0.  1.
         12    1    3    3    0    0 -0.46663488519E+01 -0.47085581307E+01 -0.15495896710E+01  0.68078307430E+01  0.00000000000E+00 0. -1.
</event>
<event>
 7    1  0.1541902E-008  0.4614232E+02  0.7816164E-02  0.1320468E+00
        -11   -1    0    0    0    0  0.00000000000E+00  0.00000000000E+00  0.45593999997E+02  0.45594000000E+02  0.51100000000E-03 0.  1.
         11   -1    0    0    0    0 -0.00000000000E+00 -0.00000000000E+00 -0.45593999997E+02  0.45594000000E+02  0.51100000000E-03 0. -1.
    9900012    2    1    2    0    0  0.19560350388E+02  0.12708920136E+01  0.40557256336E+02  0.46142317462E+02  0.99999972711E+01 0.  0.
         12    1    1    2    0    0 -0.19560350388E+02 -0.12708920136E+01 -0.40557256336E+02  0.45045682538E+02  0.00000000000E+00 0. -1.
         11    1    3    3    0    0  0.17849012885E+02  0.16911496700E+01  0.34332004729E+02  0.38731560738E+02  0.51100000000E-03 0. -1.
        -11    1    3    3    0    0  0.15294430155E+01 -0.11481909213E+01  0.63662522648E+01  0.66473082138E+01  0.51100000000E-03 0.  1.
         12    1    3    3    0    0  0.18189448708E+00  0.72793326489E+00 -0.14100065777E+00  0.76344851042E+00  0.00000000000E+00 0. -1.
</event>
<event>
 7    1  0.1541902E-008  0.4614232E+02  0.7816164E-02  0.1320468E+00
        -11   -1    0    0    0    0  0.00000000000E+00  0.00000000000E+00  0.45593999997E+02  0.45594000000E+02  0.51100000000E-03 0.  1.
         11   -1    0    0    0    0 -0.00000000000E+00 -0.00000000000E+00 -0.45593999997E+02  0.45594000000E+02  0.51100000000E-03 0. -1.
    9900012    2    1    2    0    0 -0.59585796778E+01 -0.11168640597E+01  0.44635869194E+02  0.46142324560E+02  0.10000062001E+02 0.  0.
         12    1    1    2    0    0  0.59585796778E+01  0.11168640597E+01 -0.44635869194E+02  0.45045675440E+02  0.00000000000E+00 0. -1.
         11    1    3    3    0    0 -0.39772586963E+01 -0.45265806938E+01  0.37003705137E+02  0.37491101793E+02  0.51100000000E-03 0. -1.
        -11    1    3    3    0    0 -0.41232910778E+00  0.14204002077E+01  0.21231471961E+01  0.25875289990E+01  0.51100000000E-03 0.  1.
         12    1    3    3    0    0 -0.15689918737E+01  0.19893164264E+01  0.55090168607E+01  0.60636937683E+01  0.00000000000E+00 0. -1.
</event>
<event>
 7    1  0.1541902E-008  0.4614232E+02  0.7816164E-02  0.1320468E+00
        -11   -1    0    0    0    0  0.00000000000E+00  0.00000000000E+00  0.45593999997E+02  0.45594000000E+02  0.51100000000E-03 0.  1.
         11   -1    0    0    0    0 -0.00000000000E+00 -0.00000000000E+00 -0.45593999997E+02  0.45594000000E+02  0.51100000000E-03 0. -1.
    9900012    2    1    2    0    0  0.12006318224E+02  0.33378260774E+02  0.27764249805E+02  0.46142317223E+02  0.99999950919E+01 0.  0.
         12    1    1    2    0    0 -0.12006318224E+02 -0.33378260774E+02 -0.27764249805E+02  0.45045682777E+02  0.00000000000E+00 0. -1.
         11    1    3    3    0    0  0.31580586478E+00  0.15099242096E+01  0.29905029636E+01  0.33649238772E+01  0.51100000000E-03 0. -1.
        -11    1    3    3    0    0  0.10666222818E+02  0.31846118340E+02  0.24805578241E+02  0.41752368492E+02  0.51100000000E-03 0.  1.
         12    1    3    3    0    0  0.10242895408E+01  0.22218224330E-01 -0.31831399193E-01  0.10250248538E+01  0.00000000000E+00 0. -1.
</event>
<event>
 7    1  0.1541902E-008  0.4614232E+02  0.7816164E-02  0.1320468E+00
        -11   -1    0    0    0    0  0.00000000000E+00  0.00000000000E+00  0.45593999997E+02  0.45594000000E+02  0.51100000000E-03 0. -1.
         11   -1    0    0    0    0 -0.00000000000E+00 -0.00000000000E+00 -0.45593999997E+02  0.45594000000E+02  0.51100000000E-03 0.  1.
    9900012    2    1    2    0    0  0.15011096130E+02  0.41160484055E+02  0.10468766773E+02  0.46142317273E+02  0.99999955457E+01 0.  0.
         12    1    1    2    0    0 -0.15011096130E+02 -0.41160484055E+02 -0.10468766773E+02  0.45045682727E+02  0.00000000000E+00 0. -1.
         11    1    3    3    0    0  0.11669691626E+02  0.25836025008E+02  0.48173114568E+01  0.28755666934E+02  0.51100000000E-03 0. -1.
        -11    1    3    3    0    0 -0.11483097176E+01  0.56423196673E+01  0.22997629438E+01  0.62002658244E+01  0.51100000000E-03 0.  1.
         12    1    3    3    0    0  0.44897142214E+01  0.96821393790E+01  0.33516923721E+01  0.11186384514E+02  0.00000000000E+00 0. -1.
</event>
<event>
 7    1  0.1541902E-008  0.4614232E+02  0.7816164E-02  0.1320468E+00
        -11   -1    0    0    0    0  0.00000000000E+00  0.00000000000E+00  0.45593999997E+02  0.45594000000E+02  0.51100000000E-03 0.  1.
         11   -1    0    0    0    0 -0.00000000000E+00 -0.00000000000E+00 -0.45593999997E+02  0.45594000000E+02  0.51100000000E-03 0. -1.
    9900012    2    1    2    0    0 -0.28475138337E+02 -0.30077553370E+02  0.17709342053E+02  0.46142317454E+02  0.99999972040E+01 0.  0.
         12    1    1    2    0    0  0.28475138337E+02  0.30077553370E+02 -0.17709342053E+02  0.45045682546E+02  0.00000000000E+00 0. -1.
         11    1    3    3    0    0 -0.40009219046E+01 -0.98190005170E+00  0.16202690401E-01  0.41196803986E+01  0.51100000000E-03 0. -1.
        -11    1    3    3    0    0 -0.17760946352E+02 -0.19219341803E+02  0.12466177067E+02  0.28986891616E+02  0.51100000000E-03 0.  1.
         12    1    3    3    0    0 -0.67132700804E+01 -0.98763115155E+01  0.52269622956E+01  0.13035745439E+02  0.00000000000E+00 0. -1.
</event>
<event>
 7    1  0.1541902E-008  0.4614232E+02  0.7816164E-02  0.1320468E+00
        -11   -1    0    0    0    0  0.00000000000E+00  0.00000000000E+00  0.45593999997E+02  0.45594000000E+02  0.51100000000E-03 0.  1.
         11   -1    0    0    0    0 -0.00000000000E+00 -0.00000000000E+00 -0.45593999997E+02  0.45594000000E+02  0.51100000000E-03 0. -1.
    9900012    2    1    2    0    0  0.32519129774E+02  0.30855304027E+02 -0.44237851856E+01  0.46142318040E+02  0.10000002542E+02 0.  0.
         12    1    1    2    0    0 -0.32519129774E+02 -0.30855304027E+02  0.44237851856E+01  0.45045681960E+02  0.00000000000E+00 0. -1.
         11    1    3    3    0    0  0.72109648266E+01  0.99466897671E+01 -0.48816350350E+01  0.13219871858E+02  0.51100000000E-03 0. -1.
        -11    1    3    3    0    0  0.20213021673E+02  0.17789809560E+02 -0.53720557178E-01  0.26926686679E+02  0.51100000000E-03 0.  1.
         12    1    3    3    0    0  0.50951432742E+01  0.31188047002E+01  0.51157040656E+00  0.59957595034E+01  0.00000000000E+00 0. -1.
</event>
<event>
 7    1  0.1541902E-008  0.4614232E+02  0.7816164E-02  0.1320468E+00
        -11   -1    0    0    0    0  0.00000000000E+00  0.00000000000E+00  0.45593999997E+02  0.45594000000E+02  0.51100000000E-03 0.  1.
         11   -1    0    0    0    0 -0.00000000000E+00 -0.00000000000E+00 -0.45593999997E+02  0.45594000000E+02  0.51100000000E-03 0. -1.
    9900012    2    1    2    0    0 -0.31208402368E+01 -0.24280562019E+02  0.37813069058E+02  0.46142317328E+02  0.99999960548E+01 0.  0.
         12    1    1    2    0    0  0.31208402368E+01  0.24280562019E+02 -0.37813069058E+02  0.45045682672E+02  0.00000000000E+00 0. -1.
         11    1    3    3    0    0  0.28092447993E+01 -0.70778392992E+01  0.11881493108E+02  0.14112318882E+02  0.51100000000E-03 0.  1.
        -11    1    3    3    0    0 -0.44516079910E+01 -0.62404059336E+01  0.12027839261E+02  0.14262832730E+02  0.51100000000E-03 0. -1.
        -12    1    3    3    0    0 -0.14784770450E+01 -0.10962316786E+02  0.13903736689E+02  0.17767165717E+02  0.00000000000E+00 0.  1.
</event>
<event>
 7    1  0.1541902E-008  0.4614232E+02  0.7816164E-02  0.1320468E+00
        -11   -1    0    0    0    0  0.00000000000E+00  0.00000000000E+00  0.45593999997E+02  0.45594000000E+02  0.51100000000E-03 0.  1.
         11   -1    0    0    0    0 -0.00000000000E+00 -0.00000000000E+00 -0.45593999997E+02  0.45594000000E+02  0.51100000000E-03 0. -1.
    9900012    2    1    2    0    0 -0.30961306388E+01 -0.63957829796E+00  0.44934603677E+02  0.46142315490E+02  0.99999792937E+01 0.  0.
         12    1    1    2    0    0  0.30961306388E+01  0.63957829796E+00 -0.44934603677E+02  0.45045684510E+02  0.00000000000E+00 0. -1.
         11    1    3    3    0    0 -0.65520562610E+01 -0.16367959289E+01  0.32604048696E+02  0.33296133917E+02  0.51100000000E-03 0.  1.
        -11    1    3    3    0    0  0.25526834815E+01  0.70795404140E+00  0.93852090443E+01  0.97518993508E+01  0.51100000000E-03 0. -1.
        -12    1    3    3    0    0  0.90324214060E+00  0.28926358953E+00  0.29453459363E+01  0.30942822227E+01  0.00000000000E+00 0.  1.
</event>
<event>
 7    1  0.1541902E-008  0.4614232E+02  0.7816164E-02  0.1320468E+00
        -11   -1    0    0    0    0  0.00000000000E+00  0.00000000000E+00  0.45593999997E+02  0.45594000000E+02  0.51100000000E-03 0. -1.
         11   -1    0    0    0    0 -0.00000000000E+00 -0.00000000000E+00 -0.45593999997E+02  0.45594000000E+02  0.51100000000E-03 0.  1.
    9900012    2    1    2    0    0  0.12108522034E+02  0.27123447467E+02 -0.33864668242E+02  0.46142318037E+02  0.10000002515E+02 0.  0.
         12    1    1    2    0    0 -0.12108522034E+02 -0.27123447467E+02  0.33864668242E+02  0.45045681963E+02  0.00000000000E+00 0. -1.
         11    1    3    3    0    0  0.49806006468E+00  0.47011837902E+01 -0.34473032698E+01  0.58509053105E+01  0.51100000000E-03 0. -1.
        -11    1    3    3    0    0  0.94325244284E+01  0.22094331253E+02 -0.29059739364E+02  0.37704117053E+02  0.51100000000E-03 0.  1.
        -12    1    3    3    0    0  0.21779375410E+01  0.32793242408E+00 -0.13576256085E+01  0.25872956732E+01  0.00000000000E+00 0.  1.
</event>
<event>
 7    1  0.1541902E-008  0.4614231E+02  0.7816164E-02  0.1320468E+00
        -11   -1    0    0    0    0  0.00000000000E+00  0.00000000000E+00  0.45593999997E+02  0.45594000000E+02  0.51100000000E-03 0.  1.
         11   -1    0    0    0    0 -0.00000000000E+00 -0.00000000000E+00 -0.45593999997E+02  0.45594000000E+02  0.51100000000E-03 0. -1.
    9900012    2    1    2    0    0  0.25366409868E+02  0.21430637786E+02  0.30436607368E+02  0.46142311488E+02  0.99999427937E+01 0.  0.
         12    1    1    2    0    0 -0.25366409868E+02 -0.21430637786E+02 -0.30436607368E+02  0.45045688512E+02  0.00000000000E+00 0. -1.
         11    1    3    3    0    0  0.18976811086E+02  0.10830072146E+02  0.21122819885E+02  0.30390514011E+02  0.51100000000E-03 0. -1.
        -11    1    3    3    0    0  0.24372706243E+01  0.66703485787E+01  0.57322463455E+01  0.91264717544E+01  0.51100000000E-03 0.  1.
         12    1    3    3    0    0  0.39523281571E+01  0.39302170613E+01  0.35815411375E+01  0.66253257226E+01  0.00000000000E+00 0. -1.
</event>
<event>
 7    1  0.1541902E-008  0.4614232E+02  0.7816164E-02  0.1320468E+00
        -11   -1    0    0    0    0  0.00000000000E+00  0.00000000000E+00  0.45593999997E+02  0.45594000000E+02  0.51100000000E-03 0.  1.
         11   -1    0    0    0    0 -0.00000000000E+00 -0.00000000000E+00 -0.45593999997E+02  0.45594000000E+02  0.51100000000E-03 0. -1.
    9900012    2    1    2    0    0 -0.26320070715E+02 -0.22018470128E+02  0.29181404039E+02  0.46142317733E+02  0.99999997454E+01 0.  0.
         12    1    1    2    0    0  0.26320070715E+02  0.22018470128E+02 -0.29181404039E+02  0.45045682267E+02  0.00000000000E+00 0. -1.
         11    1    3    3    0    0 -0.81902912655E+01 -0.78204310015E+01  0.14823180029E+02  0.18653864975E+02  0.51100000000E-03 0. -1.
        -11    1    3    3    0    0 -0.11633047906E+02 -0.91673533775E+01  0.11627029276E+02  0.18829656969E+02  0.51100000000E-03 0.  1.
         12    1    3    3    0    0 -0.64967315430E+01 -0.50306857489E+01  0.27311947343E+01  0.86587957894E+01  0.00000000000E+00 0. -1.
</event>
<event>
 7    1  0.1541902E-008  0.4614232E+02  0.7816164E-02  0.1320468E+00
        -11   -1    0    0    0    0  0.00000000000E+00  0.00000000000E+00  0.45593999997E+02  0.45594000000E+02  0.51100000000E-03 0.  1.
         11   -1    0    0    0    0 -0.00000000000E+00 -0.00000000000E+00 -0.45593999997E+02  0.45594000000E+02  0.51100000000E-03 0. -1.
    9900012    2    1    2    0    0 -0.21359008098E+02 -0.37978994695E+02 -0.11423755171E+02  0.46142318218E+02  0.10000004167E+02 0.  0.
         12    1    1    2    0    0  0.21359008098E+02  0.37978994695E+02  0.11423755171E+02  0.45045681782E+02  0.00000000000E+00 0. -1.
         11    1    3    3    0    0 -0.19080472396E+02 -0.32562864738E+02 -0.12524183161E+02  0.39765056908E+02  0.51100000000E-03 0. -1.
        -11    1    3    3    0    0 -0.12149205798E+00 -0.31241579242E+01  0.39048859153E+00  0.31508101588E+01  0.51100000000E-03 0.  1.
         12    1    3    3    0    0 -0.21570436442E+01 -0.22919720327E+01  0.70993939797E+00  0.32264511511E+01  0.00000000000E+00 0. -1.
</event>
<event>
 7    1  0.1541902E-008  0.4614232E+02  0.7816164E-02  0.1320468E+00
        -11   -1    0    0    0    0  0.00000000000E+00  0.00000000000E+00  0.45593999997E+02  0.45594000000E+02  0.51100000000E-03 0.  1.
         11   -1    0    0    0    0 -0.00000000000E+00 -0.00000000000E+00 -0.45593999997E+02  0.45594000000E+02  0.51100000000E-03 0. -1.
    9900012    2    1    2    0    0 -0.43641997686E+01  0.44268413342E+02 -0.70975250778E+01  0.46142317392E+02  0.99999966323E+01 0.  0.
         12    1    1    2    0    0  0.43641997686E+01 -0.44268413342E+02  0.70975250778E+01  0.45045682608E+02  0.00000000000E+00 0. -1.
         11    1    3    3    0    0  0.24118896127E+01  0.14337330269E+02 -0.28600693914E+01  0.14817430545E+02  0.51100000000E-03 0. -1.
        -11    1    3    3    0    0 -0.36810639847E+01  0.23280158168E+02 -0.44509742805E+01  0.23985978585E+02  0.51100000000E-03 0.  1.
         12    1    3    3    0    0 -0.30950253966E+01  0.66509249046E+01  0.21351859411E+00  0.73389082623E+01  0.00000000000E+00 0. -1.
</event>
<event>
 7    1  0.1541902E-008  0.4614232E+02  0.7816164E-02  0.1320468E+00
        -11   -1    0    0    0    0  0.00000000000E+00  0.00000000000E+00  0.45593999997E+02  0.45594000000E+02  0.51100000000E-03 0.  1.
         11   -1    0    0    0    0 -0.00000000000E+00 -0.00000000000E+00 -0.45593999997E+02  0.45594000000E+02  0.51100000000E-03 0. -1.
    9900012    2    1    2    0    0 -0.38703671287E+02 -0.13311850531E+02  0.18813133905E+02  0.46142317154E+02  0.99999944683E+01 0.  0.
         12    1    1    2    0    0  0.38703671287E+02  0.13311850531E+02 -0.18813133905E+02  0.45045682846E+02  0.00000000000E+00 0. -1.
         11    1    3    3    0    0 -0.93642876889E+01 -0.50217810496E+01  0.50187981737E+01  0.11751446898E+02  0.51100000000E-03 0. -1.
        -11    1    3    3    0    0 -0.29312959224E+02 -0.69530454075E+01  0.13541987640E+02  0.33029984081E+02  0.51100000000E-03 0.  1.
        -12    1    3    3    0    0 -0.26424374708E-01 -0.13370240742E+01  0.25234809100E+00  0.13608861751E+01  0.00000000000E+00 0.  1.
</event>
<event>
 7    1  0.1541902E-008  0.4614232E+02  0.7816164E-02  0.1320468E+00
        -11   -1    0    0    0    0  0.00000000000E+00  0.00000000000E+00  0.45593999997E+02  0.45594000000E+02  0.51100000000E-03 0.  1.
         11   -1    0    0    0    0 -0.00000000000E+00 -0.00000000000E+00 -0.45593999997E+02  0.45594000000E+02  0.51100000000E-03 0. -1.
    9900012    2    1    2    0    0  0.28710506848E+02 -0.93109393608E+00  0.34698027993E+02  0.46142320008E+02  0.10000020485E+02 0.  0.
         12    1    1    2    0    0 -0.28710506848E+02  0.93109393608E+00 -0.34698027993E+02  0.45045679992E+02  0.00000000000E+00 0. -1.
         11    1    3    3    0    0  0.19841336134E+02 -0.22925246025E+01  0.25769424829E+02  0.32603643123E+02  0.51100000000E-03 0. -1.
        -11    1    3    3    0    0  0.89732246715E+01  0.17068164672E+00  0.77116437461E+01  0.11832892409E+02  0.51100000000E-03 0.  1.
         12    1    3    3    0    0 -0.10405395669E+00  0.11907490197E+01  0.12169594171E+01  0.17057844754E+01  0.00000000000E+00 0. -1.
</event>
<event>
 7    1  0.1541902E-008  0.4614232E+02  0.7816164E-02  0.1320468E+00
        -11   -1    0    0    0    0  0.00000000000E+00  0.00000000000E+00  0.45593999997E+02  0.45594000000E+02  0.51100000000E-03 0.  1.
         11   -1    0    0    0    0 -0.00000000000E+00 -0.00000000000E+00 -0.45593999997E+02  0.45594000000E+02  0.51100000000E-03 0. -1.
    9900012    2    1    2    0    0 -0.23936674798E+02  0.28130258137E+02  0.25784447649E+02  0.46142316924E+02  0.99999923636E+01 0.  0.
         12    1    1    2    0    0  0.23936674798E+02 -0.28130258137E+02 -0.25784447649E+02  0.45045683076E+02  0.00000000000E+00 0. -1.
         11    1    3    3    0    0 -0.13440072007E+01  0.42122652163E+01  0.61589318103E+01  0.75816868118E+01  0.51100000000E-03 0. -1.
        -11    1    3    3    0    0 -0.70389239227E+01  0.90867091280E+01  0.89264201082E+01  0.14553202705E+02  0.51100000000E-03 0.  1.
        -12    1    3    3    0    0 -0.15553743675E+02  0.14831283793E+02  0.10699095731E+02  0.24007427407E+02  0.00000000000E+00 0.  1.
</event>
<event>
 7    1  0.1541902E-008  0.4614232E+02  0.7816164E-02  0.1320468E+00
        -11   -1    0    0    0    0  0.00000000000E+00  0.00000000000E+00  0.45593999997E+02  0.45594000000E+02  0.51100000000E-03 0. -1.
         11   -1    0    0    0    0 -0.00000000000E+00 -0.00000000000E+00 -0.45593999997E+02  0.45594000000E+02  0.51100000000E-03 0.  1.
    9900012    2    1    2    0    0  0.35197369249E+02  0.76481504001E+01 -0.27051145541E+02  0.46142317835E+02  0.10000000676E+02 0.  0.
         12    1    1    2    0    0 -0.35197369249E+02 -0.76481504001E+01  0.27051145541E+02  0.45045682165E+02  0.00000000000E+00 0. -1.
         11    1    3    3    0    0  0.73496276707E+01  0.40410632847E+01 -0.81224637175E+01  0.11675685696E+02  0.51100000000E-03 0. -1.
        -11    1    3    3    0    0  0.13212875487E+02  0.48719106474E+01 -0.10074929056E+02  0.17315305014E+02  0.51100000000E-03 0.  1.
         12    1    3    3    0    0  0.14634866091E+02 -0.12648235319E+01 -0.88537527677E+01  0.17151327125E+02  0.00000000000E+00 0. -1.
</event>
<event>
 7    1  0.1541902E-008  0.4614232E+02  0.7816164E-02  0.1320468E+00
        -11   -1    0    0    0    0  0.00000000000E+00  0.00000000000E+00  0.45593999997E+02  0.45594000000E+02  0.51100000000E-03 0.  1.
         11   -1    0    0    0    0 -0.00000000000E+00 -0.00000000000E+00 -0.45593999997E+02  0.45594000000E+02  0.51100000000E-03 0. -1.
    9900012    2    1    2    0    0  0.26183095441E+02 -0.16538115199E+02  0.32711614804E+02  0.46142317806E+02  0.10000000413E+02 0.  0.
         12    1    1    2    0    0 -0.26183095441E+02  0.16538115199E+02 -0.32711614804E+02  0.45045682194E+02  0.00000000000E+00 0. -1.
         11    1    3    3    0    0  0.67136309192E+01 -0.42597151357E+00  0.44483872597E+01  0.80648894179E+01  0.51100000000E-03 0. -1.
        -11    1    3    3    0    0  0.19302031780E+02 -0.15377668080E+02  0.26801304510E+02  0.36432829016E+02  0.51100000000E-03 0.  1.
         12    1    3    3    0    0  0.16743274187E+00 -0.73447560588E+00  0.14619230341E+01  0.16445993726E+01  0.00000000000E+00 0. -1.
</event>
<event>
 7    1  0.1541902E-008  0.4614232E+02  0.7816164E-02  0.1320468E+00
        -11   -1    0    0    0    0  0.00000000000E+00  0.00000000000E+00  0.45593999997E+02  0.45594000000E+02  0.51100000000E-03 0. -1.
         11   -1    0    0    0    0 -0.00000000000E+00 -0.00000000000E+00 -0.45593999997E+02  0.45594000000E+02  0.51100000000E-03 0.  1.
    9900012    2    1    2    0    0 -0.10222944846E+02  0.37803491067E+02 -0.22259850177E+02  0.46142317987E+02  0.10000002058E+02 0.  0.
         12    1    1    2    0    0  0.10222944846E+02 -0.37803491067E+02  0.22259850177E+02  0.45045682013E+02  0.00000000000E+00 0. -1.
         11    1    3    3    0    0 -0.29901393103E+01  0.38854633892E+01 -0.22048286607E+01  0.53757816667E+01  0.51100000000E-03 0. -1.
        -11    1    3    3    0    0  0.29008225567E+00  0.95563174519E+01 -0.27381078992E+01  0.99450784856E+01  0.51100000000E-03 0.  1.
        -12    1    3    3    0    0 -0.75228877915E+01  0.24361710225E+02 -0.17316913617E+02  0.30821457835E+02  0.00000000000E+00 0.  1.
</event>
<event>
 7    1  0.1541902E-008  0.4614232E+02  0.7816164E-02  0.1320468E+00
        -11   -1    0    0    0    0  0.00000000000E+00  0.00000000000E+00  0.45593999997E+02  0.45594000000E+02  0.51100000000E-03 0.  1.
         11   -1    0    0    0    0 -0.00000000000E+00 -0.00000000000E+00 -0.45593999997E+02  0.45594000000E+02  0.51100000000E-03 0. -1.
    9900012    2    1    2    0    0  0.24381171559E+02 -0.35747038898E+02  0.12522831552E+02  0.46142316226E+02  0.99999860000E+01 0.  0.
         12    1    1    2    0    0 -0.24381171559E+02  0.35747038898E+02 -0.12522831552E+02  0.45045683774E+02  0.00000000000E+00 0. -1.
         11    1    3    3    0    0  0.10193890776E+02 -0.18077209055E+02  0.31826153223E+01  0.20995950488E+02  0.51100000000E-03 0. -1.
        -11    1    3    3    0    0  0.99562599083E+01 -0.15898192885E+02  0.73751071578E+01  0.20156186500E+02  0.51100000000E-03 0.  1.
         12    1    3    3    0    0  0.42310208755E+01 -0.17716369590E+01  0.19651090717E+01  0.49901792380E+01  0.00000000000E+00 0. -1.
</event>
<event>
 7    1  0.1541902E-008  0.4614232E+02  0.7816164E-02  0.1320468E+00
        -11   -1    0    0    0    0  0.00000000000E+00  0.00000000000E+00  0.45593999997E+02  0.45594000000E+02  0.51100000000E-03 0.  1.
         11   -1    0    0    0    0 -0.00000000000E+00 -0.00000000000E+00 -0.45593999997E+02  0.45594000000E+02  0.51100000000E-03 0. -1.
    9900012    2    1    2    0    0  0.32677838807E+02 -0.21798346058E+02  0.22047775497E+02  0.46142318250E+02  0.10000004458E+02 0.  0.
         12    1    1    2    0    0 -0.32677838807E+02  0.21798346058E+02 -0.22047775497E+02  0.45045681750E+02  0.00000000000E+00 0. -1.
         11    1    3    3    0    0  0.70141144197E+01 -0.62964323268E+01  0.21850612500E+01  0.96756061343E+01  0.51100000000E-03 0. -1.
        -11    1    3    3    0    0  0.24607093679E+02 -0.13033894977E+02  0.17483979809E+02  0.32879796651E+02  0.51100000000E-03 0.  1.
         12    1    3    3    0    0  0.10566307087E+01 -0.24680187545E+01  0.23787344377E+01  0.35869154648E+01  0.00000000000E+00 0. -1.
</event>
<event>
 7    1  0.1541902E-008  0.4614232E+02  0.7816164E-02  0.1320468E+00
        -11   -1    0    0    0    0  0.00000000000E+00  0.00000000000E+00  0.45593999997E+02  0.45594000000E+02  0.51100000000E-03 0. -1.
         11   -1    0    0    0    0 -0.00000000000E+00 -0.00000000000E+00 -0.45593999997E+02  0.45594000000E+02  0.51100000000E-03 0.  1.
    9900012    2    1    2    0    0 -0.35675873664E+02 -0.27413528402E+02  0.22009200983E+01  0.46142317073E+02  0.99999937208E+01 0.  0.
         12    1    1    2    0    0  0.35675873664E+02  0.27413528402E+02 -0.22009200983E+01  0.45045682927E+02  0.00000000000E+00 0. -1.
         11    1    3    3    0    0 -0.16674315145E+02 -0.80804721046E+01  0.22412633007E+00  0.18530435717E+02  0.51100000000E-03 0. -1.
        -11    1    3    3    0    0 -0.16702039752E+02 -0.17995816667E+02  0.47411802922E+00  0.24556716750E+02  0.51100000000E-03 0.  1.
        -12    1    3    3    0    0 -0.22995187666E+01 -0.13372396304E+01  0.15026757390E+01  0.30551646050E+01  0.00000000000E+00 0.  1.
</event>
<event>
 7    1  0.1541902E-008  0.4614232E+02  0.7816164E-02  0.1320468E+00
        -11   -1    0    0    0    0  0.00000000000E+00  0.00000000000E+00  0.45593999997E+02  0.45594000000E+02  0.51100000000E-03 0.  1.
         11   -1    0    0    0    0 -0.00000000000E+00 -0.00000000000E+00 -0.45593999997E+02  0.45594000000E+02  0.51100000000E-03 0. -1.
    9900012    2    1    2    0    0 -0.18575960956E+02  0.57530516298E+01  0.40631878075E+02  0.46142318249E+02  0.10000004452E+02 0.  0.
         12    1    1    2    0    0  0.18575960956E+02 -0.57530516298E+01 -0.40631878075E+02  0.45045681751E+02  0.00000000000E+00 0. -1.
         11    1    3    3    0    0 -0.74987281123E+01 -0.38802360873E+00  0.78151164729E+01  0.10837782585E+02  0.51100000000E-03 0. -1.
        -11    1    3    3    0    0 -0.67493737920E+01  0.44149684358E+01  0.24202213060E+02  0.25510646996E+02  0.51100000000E-03 0.  1.
         12    1    3    3    0    0 -0.43278590512E+01  0.17261068027E+01  0.86145485417E+01  0.97938886678E+01  0.00000000000E+00 0. -1.
</event>
<event>
 7    1  0.1541902E-008  0.4614232E+02  0.7816164E-02  0.1320468E+00
        -11   -1    0    0    0    0  0.00000000000E+00  0.00000000000E+00  0.45593999997E+02  0.45594000000E+02  0.51100000000E-03 0. -1.
         11   -1    0    0    0    0 -0.00000000000E+00 -0.00000000000E+00 -0.45593999997E+02  0.45594000000E+02  0.51100000000E-03 0.  1.
    9900012    2    1    2    0    0 -0.36562403523E+02  0.20359507859E+02  0.16667176279E+02  0.46142315670E+02  0.99999809318E+01 0.  0.
         12    1    1    2    0    0  0.36562403523E+02 -0.20359507859E+02 -0.16667176279E+02  0.45045684330E+02  0.00000000000E+00 0. -1.
         11    1    3    3    0    0 -0.63237956534E+01  0.77066498764E+00  0.52448733604E+01  0.82518490545E+01  0.51100000000E-03 0. -1.
        -11    1    3    3    0    0 -0.12303768587E+02  0.75244394406E+01  0.32629008506E+01  0.14786697825E+02  0.51100000000E-03 0.  1.
        -12    1    3    3    0    0 -0.17934839282E+02  0.12064403431E+02  0.81594020683E+01  0.23103768791E+02  0.00000000000E+00 0.  1.
</event>
<event>
 7    1  0.1541902E-008  0.4614232E+02  0.7816164E-02  0.1320468E+00
        -11   -1    0    0    0    0  0.00000000000E+00  0.00000000000E+00  0.45593999997E+02  0.45594000000E+02  0.51100000000E-03 0. -1.
         11   -1    0    0    0    0 -0.00000000000E+00 -0.00000000000E+00 -0.45593999997E+02  0.45594000000E+02  0.51100000000E-03 0.  1.
    9900012    2    1    2    0    0  0.43020823408E+01  0.42384904887E+02 -0.14633023670E+02  0.46142318115E+02  0.10000003231E+02 0.  0.
         12    1    1    2    0    0 -0.43020823408E+01 -0.42384904887E+02  0.14633023670E+02  0.45045681885E+02  0.00000000000E+00 0. -1.
         11    1    3    3    0    0  0.39407662215E+01  0.96795532143E+01 -0.52447477886E+01  0.11693193254E+02  0.51100000000E-03 0. -1.
        -11    1    3    3    0    0 -0.24683720398E+01  0.17915944028E+02 -0.53253069104E+01  0.18852925632E+02  0.51100000000E-03 0.  1.
        -12    1    3    3    0    0  0.28296881591E+01  0.14789407644E+02 -0.40629689705E+01  0.15596199229E+02  0.00000000000E+00 0.  1.
</event>
<event>
 7    1  0.1541902E-008  0.4614232E+02  0.7816164E-02  0.1320468E+00
        -11   -1    0    0    0    0  0.00000000000E+00  0.00000000000E+00  0.45593999997E+02  0.45594000000E+02  0.51100000000E-03 0.  1.
         11   -1    0    0    0    0 -0.00000000000E+00 -0.00000000000E+00 -0.45593999997E+02  0.45594000000E+02  0.51100000000E-03 0. -1.
    9900012    2    1    2    0    0  0.51118018408E+01 -0.24266154670E+02  0.37605008154E+02  0.46142318534E+02  0.10000007044E+02 0.  0.
         12    1    1    2    0    0 -0.51118018408E+01  0.24266154670E+02 -0.37605008154E+02  0.45045681466E+02  0.00000000000E+00 0. -1.
         11    1    3    3    0    0  0.25369693997E+01 -0.18099930735E+02  0.24224932361E+02  0.30346186819E+02  0.51100000000E-03 0. -1.
        -11    1    3    3    0    0  0.23767357804E+01 -0.65959166529E+01  0.90882162237E+01  0.11478269201E+02  0.51100000000E-03 0.  1.
         12    1    3    3    0    0  0.19809666058E+00  0.42969271760E+00  0.42918595697E+01  0.43178625134E+01  0.00000000000E+00 0. -1.
</event>
<event>
 7    1  0.1541902E-008  0.4614232E+02  0.7816164E-02  0.1320468E+00
        -11   -1    0    0    0    0  0.00000000000E+00  0.00000000000E+00  0.45593999997E+02  0.45594000000E+02  0.51100000000E-03 0.  1.
         11   -1    0    0    0    0 -0.00000000000E+00 -0.00000000000E+00 -0.45593999997E+02  0.45594000000E+02  0.51100000000E-03 0. -1.
    9900012    2    1    2    0    0 -0.34617436306E+02  0.23607169257E+02  0.16536269164E+02  0.46142317248E+02  0.99999953200E+01 0.  0.
         12    1    1    2    0    0  0.34617436306E+02 -0.23607169257E+02 -0.16536269164E+02  0.45045682752E+02  0.00000000000E+00 0. -1.
         11    1    3    3    0    0 -0.19646310823E+02  0.16374235576E+02  0.12713980491E+02  0.28561134779E+02  0.51100000000E-03 0. -1.
        -11    1    3    3    0    0 -0.30136475042E+01  0.41259437906E+00 -0.64350556165E+00  0.31090842816E+01  0.51100000000E-03 0.  1.
        -12    1    3    3    0    0 -0.11957477979E+02  0.68203393019E+01  0.44657942354E+01  0.14472098188E+02  0.00000000000E+00 0.  1.
</event>
<event>
 7    1  0.1541902E-008  0.4614232E+02  0.7816164E-02  0.1320468E+00
        -11   -1    0    0    0    0  0.00000000000E+00  0.00000000000E+00  0.45593999997E+02  0.45594000000E+02  0.51100000000E-03 0. -1.
         11   -1    0    0    0    0 -0.00000000000E+00 -0.00000000000E+00 -0.45593999997E+02  0.45594000000E+02  0.51100000000E-03 0.  1.
    9900012    2    1    2    0    0 -0.19783250880E+02 -0.11655021158E+02 -0.38754316099E+02  0.46142317078E+02  0.99999937746E+01 0.  0.
         12    1    1    2    0    0  0.19783250880E+02  0.11655021158E+02  0.38754316099E+02  0.45045682922E+02  0.00000000000E+00 0. -1.
         11    1    3    3    0    0 -0.58219706623E+01 -0.62011110626E+01 -0.19727650563E+02  0.21483233412E+02  0.51100000000E-03 0. -1.
        -11    1    3    3    0    0 -0.60544978054E+01 -0.44901046337E+01 -0.73793806573E+01  0.10548613295E+02  0.51100000000E-03 0.  1.
         12    1    3    3    0    0 -0.79067824121E+01 -0.96380546140E+00 -0.11647284878E+02  0.14110470372E+02  0.00000000000E+00 0. -1.
</event>
<event>
 7    1  0.1541902E-008  0.4614232E+02  0.7816164E-02  0.1320468E+00
        -11   -1    0    0    0    0  0.00000000000E+00  0.00000000000E+00  0.45593999997E+02  0.45594000000E+02  0.51100000000E-03 0.  1.
         11   -1    0    0    0    0 -0.00000000000E+00 -0.00000000000E+00 -0.45593999997E+02  0.45594000000E+02  0.51100000000E-03 0. -1.
    9900012    2    1    2    0    0 -0.72750203196E+01  0.20994317300E+02  0.39184514090E+02  0.46142318475E+02  0.10000006512E+02 0.  0.
         12    1    1    2    0    0  0.72750203196E+01 -0.20994317300E+02 -0.39184514090E+02  0.45045681525E+02  0.00000000000E+00 0. -1.
         11    1    3    3    0    0 -0.37603578304E+01  0.24176456168E+01  0.45363183879E+01  0.63689470180E+01  0.51100000000E-03 0. -1.
        -11    1    3    3    0    0 -0.76210723759E+00  0.12122892537E+02  0.18087303756E+02  0.21787516800E+02  0.51100000000E-03 0.  1.
        -12    1    3    3    0    0 -0.27525552516E+01  0.64537791464E+01  0.16560891946E+02  0.17985854657E+02  0.00000000000E+00 0.  1.
</event>
<event>
 7    1  0.1635847E-008  0.4614232E+02  0.7816164E-02  0.1320468E+00
        -11   -1    0    0    0    0  0.00000000000E+00  0.00000000000E+00  0.45593999997E+02  0.45594000000E+02  0.51100000000E-03 0.  1.
         11   -1    0    0    0    0 -0.00000000000E+00 -0.00000000000E+00 -0.45593999997E+02  0.45594000000E+02  0.51100000000E-03 0. -1.
    9900012    2    1    2    0    0  0.28078415059E+02 -0.17416016468E+02 -0.30616963575E+02  0.46142317850E+02  0.10000000810E+02 0.  0.
         12    1    1    2    0    0 -0.28078415059E+02  0.17416016468E+02  0.30616963575E+02  0.45045682150E+02  0.00000000000E+00 0. -1.
         11    1    3    3    0    0  0.80642488073E+00 -0.25026441397E+01 -0.54460699643E+01  0.60475802678E+01  0.51100000000E-03 0. -1.
        -11    1    3    3    0    0  0.14904518696E+02 -0.87464645724E+01 -0.15633424589E+02  0.23303417876E+02  0.51100000000E-03 0.  1.
         12    1    3    3    0    0  0.12367471482E+02 -0.61669077560E+01 -0.95374690213E+01  0.16791319706E+02  0.00000000000E+00 0. -1.
</event>
<event>
 7    1  0.1541902E-008  0.4614232E+02  0.7816164E-02  0.1320468E+00
        -11   -1    0    0    0    0  0.00000000000E+00  0.00000000000E+00  0.45593999997E+02  0.45594000000E+02  0.51100000000E-03 0.  1.
         11   -1    0    0    0    0 -0.00000000000E+00 -0.00000000000E+00 -0.45593999997E+02  0.45594000000E+02  0.51100000000E-03 0. -1.
    9900012    2    1    2    0    0 -0.14692145105E+02  0.66680754028E+00  0.42577104834E+02  0.46142316343E+02  0.99999870682E+01 0.  0.
         12    1    1    2    0    0  0.14692145105E+02 -0.66680754028E+00 -0.42577104834E+02  0.45045683657E+02  0.00000000000E+00 0. -1.
         11    1    3    3    0    0 -0.66793624498E+01 -0.25749944590E+01  0.17414784041E+02  0.18828679791E+02  0.51100000000E-03 0. -1.
        -11    1    3    3    0    0 -0.27222958352E+01 -0.13135919209E+01  0.38983740119E+01  0.49329239349E+01  0.51100000000E-03 0.  1.
         12    1    3    3    0    0 -0.52904868196E+01  0.45553939201E+01  0.21263946781E+02  0.22380712617E+02  0.00000000000E+00 0. -1.
</event>
<event>
 7    1  0.1541902E-008  0.4614232E+02  0.7816164E-02  0.1320468E+00
        -11   -1    0    0    0    0  0.00000000000E+00  0.00000000000E+00  0.45593999997E+02  0.45594000000E+02  0.51100000000E-03 0.  1.
         11   -1    0    0    0    0 -0.00000000000E+00 -0.00000000000E+00 -0.45593999997E+02  0.45594000000E+02  0.51100000000E-03 0. -1.
    9900012    2    1    2    0    0  0.25198039149E+02 -0.11317490433E+02  0.35582112558E+02  0.46142317624E+02  0.99999987469E+01 0.  0.
         12    1    1    2    0    0 -0.25198039149E+02  0.11317490433E+02 -0.35582112558E+02  0.45045682376E+02  0.00000000000E+00 0. -1.
         11    1    3    3    0    0  0.31481232927E+01  0.12841165313E+00  0.78947558539E+00  0.32481443594E+01  0.51100000000E-03 0. -1.
        -11    1    3    3    0    0  0.19085445618E+02 -0.94541917655E+01  0.31575721452E+02  0.38087559149E+02  0.51100000000E-03 0.  1.
        -12    1    3    3    0    0  0.29644702377E+01 -0.19917103211E+01  0.32169155203E+01  0.48066141157E+01  0.00000000000E+00 0.  1.
</event>
<event>
 7    1  0.1541902E-008  0.4614232E+02  0.7816164E-02  0.1320468E+00
        -11   -1    0    0    0    0  0.00000000000E+00  0.00000000000E+00  0.45593999997E+02  0.45594000000E+02  0.51100000000E-03 0.  1.
         11   -1    0    0    0    0 -0.00000000000E+00 -0.00000000000E+00 -0.45593999997E+02  0.45594000000E+02  0.51100000000E-03 0. -1.
    9900012    2    1    2    0    0  0.86231487716E+01 -0.37121865774E+02  0.24015032972E+02  0.46142318499E+02  0.10000006726E+02 0.  0.
         12    1    1    2    0    0 -0.86231487716E+01  0.37121865774E+02 -0.24015032972E+02  0.45045681501E+02  0.00000000000E+00 0. -1.
         11    1    3    3    0    0  0.52274117575E+01 -0.12589197414E+02  0.12937732438E+02  0.18793579917E+02  0.51100000000E-03 0. -1.
        -11    1    3    3    0    0  0.32975351525E+01 -0.24636396003E+02  0.11056990917E+02  0.27204462768E+02  0.51100000000E-03 0.  1.
         12    1    3    3    0    0  0.98201861598E-01  0.10372764358E+00  0.20309617145E-01  0.14427581299E+00  0.00000000000E+00 0. -1.
</event>
<event>
 7    1  0.1541902E-008  0.4614232E+02  0.7816164E-02  0.1320468E+00
        -11   -1    0    0    0    0  0.00000000000E+00  0.00000000000E+00  0.45593999997E+02  0.45594000000E+02  0.51100000000E-03 0.  1.
         11   -1    0    0    0    0 -0.00000000000E+00 -0.00000000000E+00 -0.45593999997E+02  0.45594000000E+02  0.51100000000E-03 0. -1.
    9900012    2    1    2    0    0 -0.35351695607E+02 -0.26925075400E+02 -0.73764050216E+01  0.46142318535E+02  0.10000007058E+02 0.  0.
         12    1    1    2    0    0  0.35351695607E+02  0.26925075400E+02  0.73764050216E+01  0.45045681465E+02  0.00000000000E+00 0. -1.
         11    1    3    3    0    0 -0.13366476626E+02 -0.59012795292E+01  0.56110825151E+00  0.14621991664E+02  0.51100000000E-03 0. -1.
        -11    1    3    3    0    0 -0.88617232657E+01 -0.70519274756E+01 -0.25462472285E+01  0.11607893675E+02  0.51100000000E-03 0.  1.
         12    1    3    3    0    0 -0.13123495715E+02 -0.13971868395E+02 -0.53912660446E+01  0.19912433196E+02  0.00000000000E+00 0. -1.
</event>
<event>
 7    1  0.1541902E-008  0.4614232E+02  0.7816164E-02  0.1320468E+00
        -11   -1    0    0    0    0  0.00000000000E+00  0.00000000000E+00  0.45593999997E+02  0.45594000000E+02  0.51100000000E-03 0.  1.
         11   -1    0    0    0    0 -0.00000000000E+00 -0.00000000000E+00 -0.45593999997E+02  0.45594000000E+02  0.51100000000E-03 0. -1.
    9900012    2    1    2    0    0  0.26213024277E+02  0.30751298896E+02  0.19908501330E+02  0.46142318178E+02  0.10000003805E+02 0.  0.
         12    1    1    2    0    0 -0.26213024277E+02 -0.30751298896E+02 -0.19908501330E+02  0.45045681822E+02  0.00000000000E+00 0. -1.
         11    1    3    3    0    0  0.84226416638E+01  0.14329037683E+02  0.12416807288E+02  0.20747031523E+02  0.51100000000E-03 0. -1.
        -11    1    3    3    0    0  0.11503698800E+02  0.11257832249E+02  0.56018478788E+01  0.17042727862E+02  0.51100000000E-03 0.  1.
        -12    1    3    3    0    0  0.62866838128E+01  0.51644289636E+01  0.18898461632E+01  0.83525587937E+01  0.00000000000E+00 0.  1.
</event>
<event>
 7    1  0.1541902E-008  0.4614232E+02  0.7816164E-02  0.1320468E+00
        -11   -1    0    0    0    0  0.00000000000E+00  0.00000000000E+00  0.45593999997E+02  0.45594000000E+02  0.51100000000E-03 0.  1.
         11   -1    0    0    0    0 -0.00000000000E+00 -0.00000000000E+00 -0.45593999997E+02  0.45594000000E+02  0.51100000000E-03 0. -1.
    9900012    2    1    2    0    0 -0.23029567363E+02 -0.25240986099E+02  0.29353789159E+02  0.46142319961E+02  0.10000020062E+02 0.  0.
         12    1    1    2    0    0  0.23029567363E+02  0.25240986099E+02 -0.29353789159E+02  0.45045680039E+02  0.00000000000E+00 0. -1.
         11    1    3    3    0    0 -0.11327105229E+02 -0.91562851499E+01  0.11777864228E+02  0.18731229448E+02  0.51100000000E-03 0. -1.
        -11    1    3    3    0    0 -0.31481652853E+01 -0.45379093889E+01  0.93324729928E+01  0.10844289682E+02  0.51100000000E-03 0.  1.
        -12    1    3    3    0    0 -0.85542968487E+01 -0.11546791560E+02  0.82434519376E+01  0.16566800831E+02  0.00000000000E+00 0.  1.
</event>
<event>
 7    1  0.1541902E-008  0.4614232E+02  0.7816164E-02  0.1320468E+00
        -11   -1    0    0    0    0  0.00000000000E+00  0.00000000000E+00  0.45593999997E+02  0.45594000000E+02  0.51100000000E-03 0. -1.
         11   -1    0    0    0    0 -0.00000000000E+00 -0.00000000000E+00 -0.45593999997E+02  0.45594000000E+02  0.51100000000E-03 0.  1.
    9900012    2    1    2    0    0 -0.20806030973E+02  0.39319827696E+02  0.70833345167E+01  0.46142318711E+02  0.10000008664E+02 0.  0.
         12    1    1    2    0    0  0.20806030973E+02 -0.39319827696E+02 -0.70833345167E+01  0.45045681289E+02  0.00000000000E+00 0. -1.
         11    1    3    3    0    0 -0.26356947292E+01  0.21158350848E+01 -0.18871912000E+00  0.33851528737E+01  0.51100000000E-03 0. -1.
        -11    1    3    3    0    0 -0.17282565910E+02  0.36381137806E+02  0.55585228369E+01  0.40659211120E+02  0.51100000000E-03 0.  1.
        -12    1    3    3    0    0 -0.88777033362E+00  0.82285480543E+00  0.17135307998E+01  0.20979547178E+01  0.00000000000E+00 0.  1.
</event>
<event>
 7    1  0.1541902E-008  0.4614232E+02  0.7816164E-02  0.1320468E+00
        -11   -1    0    0    0    0  0.00000000000E+00  0.00000000000E+00  0.45593999997E+02  0.45594000000E+02  0.51100000000E-03 0.  1.
         11   -1    0    0    0    0 -0.00000000000E+00 -0.00000000000E+00 -0.45593999997E+02  0.45594000000E+02  0.51100000000E-03 0. -1.
    9900012    2    1    2    0    0 -0.20157236436E+02  0.28439573395E+01  0.40183469417E+02  0.46142317760E+02  0.99999999913E+01 0.  0.
         12    1    1    2    0    0  0.20157236436E+02 -0.28439573395E+01 -0.40183469417E+02  0.45045682240E+02  0.00000000000E+00 0. -1.
         11    1    3    3    0    0 -0.26905561710E-01 -0.92656953077E+00  0.66794344994E+01  0.67434487094E+01  0.51100000000E-03 0. -1.
        -11    1    3    3    0    0 -0.13393219837E+02  0.28322999793E+01  0.25065973592E+02  0.28560519833E+02  0.51100000000E-03 0.  1.
        -12    1    3    3    0    0 -0.67371110371E+01  0.93822689097E+00  0.84380613256E+01  0.10838349217E+02  0.00000000000E+00 0.  1.
</event>
<event>
 7    1  0.1541902E-008  0.4614232E+02  0.7816164E-02  0.1320468E+00
        -11   -1    0    0    0    0  0.00000000000E+00  0.00000000000E+00  0.45593999997E+02  0.45594000000E+02  0.51100000000E-03 0.  1.
         11   -1    0    0    0    0 -0.00000000000E+00 -0.00000000000E+00 -0.45593999997E+02  0.45594000000E+02  0.51100000000E-03 0. -1.
    9900012    2    1    2    0    0  0.41107088372E+02  0.18381608009E+02  0.11987437826E+01  0.46142320806E+02  0.10000027766E+02 0.  0.
         12    1    1    2    0    0 -0.41107088372E+02 -0.18381608009E+02 -0.11987437826E+01  0.45045679194E+02  0.00000000000E+00 0. -1.
         11    1    3    3    0    0  0.26072871564E+01  0.44124489548E+01 -0.42298003928E+00  0.51426223339E+01  0.51100000000E-03 0. -1.
        -11    1    3    3    0    0  0.32034388183E+02  0.11784180545E+02  0.16866149897E+01  0.34174751027E+02  0.51100000000E-03 0.  1.
         12    1    3    3    0    0  0.64654130328E+01  0.21849785083E+01 -0.64891167765E-01  0.68249474452E+01  0.00000000000E+00 0. -1.
</event>
<event>
 7    1  0.1541902E-008  0.4614232E+02  0.7816164E-02  0.1320468E+00
        -11   -1    0    0    0    0  0.00000000000E+00  0.00000000000E+00  0.45593999997E+02  0.45594000000E+02  0.51100000000E-03 0. -1.
         11   -1    0    0    0    0 -0.00000000000E+00 -0.00000000000E+00 -0.45593999997E+02  0.45594000000E+02  0.51100000000E-03 0.  1.
    9900012    2    1    2    0    0  0.10422021828E+02 -0.39778978237E+02 -0.18388255781E+02  0.46142316531E+02  0.99999887798E+01 0.  0.
         12    1    1    2    0    0 -0.10422021828E+02  0.39778978237E+02  0.18388255781E+02  0.45045683469E+02  0.00000000000E+00 0. -1.
         11    1    3    3    0    0  0.33455751205E+01 -0.15389838777E+02 -0.50649756898E+01  0.16543699389E+02  0.51100000000E-03 0. -1.
        -11    1    3    3    0    0  0.80205289240E+01 -0.21857017354E+02 -0.13459703572E+02  0.26892781789E+02  0.51100000000E-03 0.  1.
        -12    1    3    3    0    0 -0.94408221679E+00 -0.25321221059E+01  0.13642348076E+00  0.27058353530E+01  0.00000000000E+00 0.  1.
</event>
<event>
 7    1  0.1541902E-008  0.4614232E+02  0.7816164E-02  0.1320468E+00
        -11   -1    0    0    0    0  0.00000000000E+00  0.00000000000E+00  0.45593999997E+02  0.45594000000E+02  0.51100000000E-03 0.  1.
         11   -1    0    0    0    0 -0.00000000000E+00 -0.00000000000E+00 -0.45593999997E+02  0.45594000000E+02  0.51100000000E-03 0. -1.
    9900012    2    1    2    0    0 -0.15768969232E+02  0.85662755108E+01  0.41316726794E+02  0.46142318967E+02  0.10000010993E+02 0.  0.
         12    1    1    2    0    0  0.15768969232E+02 -0.85662755108E+01 -0.41316726794E+02  0.45045681033E+02  0.00000000000E+00 0. -1.
         11    1    3    3    0    0 -0.20249627716E+00  0.38948246265E-02  0.10985025051E+02  0.10986891988E+02  0.51100000000E-03 0. -1.
        -11    1    3    3    0    0 -0.11989336790E+02  0.65233012892E+01  0.22886665460E+02  0.26647647410E+02  0.51100000000E-03 0.  1.
         12    1    3    3    0    0 -0.35771361651E+01  0.20390793970E+01  0.74450362833E+01  0.85077795687E+01  0.00000000000E+00 0. -1.
</event>
<event>
 7    1  0.1541902E-008  0.4614232E+02  0.7816164E-02  0.1320468E+00
        -11   -1    0    0    0    0  0.00000000000E+00  0.00000000000E+00  0.45593999997E+02  0.45594000000E+02  0.51100000000E-03 0.  1.
         11   -1    0    0    0    0 -0.00000000000E+00 -0.00000000000E+00 -0.45593999997E+02  0.45594000000E+02  0.51100000000E-03 0. -1.
    9900012    2    1    2    0    0  0.68763406537E+01  0.38463012387E+02  0.22414860246E+02  0.46142319379E+02  0.10000014757E+02 0.  0.
         12    1    1    2    0    0 -0.68763406537E+01 -0.38463012387E+02 -0.22414860246E+02  0.45045680621E+02  0.00000000000E+00 0. -1.
         11    1    3    3    0    0  0.42011948604E+01  0.33836298028E+02  0.18665775497E+02  0.38871021052E+02  0.51100000000E-03 0.  1.
        -11    1    3    3    0    0  0.20185794288E+01  0.19947462645E+01  0.35591143035E+01  0.45520292679E+01  0.51100000000E-03 0. -1.
         12    1    3    3    0    0  0.65656636457E+00  0.26319680954E+01  0.18997044545E+00  0.27192690593E+01  0.00000000000E+00 0. -1.
</event>
<event>
 7    1  0.1541902E-008  0.4614232E+02  0.7816164E-02  0.1320468E+00
        -11   -1    0    0    0    0  0.00000000000E+00  0.00000000000E+00  0.45593999997E+02  0.45594000000E+02  0.51100000000E-03 0. -1.
         11   -1    0    0    0    0 -0.00000000000E+00 -0.00000000000E+00 -0.45593999997E+02  0.45594000000E+02  0.51100000000E-03 0.  1.
    9900012    2    1    2    0    0 -0.10982877460E+02 -0.41545683598E+02 -0.13507260214E+02  0.46142317616E+02  0.99999986784E+01 0.  0.
         12    1    1    2    0    0  0.10982877460E+02  0.41545683598E+02  0.13507260214E+02  0.45045682384E+02  0.00000000000E+00 0. -1.
         11    1    3    3    0    0 -0.59834797723E+01 -0.85402239018E+01 -0.25945222125E+01  0.10745650294E+02  0.51100000000E-03 0. -1.
        -11    1    3    3    0    0 -0.16876245018E+00 -0.72359776954E+01 -0.74655476873E+00  0.72763451166E+01  0.51100000000E-03 0.  1.
         12    1    3    3    0    0 -0.48306352373E+01 -0.25769482001E+02 -0.10166183233E+02  0.28120322205E+02  0.00000000000E+00 0. -1.
</event>
<event>
 7    1  0.1541902E-008  0.4614232E+02  0.7816164E-02  0.1320468E+00
        -11   -1    0    0    0    0  0.00000000000E+00  0.00000000000E+00  0.45593999997E+02  0.45594000000E+02  0.51100000000E-03 0.  1.
         11   -1    0    0    0    0 -0.00000000000E+00 -0.00000000000E+00 -0.45593999997E+02  0.45594000000E+02  0.51100000000E-03 0. -1.
    9900012    2    1    2    0    0  0.31475196802E+02 -0.21506112825E+02 -0.23998178627E+02  0.46142317854E+02  0.10000000847E+02 0.  0.
         12    1    1    2    0    0 -0.31475196802E+02  0.21506112825E+02  0.23998178627E+02  0.45045682146E+02  0.00000000000E+00 0. -1.
         11    1    3    3    0    0  0.71015186005E+01 -0.43091026469E+01 -0.90140799398E+01  0.12257796273E+02  0.51100000000E-03 0. -1.
        -11    1    3    3    0    0  0.12340343835E+02 -0.92403848745E+01 -0.10935593470E+02  0.18901216981E+02  0.51100000000E-03 0.  1.
        -12    1    3    3    0    0  0.12033334367E+02 -0.79566253039E+01 -0.40485052174E+01  0.14983304599E+02  0.00000000000E+00 0.  1.
</event>
<event>
 7    1  0.1541902E-008  0.4614232E+02  0.7816164E-02  0.1320468E+00
        -11   -1    0    0    0    0  0.00000000000E+00  0.00000000000E+00  0.45593999997E+02  0.45594000000E+02  0.51100000000E-03 0.  1.
         11   -1    0    0    0    0 -0.00000000000E+00 -0.00000000000E+00 -0.45593999997E+02  0.45594000000E+02  0.51100000000E-03 0. -1.
    9900012    2    1    2    0    0 -0.43416672193E+02  0.11810869697E+02  0.21469695126E+01  0.46142317128E+02  0.99999942273E+01 0.  0.
         12    1    1    2    0    0  0.43416672193E+02 -0.11810869697E+02 -0.21469695126E+01  0.45045682872E+02  0.00000000000E+00 0. -1.
         11    1    3    3    0    0 -0.58984537804E+01  0.16187271767E+01 -0.24380134189E+01  0.65845230931E+01  0.51100000000E-03 0. -1.
        -11    1    3    3    0    0 -0.22830725970E+02  0.57304926290E+01  0.55257020904E+01  0.24178791904E+02  0.51100000000E-03 0.  1.
        -12    1    3    3    0    0 -0.14687492443E+02  0.44616498914E+01 -0.94071915885E+00  0.15379002131E+02  0.00000000000E+00 0.  1.
</event>
<event>
 7    1  0.1541902E-008  0.4614232E+02  0.7816164E-02  0.1320468E+00
        -11   -1    0    0    0    0  0.00000000000E+00  0.00000000000E+00  0.45593999997E+02  0.45594000000E+02  0.51100000000E-03 0.  1.
         11   -1    0    0    0    0 -0.00000000000E+00 -0.00000000000E+00 -0.45593999997E+02  0.45594000000E+02  0.51100000000E-03 0. -1.
    9900012    2    1    2    0    0  0.22454498216E+02  0.22778378731E+01  0.38983588535E+02  0.46142320845E+02  0.10000028121E+02 0.  0.
         12    1    1    2    0    0 -0.22454498216E+02 -0.22778378731E+01 -0.38983588535E+02  0.45045679155E+02  0.00000000000E+00 0. -1.
         11    1    3    3    0    0 -0.19359007663E+00 -0.25222001199E+00  0.15951571108E+01  0.16265357424E+01  0.51100000000E-03 0. -1.
        -11    1    3    3    0    0  0.49052244756E+01  0.18313792569E+01  0.15323640821E+02  0.16193490835E+02  0.51100000000E-03 0.  1.
        -12    1    3    3    0    0  0.17742863817E+02  0.69867862819E+00  0.22064790602E+02  0.28322294268E+02  0.00000000000E+00 0.  1.
</event>
<event>
 7    1  0.1541902E-008  0.4614232E+02  0.7816164E-02  0.1320468E+00
        -11   -1    0    0    0    0  0.00000000000E+00  0.00000000000E+00  0.45593999997E+02  0.45594000000E+02  0.51100000000E-03 0. -1.
         11   -1    0    0    0    0 -0.00000000000E+00 -0.00000000000E+00 -0.45593999997E+02  0.45594000000E+02  0.51100000000E-03 0.  1.
    9900012    2    1    2    0    0  0.10550489541E+02 -0.40083024278E+02 -0.17639492060E+02  0.46142319353E+02  0.10000014515E+02 0.  0.
         12    1    1    2    0    0 -0.10550489541E+02  0.40083024278E+02  0.17639492060E+02  0.45045680647E+02  0.00000000000E+00 0. -1.
         11    1    3    3    0    0 -0.46179841010E+00 -0.32115872639E+01 -0.37207901244E+01  0.49367833592E+01  0.51100000000E-03 0. -1.
        -11    1    3    3    0    0  0.70292211808E+01 -0.30188708606E+02 -0.10797343480E+02  0.32823020949E+02  0.51100000000E-03 0.  1.
         12    1    3    3    0    0  0.39830667700E+01 -0.66827284084E+01 -0.31213584554E+01  0.83825150451E+01  0.00000000000E+00 0. -1.
</event>
<event>
 7    1  0.1541902E-008  0.4614231E+02  0.7816164E-02  0.1320468E+00
        -11   -1    0    0    0    0  0.00000000000E+00  0.00000000000E+00  0.45593999997E+02  0.45594000000E+02  0.51100000000E-03 0.  1.
         11   -1    0    0    0    0 -0.00000000000E+00 -0.00000000000E+00 -0.45593999997E+02  0.45594000000E+02  0.51100000000E-03 0. -1.
    9900012    2    1    2    0    0  0.32006454125E+01  0.13098319314E+02  0.42980275772E+02  0.46142309803E+02  0.99999274297E+01 0.  0.
         12    1    1    2    0    0 -0.32006454125E+01 -0.13098319314E+02 -0.42980275772E+02  0.45045690197E+02  0.00000000000E+00 0. -1.
         11    1    3    3    0    0 -0.18089121128E+01  0.12105636360E+01  0.80120859403E+01  0.83024784687E+01  0.51100000000E-03 0. -1.
        -11    1    3    3    0    0  0.27185971396E+01  0.10683610291E+02  0.21903934434E+02  0.24521677006E+02  0.51100000000E-03 0.  1.
         12    1    3    3    0    0  0.22909603858E+01  0.12041453875E+01  0.13064255398E+02  0.13318154328E+02  0.00000000000E+00 0. -1.
</event>
<event>
 7    1  0.1541902E-008  0.4614232E+02  0.7816164E-02  0.1320468E+00
        -11   -1    0    0    0    0  0.00000000000E+00  0.00000000000E+00  0.45593999997E+02  0.45594000000E+02  0.51100000000E-03 0.  1.
         11   -1    0    0    0    0 -0.00000000000E+00 -0.00000000000E+00 -0.45593999997E+02  0.45594000000E+02  0.51100000000E-03 0. -1.
    9900012    2    1    2    0    0  0.60064904706E+01  0.32865559498E+02  0.30214078068E+02  0.46142318271E+02  0.10000004653E+02 0.  0.
         12    1    1    2    0    0 -0.60064904706E+01 -0.32865559498E+02 -0.30214078068E+02  0.45045681729E+02  0.00000000000E+00 0. -1.
         11    1    3    3    0    0 -0.10354943293E+01  0.14002141489E+02  0.12481138344E+02  0.18785926365E+02  0.51100000000E-03 0. -1.
        -11    1    3    3    0    0  0.58861952955E+01  0.18698087818E+02  0.16206056836E+02  0.25434269431E+02  0.51100000000E-03 0.  1.
         12    1    3    3    0    0  0.11557895045E+01  0.16533019108E+00  0.15268828890E+01  0.19221224746E+01  0.00000000000E+00 0. -1.
</event>
<event>
 7    1  0.1541902E-008  0.4614232E+02  0.7816164E-02  0.1320468E+00
        -11   -1    0    0    0    0  0.00000000000E+00  0.00000000000E+00  0.45593999997E+02  0.45594000000E+02  0.51100000000E-03 0.  1.
         11   -1    0    0    0    0 -0.00000000000E+00 -0.00000000000E+00 -0.45593999997E+02  0.45594000000E+02  0.51100000000E-03 0. -1.
    9900012    2    1    2    0    0 -0.25723556770E+02  0.23120069995E+02  0.28859564623E+02  0.46142317857E+02  0.10000000873E+02 0.  0.
         12    1    1    2    0    0  0.25723556770E+02 -0.23120069995E+02 -0.28859564623E+02  0.45045682143E+02  0.00000000000E+00 0. -1.
         11    1    3    3    0    0 -0.24281768659E+01  0.81757304883E+00 -0.28723505359E+00  0.25781723797E+01  0.51100000000E-03 0. -1.
        -11    1    3    3    0    0 -0.11668570294E+02  0.11940235011E+02  0.16853401482E+02  0.23722602863E+02  0.51100000000E-03 0.  1.
        -12    1    3    3    0    0 -0.11626809610E+02  0.10362261935E+02  0.12293398195E+02  0.19841542614E+02  0.00000000000E+00 0.  1.
</event>
<event>
 7    1  0.1541902E-008  0.4614232E+02  0.7816164E-02  0.1320468E+00
        -11   -1    0    0    0    0  0.00000000000E+00  0.00000000000E+00  0.45593999997E+02  0.45594000000E+02  0.51100000000E-03 0. -1.
         11   -1    0    0    0    0 -0.00000000000E+00 -0.00000000000E+00 -0.45593999997E+02  0.45594000000E+02  0.51100000000E-03 0.  1.
    9900012    2    1    2    0    0 -0.23206022349E+02 -0.30657218650E+01 -0.38486300432E+02  0.46142318245E+02  0.10000004411E+02 0.  0.
         12    1    1    2    0    0  0.23206022349E+02  0.30657218650E+01  0.38486300432E+02  0.45045681755E+02  0.00000000000E+00 0. -1.
         11    1    3    3    0    0 -0.38563994188E+01  0.30469390594E+01 -0.86461780133E+01  0.99454536652E+01  0.51100000000E-03 0. -1.
        -11    1    3    3    0    0 -0.82745832655E+01 -0.13990075317E+01 -0.10910657170E+02  0.13764751739E+02  0.51100000000E-03 0.  1.
         12    1    3    3    0    0 -0.11075039665E+02 -0.47136533927E+01 -0.18929465249E+02  0.22432112840E+02  0.00000000000E+00 0. -1.
</event>
<event>
 7    1  0.1541902E-008  0.4614232E+02  0.7816164E-02  0.1320468E+00
        -11   -1    0    0    0    0  0.00000000000E+00  0.00000000000E+00  0.45593999997E+02  0.45594000000E+02  0.51100000000E-03 0.  1.
         11   -1    0    0    0    0 -0.00000000000E+00 -0.00000000000E+00 -0.45593999997E+02  0.45594000000E+02  0.51100000000E-03 0. -1.
    9900012    2    1    2    0    0 -0.93015849595E+01  0.19899689174E+02  0.39326789954E+02  0.46142317409E+02  0.99999967904E+01 0.  0.
         12    1    1    2    0    0  0.93015849595E+01 -0.19899689174E+02 -0.39326789954E+02  0.45045682591E+02  0.00000000000E+00 0. -1.
         11    1    3    3    0    0  0.27122089456E+00  0.74357109364E+01  0.15131774822E+02  0.16862205295E+02  0.51100000000E-03 0. -1.
        -11    1    3    3    0    0 -0.10142870435E+02  0.11813492845E+02  0.22309757880E+02  0.27205913526E+02  0.51100000000E-03 0.  1.
        -12    1    3    3    0    0  0.57006458147E+00  0.65048539231E+00  0.18852572526E+01  0.20741985877E+01  0.00000000000E+00 0.  1.
</event>
<event>
 7    1  0.1541902E-008  0.4614232E+02  0.7816164E-02  0.1320468E+00
        -11   -1    0    0    0    0  0.00000000000E+00  0.00000000000E+00  0.45593999997E+02  0.45594000000E+02  0.51100000000E-03 0.  1.
         11   -1    0    0    0    0 -0.00000000000E+00 -0.00000000000E+00 -0.45593999997E+02  0.45594000000E+02  0.51100000000E-03 0. -1.
    9900012    2    1    2    0    0  0.32059954344E+02 -0.58193113415E+01  0.31103189562E+02  0.46142318098E+02  0.10000003073E+02 0.  0.
         12    1    1    2    0    0 -0.32059954344E+02  0.58193113415E+01 -0.31103189562E+02  0.45045681902E+02  0.00000000000E+00 0. -1.
         11    1    3    3    0    0  0.43590671976E+01  0.57542663405E+00  0.73055992974E+01  0.85266854052E+01  0.51100000000E-03 0. -1.
        -11    1    3    3    0    0  0.23717228854E+02 -0.75682338714E+01  0.21340625027E+02  0.32790355064E+02  0.51100000000E-03 0.  1.
        -12    1    3    3    0    0  0.39836582926E+01  0.11734958959E+01  0.24569652384E+01  0.48252776286E+01  0.00000000000E+00 0.  1.
</event>
<event>
 7    1  0.1541902E-008  0.4614232E+02  0.7816164E-02  0.1320468E+00
        -11   -1    0    0    0    0  0.00000000000E+00  0.00000000000E+00  0.45593999997E+02  0.45594000000E+02  0.51100000000E-03 0.  1.
         11   -1    0    0    0    0 -0.00000000000E+00 -0.00000000000E+00 -0.45593999997E+02  0.45594000000E+02  0.51100000000E-03 0. -1.
    9900012    2    1    2    0    0  0.82327318194E+01  0.18794871126E+02  0.40100977947E+02  0.46142317786E+02  0.10000000228E+02 0.  0.
         12    1    1    2    0    0 -0.82327318194E+01 -0.18794871126E+02 -0.40100977947E+02  0.45045682214E+02  0.00000000000E+00 0. -1.
         11    1    3    3    0    0  0.32852426336E+00 -0.86059930139E+00  0.11412425928E+01  0.14666268325E+01  0.51100000000E-03 0. -1.
        -11    1    3    3    0    0 -0.37952284665E+00  0.51186178165E+01  0.92631665518E+01  0.10590115239E+02  0.51100000000E-03 0.  1.
        -12    1    3    3    0    0  0.82837304027E+01  0.14536852610E+02  0.29696568802E+02  0.34085575715E+02  0.00000000000E+00 0.  1.
</event>
<event>
 7    1  0.1541902E-008  0.4614232E+02  0.7816164E-02  0.1320468E+00
        -11   -1    0    0    0    0  0.00000000000E+00  0.00000000000E+00  0.45593999997E+02  0.45594000000E+02  0.51100000000E-03 0.  1.
         11   -1    0    0    0    0 -0.00000000000E+00 -0.00000000000E+00 -0.45593999997E+02  0.45594000000E+02  0.51100000000E-03 0. -1.
    9900012    2    1    2    0    0 -0.73116701068E+01  0.22259606921E+02  0.38472885563E+02  0.46142317148E+02  0.99999944113E+01 0.  0.
         12    1    1    2    0    0  0.73116701068E+01 -0.22259606921E+02 -0.38472885563E+02  0.45045682852E+02  0.00000000000E+00 0. -1.
         11    1    3    3    0    0  0.35962710595E-01  0.10509141444E+02  0.10275487172E+02  0.14697924482E+02  0.51100000000E-03 0. -1.
        -11    1    3    3    0    0 -0.58564880273E+01  0.94575910568E+01  0.21429757205E+02  0.24144957543E+02  0.51100000000E-03 0.  1.
         12    1    3    3    0    0 -0.14911447900E+01  0.22928744201E+01  0.67676411864E+01  0.72994351233E+01  0.00000000000E+00 0. -1.
</event>
<event>
 7    1  0.1541902E-008  0.4614232E+02  0.7816164E-02  0.1320468E+00
        -11   -1    0    0    0    0  0.00000000000E+00  0.00000000000E+00  0.45593999997E+02  0.45594000000E+02  0.51100000000E-03 0.  1.
         11   -1    0    0    0    0 -0.00000000000E+00 -0.00000000000E+00 -0.45593999997E+02  0.45594000000E+02  0.51100000000E-03 0. -1.
    9900012    2    1    2    0    0  0.46354267218E-01 -0.18737368387E+02  0.40963672553E+02  0.46142316613E+02  0.99999895338E+01 0.  0.
         12    1    1    2    0    0 -0.46354267218E-01  0.18737368387E+02 -0.40963672553E+02  0.45045683387E+02  0.00000000000E+00 0. -1.
         11    1    3    3    0    0 -0.23850604212E+00 -0.11478635771E+01  0.48042600262E+01  0.49452391838E+01  0.51100000000E-03 0.  1.
        -11    1    3    3    0    0  0.34836055016E+01 -0.48760212564E+01  0.16618937191E+02  0.17666356846E+02  0.51100000000E-03 0. -1.
        -12    1    3    3    0    0 -0.31987451923E+01 -0.12713483553E+02  0.19540475335E+02  0.23530720584E+02  0.00000000000E+00 0.  1.
</event>
<event>
 7    1  0.1541902E-008  0.4614232E+02  0.7816164E-02  0.1320468E+00
        -11   -1    0    0    0    0  0.00000000000E+00  0.00000000000E+00  0.45593999997E+02  0.45594000000E+02  0.51100000000E-03 0.  1.
         11   -1    0    0    0    0 -0.00000000000E+00 -0.00000000000E+00 -0.45593999997E+02  0.45594000000E+02  0.51100000000E-03 0. -1.
    9900012    2    1    2    0    0 -0.22386335577E+02 -0.31112566740E+02  0.23663760241E+02  0.46142318981E+02  0.10000011126E+02 0.  0.
         12    1    1    2    0    0  0.22386335577E+02  0.31112566740E+02 -0.23663760241E+02  0.45045681019E+02  0.00000000000E+00 0. -1.
         11    1    3    3    0    0 -0.57117808752E+00 -0.63733370999E+01  0.49383922692E+01  0.80829071913E+01  0.51100000000E-03 0.  1.
        -11    1    3    3    0    0 -0.13488101625E+02 -0.13686518805E+02  0.12182220793E+02  0.22752058943E+02  0.51100000000E-03 0. -1.
        -12    1    3    3    0    0 -0.83270558646E+01 -0.11052710835E+02  0.65431471785E+01  0.15307352847E+02  0.00000000000E+00 0.  1.
</event>
<event>
 7    1  0.1541902E-008  0.4614232E+02  0.7816164E-02  0.1320468E+00
        -11   -1    0    0    0    0  0.00000000000E+00  0.00000000000E+00  0.45593999997E+02  0.45594000000E+02  0.51100000000E-03 0.  1.
         11   -1    0    0    0    0 -0.00000000000E+00 -0.00000000000E+00 -0.45593999997E+02  0.45594000000E+02  0.51100000000E-03 0. -1.
    9900012    2    1    2    0    0 -0.62795232275E+01  0.44604801127E+02 -0.30456690716E+00  0.46142318114E+02  0.10000003220E+02 0.  0.
         12    1    1    2    0    0  0.62795232275E+01 -0.44604801127E+02  0.30456690716E+00  0.45045681886E+02  0.00000000000E+00 0. -1.
         11    1    3    3    0    0 -0.11320822078E+00  0.15632969640E+02  0.23610524691E+01  0.15810664910E+02  0.51100000000E-03 0.  1.
        -11    1    3    3    0    0 -0.55923093897E+01  0.12070526607E+02 -0.12258235931E+01  0.13359422915E+02  0.51100000000E-03 0. -1.
        -12    1    3    3    0    0 -0.57400561696E+00  0.16901304880E+02 -0.14397957832E+01  0.16972230290E+02  0.00000000000E+00 0.  1.
</event>
<event>
 7    1  0.1541902E-008  0.4614232E+02  0.7816164E-02  0.1320468E+00
        -11   -1    0    0    0    0  0.00000000000E+00  0.00000000000E+00  0.45593999997E+02  0.45594000000E+02  0.51100000000E-03 0.  1.
         11   -1    0    0    0    0 -0.00000000000E+00 -0.00000000000E+00 -0.45593999997E+02  0.45594000000E+02  0.51100000000E-03 0. -1.
    9900012    2    1    2    0    0  0.42659152341E+02  0.58964491271E+01  0.13211444469E+02  0.46142315904E+02  0.99999830657E+01 0.  0.
         12    1    1    2    0    0 -0.42659152341E+02 -0.58964491271E+01 -0.13211444469E+02  0.45045684096E+02  0.00000000000E+00 0. -1.
         11    1    3    3    0    0  0.65343317755E+01  0.10433417317E+01  0.51898636148E+01  0.84095623146E+01  0.51100000000E-03 0. -1.
        -11    1    3    3    0    0  0.25377992051E+02  0.32161161201E+01  0.29937186380E+01  0.25755547655E+02  0.51100000000E-03 0.  1.
        -12    1    3    3    0    0  0.10746828514E+02  0.16369912752E+01  0.50278622158E+01  0.11977205935E+02  0.00000000000E+00 0.  1.
</event>
<event>
 7    1  0.1541902E-008  0.4614232E+02  0.7816164E-02  0.1320468E+00
        -11   -1    0    0    0    0  0.00000000000E+00  0.00000000000E+00  0.45593999997E+02  0.45594000000E+02  0.51100000000E-03 0.  1.
         11   -1    0    0    0    0 -0.00000000000E+00 -0.00000000000E+00 -0.45593999997E+02  0.45594000000E+02  0.51100000000E-03 0. -1.
    9900012    2    1    2    0    0 -0.70361839521E+01 -0.14074382579E+02  0.42208025049E+02  0.46142317542E+02  0.99999979996E+01 0.  0.
         12    1    1    2    0    0  0.70361839521E+01  0.14074382579E+02 -0.42208025049E+02  0.45045682458E+02  0.00000000000E+00 0. -1.
         11    1    3    3    0    0 -0.59241754356E+01 -0.14370405776E+02  0.32622458769E+02  0.36136259258E+02  0.51100000000E-03 0. -1.
        -11    1    3    3    0    0  0.74281784154E+00 -0.16108549364E+00  0.46860883298E+01  0.47473309320E+01  0.51100000000E-03 0.  1.
         12    1    3    3    0    0 -0.18548263580E+01  0.45710869115E+00  0.48994779507E+01  0.52587273520E+01  0.00000000000E+00 0. -1.
</event>
<event>
 7    1  0.1541902E-008  0.4614232E+02  0.7816164E-02  0.1320468E+00
        -11   -1    0    0    0    0  0.00000000000E+00  0.00000000000E+00  0.45593999997E+02  0.45594000000E+02  0.51100000000E-03 0.  1.
         11   -1    0    0    0    0 -0.00000000000E+00 -0.00000000000E+00 -0.45593999997E+02  0.45594000000E+02  0.51100000000E-03 0. -1.
    9900012    2    1    2    0    0 -0.29379182851E+02  0.32475136473E+02  0.10551900553E+02  0.46142317863E+02  0.10000000929E+02 0.  0.
         12    1    1    2    0    0  0.29379182851E+02 -0.32475136473E+02 -0.10551900553E+02  0.45045682137E+02  0.00000000000E+00 0. -1.
         11    1    3    3    0    0 -0.55842712309E+01  0.39772630768E+01  0.41910664337E+01  0.80354057069E+01  0.51100000000E-03 0. -1.
        -11    1    3    3    0    0 -0.18413466284E+02  0.23262708670E+02  0.28079742351E+01  0.29800907282E+02  0.51100000000E-03 0.  1.
        -12    1    3    3    0    0 -0.53814453353E+01  0.52351647261E+01  0.35528598847E+01  0.83060048740E+01  0.00000000000E+00 0.  1.
</event>
<event>
 7    1  0.1541902E-008  0.4614232E+02  0.7816164E-02  0.1320468E+00
        -11   -1    0    0    0    0  0.00000000000E+00  0.00000000000E+00  0.45593999997E+02  0.45594000000E+02  0.51100000000E-03 0.  1.
         11   -1    0    0    0    0 -0.00000000000E+00 -0.00000000000E+00 -0.45593999997E+02  0.45594000000E+02  0.51100000000E-03 0. -1.
    9900012    2    1    2    0    0 -0.21225248269E+02 -0.30833093182E+02  0.25058385950E+02  0.46142317569E+02  0.99999982455E+01 0.  0.
         12    1    1    2    0    0  0.21225248269E+02  0.30833093182E+02 -0.25058385950E+02  0.45045682431E+02  0.00000000000E+00 0. -1.
         11    1    3    3    0    0 -0.70095792150E+01 -0.48270535580E+01  0.77223953596E+01  0.11492172866E+02  0.51100000000E-03 0. -1.
        -11    1    3    3    0    0 -0.11090582621E+02 -0.19746938141E+02  0.10861517835E+02  0.25118024579E+02  0.51100000000E-03 0.  1.
        -12    1    3    3    0    0 -0.31250864328E+01 -0.62591014837E+01  0.64744727559E+01  0.95321201242E+01  0.00000000000E+00 0.  1.
</event>
<event>
 7    1  0.1541902E-008  0.4614232E+02  0.7816164E-02  0.1320468E+00
        -11   -1    0    0    0    0  0.00000000000E+00  0.00000000000E+00  0.45593999997E+02  0.45594000000E+02  0.51100000000E-03 0.  1.
         11   -1    0    0    0    0 -0.00000000000E+00 -0.00000000000E+00 -0.45593999997E+02  0.45594000000E+02  0.51100000000E-03 0. -1.
    9900012    2    1    2    0    0 -0.94748719813E+00  0.25983033815E+02  0.36784478596E+02  0.46142316036E+02  0.99999842656E+01 0.  0.
         12    1    1    2    0    0  0.94748719813E+00 -0.25983033815E+02 -0.36784478596E+02  0.45045683964E+02  0.00000000000E+00 0. -1.
         11    1    3    3    0    0 -0.11337835432E+01  0.69207342122E+00  0.14776533401E+01  0.19869298925E+01  0.51100000000E-03 0. -1.
        -11    1    3    3    0    0 -0.35325514364E+01  0.16615558000E+02  0.24410562717E+02  0.29739389028E+02  0.51100000000E-03 0.  1.
        -12    1    3    3    0    0  0.37188477815E+01  0.86754023939E+01  0.10896262539E+02  0.14415997115E+02  0.00000000000E+00 0.  1.
</event>
<event>
 7    1  0.1541902E-008  0.4614232E+02  0.7816164E-02  0.1320468E+00
        -11   -1    0    0    0    0  0.00000000000E+00  0.00000000000E+00  0.45593999997E+02  0.45594000000E+02  0.51100000000E-03 0. -1.
         11   -1    0    0    0    0 -0.00000000000E+00 -0.00000000000E+00 -0.45593999997E+02  0.45594000000E+02  0.51100000000E-03 0.  1.
    9900012    2    1    2    0    0 -0.20907425486E+02  0.16633375625E+02 -0.36267393087E+02  0.46142318448E+02  0.10000006267E+02 0.  0.
         12    1    1    2    0    0  0.20907425486E+02 -0.16633375625E+02  0.36267393087E+02  0.45045681552E+02  0.00000000000E+00 0. -1.
         11    1    3    3    0    0 -0.56395250064E+01  0.71114362335E+01 -0.82917739436E+01  0.12293505724E+02  0.51100000000E-03 0. -1.
        -11    1    3    3    0    0 -0.88661522527E+01  0.88103412634E+01 -0.16648051499E+02  0.20817982321E+02  0.51100000000E-03 0.  1.
        -12    1    3    3    0    0 -0.64017482271E+01  0.71159812805E+00 -0.11327567644E+02  0.13030830403E+02  0.00000000000E+00 0.  1.
</event>
<event>
 7    1  0.1541902E-008  0.4614232E+02  0.7816164E-02  0.1320468E+00
        -11   -1    0    0    0    0  0.00000000000E+00  0.00000000000E+00  0.45593999997E+02  0.45594000000E+02  0.51100000000E-03 0.  1.
         11   -1    0    0    0    0 -0.00000000000E+00 -0.00000000000E+00 -0.45593999997E+02  0.45594000000E+02  0.51100000000E-03 0. -1.
    9900012    2    1    2    0    0  0.34125318688E+02  0.21223770079E+02  0.20350128188E+02  0.46142317530E+02  0.99999978914E+01 0.  0.
         12    1    1    2    0    0 -0.34125318688E+02 -0.21223770079E+02 -0.20350128188E+02  0.45045682470E+02  0.00000000000E+00 0. -1.
         11    1    3    3    0    0 -0.14701057592E+00 -0.24884508424E+00  0.68716928855E+00  0.74547828783E+00  0.51100000000E-03 0. -1.
        -11    1    3    3    0    0  0.17942919577E+02  0.11242458088E+02  0.68421694287E+01  0.22252112474E+02  0.51100000000E-03 0.  1.
         12    1    3    3    0    0  0.16329409687E+02  0.10230157075E+02  0.12820789471E+02  0.23144726768E+02  0.00000000000E+00 0. -1.
</event>
<event>
 7    1  0.1541902E-008  0.4614232E+02  0.7816164E-02  0.1320468E+00
        -11   -1    0    0    0    0  0.00000000000E+00  0.00000000000E+00  0.45593999997E+02  0.45594000000E+02  0.51100000000E-03 0.  1.
         11   -1    0    0    0    0 -0.00000000000E+00 -0.00000000000E+00 -0.45593999997E+02  0.45594000000E+02  0.51100000000E-03 0. -1.
    9900012    2    1    2    0    0  0.33310137875E+02  0.18889837702E+02  0.23721768758E+02  0.46142316892E+02  0.99999920728E+01 0.  0.
         12    1    1    2    0    0 -0.33310137875E+02 -0.18889837702E+02 -0.23721768758E+02  0.45045683108E+02  0.00000000000E+00 0. -1.
         11    1    3    3    0    0  0.12525521785E+02  0.22927167087E+01  0.91782274956E+01  0.15696659075E+02  0.51100000000E-03 0. -1.
        -11    1    3    3    0    0  0.15434209874E+02  0.12788461929E+02  0.12240849571E+02  0.23486123380E+02  0.51100000000E-03 0.  1.
        -12    1    3    3    0    0  0.53504062165E+01  0.38086590645E+01  0.23026916907E+01  0.69595344365E+01  0.00000000000E+00 0.  1.
</event>
<event>
 7    1  0.1541902E-008  0.4614232E+02  0.7816164E-02  0.1320468E+00
        -11   -1    0    0    0    0  0.00000000000E+00  0.00000000000E+00  0.45593999997E+02  0.45594000000E+02  0.51100000000E-03 0. -1.
         11   -1    0    0    0    0 -0.00000000000E+00 -0.00000000000E+00 -0.45593999997E+02  0.45594000000E+02  0.51100000000E-03 0.  1.
    9900012    2    1    2    0    0  0.23665068072E+01 -0.44893567775E+02 -0.28426589457E+01  0.46142317722E+02  0.99999996446E+01 0.  0.
         12    1    1    2    0    0 -0.23665068072E+01  0.44893567775E+02  0.28426589457E+01  0.45045682278E+02  0.00000000000E+00 0. -1.
         11    1    3    3    0    0  0.24646034105E+01 -0.10625576802E+02 -0.83193867188E+00  0.10939345253E+02  0.51100000000E-03 0. -1.
        -11    1    3    3    0    0 -0.16252548179E+01 -0.82167484130E+01 -0.34699173561E+01  0.90662414718E+01  0.51100000000E-03 0.  1.
        -12    1    3    3    0    0  0.15271582146E+01 -0.26051242559E+02  0.14591970823E+01  0.26136730997E+02  0.00000000000E+00 0.  1.
</event>
<event>
 7    1  0.1541902E-008  0.4614232E+02  0.7816164E-02  0.1320468E+00
        -11   -1    0    0    0    0  0.00000000000E+00  0.00000000000E+00  0.45593999997E+02  0.45594000000E+02  0.51100000000E-03 0. -1.
         11   -1    0    0    0    0 -0.00000000000E+00 -0.00000000000E+00 -0.45593999997E+02  0.45594000000E+02  0.51100000000E-03 0.  1.
    9900012    2    1    2    0    0 -0.43519930284E+02 -0.91363684633E+01  0.71872078999E+01  0.46142317432E+02  0.99999969991E+01 0.  0.
         12    1    1    2    0    0  0.43519930284E+02  0.91363684633E+01 -0.71872078999E+01  0.45045682568E+02  0.00000000000E+00 0. -1.
         11    1    3    3    0    0 -0.41044064045E+01  0.82271215222E+00  0.99977280610E+00  0.43037835847E+01  0.51100000000E-03 0. -1.
        -11    1    3    3    0    0 -0.22940326504E+02 -0.80806434722E+01  0.67693934463E+01  0.25246387205E+02  0.51100000000E-03 0.  1.
        -12    1    3    3    0    0 -0.16475197376E+02 -0.18784371434E+01 -0.58195835253E+00  0.16592146642E+02  0.00000000000E+00 0.  1.
</event>
<event>
 7    1  0.1541902E-008  0.4614232E+02  0.7816164E-02  0.1320468E+00
        -11   -1    0    0    0    0  0.00000000000E+00  0.00000000000E+00  0.45593999997E+02  0.45594000000E+02  0.51100000000E-03 0. -1.
         11   -1    0    0    0    0 -0.00000000000E+00 -0.00000000000E+00 -0.45593999997E+02  0.45594000000E+02  0.51100000000E-03 0.  1.
    9900012    2    1    2    0    0  0.31063381917E+02  0.54773748438E+01 -0.32158641578E+02  0.46142316972E+02  0.99999928037E+01 0.  0.
         12    1    1    2    0    0 -0.31063381917E+02 -0.54773748438E+01  0.32158641578E+02  0.45045683028E+02  0.00000000000E+00 0. -1.
         11    1    3    3    0    0  0.13402635868E+02  0.67838112632E+01 -0.11651935130E+02  0.19011005655E+02  0.51100000000E-03 0. -1.
        -11    1    3    3    0    0  0.16463358358E+02 -0.87450629205E+00 -0.19200876269E+02  0.25307717784E+02  0.51100000000E-03 0.  1.
         12    1    3    3    0    0  0.11973876909E+01 -0.43193012736E+00 -0.13058301790E+01  0.18235935329E+01  0.00000000000E+00 0. -1.
</event>
<event>
 7    1  0.1541902E-008  0.4614232E+02  0.7816164E-02  0.1320468E+00
        -11   -1    0    0    0    0  0.00000000000E+00  0.00000000000E+00  0.45593999997E+02  0.45594000000E+02  0.51100000000E-03 0.  1.
         11   -1    0    0    0    0 -0.00000000000E+00 -0.00000000000E+00 -0.45593999997E+02  0.45594000000E+02  0.51100000000E-03 0. -1.
    9900012    2    1    2    0    0  0.68015298476E+01  0.42045259786E+01  0.44330289878E+02  0.46142318213E+02  0.10000004121E+02 0.  0.
         12    1    1    2    0    0 -0.68015298476E+01 -0.42045259786E+01 -0.44330289878E+02  0.45045681787E+02  0.00000000000E+00 0. -1.
         11    1    3    3    0    0 -0.12556017757E+01  0.15034978655E+00  0.31555313351E+01  0.33994880711E+01  0.51100000000E-03 0. -1.
        -11    1    3    3    0    0  0.93857671006E+00  0.30642523227E+01  0.22600414510E+02  0.22826504437E+02  0.51100000000E-03 0.  1.
        -12    1    3    3    0    0  0.71185549133E+01  0.98992386942E+00  0.18574344033E+02  0.19916325705E+02  0.00000000000E+00 0.  1.
</event>
<event>
 7    1  0.1541902E-008  0.4614232E+02  0.7816164E-02  0.1320468E+00
        -11   -1    0    0    0    0  0.00000000000E+00  0.00000000000E+00  0.45593999997E+02  0.45594000000E+02  0.51100000000E-03 0. -1.
         11   -1    0    0    0    0 -0.00000000000E+00 -0.00000000000E+00 -0.45593999997E+02  0.45594000000E+02  0.51100000000E-03 0.  1.
    9900012    2    1    2    0    0  0.13884215001E+01  0.26489526544E+02 -0.36407288607E+02  0.46142318803E+02  0.10000009501E+02 0.  0.
         12    1    1    2    0    0 -0.13884215001E+01 -0.26489526544E+02  0.36407288607E+02  0.45045681197E+02  0.00000000000E+00 0. -1.
         11    1    3    3    0    0  0.21188747968E+01  0.31850049375E+01 -0.75873445597E+01  0.84971574415E+01  0.51100000000E-03 0. -1.
        -11    1    3    3    0    0 -0.99138053693E+00  0.23684390602E+02 -0.28559742486E+02  0.37115927641E+02  0.51100000000E-03 0.  1.
        -12    1    3    3    0    0  0.26092724021E+00 -0.37986899534E+00 -0.26020156165E+00  0.52923372057E+00  0.00000000000E+00 0.  1.
</event>
<event>
 7    1  0.1541902E-008  0.4614232E+02  0.7816164E-02  0.1320468E+00
        -11   -1    0    0    0    0  0.00000000000E+00  0.00000000000E+00  0.45593999997E+02  0.45594000000E+02  0.51100000000E-03 0.  1.
         11   -1    0    0    0    0 -0.00000000000E+00 -0.00000000000E+00 -0.45593999997E+02  0.45594000000E+02  0.51100000000E-03 0. -1.
    9900012    2    1    2    0    0  0.78926396864E+01 -0.27788869538E+02  0.34562964633E+02  0.46142317015E+02  0.99999931931E+01 0.  0.
         12    1    1    2    0    0 -0.78926396864E+01  0.27788869538E+02 -0.34562964633E+02  0.45045682985E+02  0.00000000000E+00 0. -1.
         11    1    3    3    0    0  0.17318201510E+01  0.92174596657E-01  0.30743492021E+01  0.35297762634E+01  0.51100000000E-03 0. -1.
        -11    1    3    3    0    0  0.63159856230E+01 -0.25205779360E+02  0.27802022228E+02  0.38054900180E+02  0.51100000000E-03 0.  1.
         12    1    3    3    0    0 -0.15516608762E+00 -0.26752647744E+01  0.36865932031E+01  0.45576405708E+01  0.00000000000E+00 0. -1.
</event>
<event>
 7    1  0.1541902E-008  0.4614232E+02  0.7816164E-02  0.1320468E+00
        -11   -1    0    0    0    0  0.00000000000E+00  0.00000000000E+00  0.45593999997E+02  0.45594000000E+02  0.51100000000E-03 0.  1.
         11   -1    0    0    0    0 -0.00000000000E+00 -0.00000000000E+00 -0.45593999997E+02  0.45594000000E+02  0.51100000000E-03 0. -1.
    9900012    2    1    2    0    0  0.20953445332E+02  0.38087335296E+02  0.11807678406E+02  0.46142320401E+02  0.10000024072E+02 0.  0.
         12    1    1    2    0    0 -0.20953445332E+02 -0.38087335296E+02 -0.11807678406E+02  0.45045679599E+02  0.00000000000E+00 0. -1.
         11    1    3    3    0    0  0.13685519824E+02  0.28794651766E+02  0.59351114350E+01  0.32429168524E+02  0.51100000000E-03 0. -1.
        -11    1    3    3    0    0  0.49546930157E+01  0.86567934765E+01  0.44312754002E+01  0.10914451801E+02  0.51100000000E-03 0.  1.
         12    1    3    3    0    0  0.23132324928E+01  0.63589005348E+00  0.14412915710E+01  0.27987000765E+01  0.00000000000E+00 0. -1.
</event>
<event>
 7    1  0.1541902E-008  0.4614232E+02  0.7816164E-02  0.1320468E+00
        -11   -1    0    0    0    0  0.00000000000E+00  0.00000000000E+00  0.45593999997E+02  0.45594000000E+02  0.51100000000E-03 0. -1.
         11   -1    0    0    0    0 -0.00000000000E+00 -0.00000000000E+00 -0.45593999997E+02  0.45594000000E+02  0.51100000000E-03 0.  1.
    9900012    2    1    2    0    0  0.16142234763E+02 -0.41738345365E+02 -0.51431833808E+01  0.46142317053E+02  0.99999935395E+01 0.  0.
         12    1    1    2    0    0 -0.16142234763E+02  0.41738345365E+02  0.51431833808E+01  0.45045682947E+02  0.00000000000E+00 0. -1.
         11    1    3    3    0    0  0.18450256367E+01 -0.39919666485E+01  0.12299422257E+01  0.45664729784E+01  0.51100000000E-03 0. -1.
        -11    1    3    3    0    0  0.81359857927E+01 -0.13405522180E+02 -0.48796215988E+01  0.16422941179E+02  0.51100000000E-03 0.  1.
        -12    1    3    3    0    0  0.61612233331E+01 -0.24340856536E+02 -0.14935040077E+01  0.25152902896E+02  0.00000000000E+00 0.  1.
</event>
<event>
 7    1  0.1541902E-008  0.4614232E+02  0.7816164E-02  0.1320468E+00
        -11   -1    0    0    0    0  0.00000000000E+00  0.00000000000E+00  0.45593999997E+02  0.45594000000E+02  0.51100000000E-03 0. -1.
         11   -1    0    0    0    0 -0.00000000000E+00 -0.00000000000E+00 -0.45593999997E+02  0.45594000000E+02  0.51100000000E-03 0.  1.
    9900012    2    1    2    0    0 -0.10553713531E+02  0.43784057988E+02  0.82997790648E+00  0.46142318004E+02  0.10000002212E+02 0.  0.
         12    1    1    2    0    0  0.10553713531E+02 -0.43784057988E+02 -0.82997790648E+00  0.45045681996E+02  0.00000000000E+00 0. -1.
         11    1    3    3    0    0 -0.68050278627E+00  0.11786108891E+02 -0.31924337299E+01  0.12229762067E+02  0.51100000000E-03 0. -1.
        -11    1    3    3    0    0 -0.91961138740E+01  0.25564114805E+02  0.26284075703E+01  0.27294706497E+02  0.51100000000E-03 0.  1.
         12    1    3    3    0    0 -0.67709687105E+00  0.64338342916E+01  0.13940040661E+01  0.66178494393E+01  0.00000000000E+00 0. -1.
</event>
<event>
 7    1  0.1541902E-008  0.4614231E+02  0.7816164E-02  0.1320468E+00
        -11   -1    0    0    0    0  0.00000000000E+00  0.00000000000E+00  0.45593999997E+02  0.45594000000E+02  0.51100000000E-03 0.  1.
         11   -1    0    0    0    0 -0.00000000000E+00 -0.00000000000E+00 -0.45593999997E+02  0.45594000000E+02  0.51100000000E-03 0. -1.
    9900012    2    1    2    0    0  0.12638811460E+02 -0.11200393440E+02  0.41760335500E+02  0.46142312199E+02  0.99999492828E+01 0.  0.
         12    1    1    2    0    0 -0.12638811460E+02  0.11200393440E+02 -0.41760335500E+02  0.45045687801E+02  0.00000000000E+00 0. -1.
         11    1    3    3    0    0  0.80999310005E+01 -0.87527966485E+01  0.19007078381E+02  0.22438568587E+02  0.51100000000E-03 0.  1.
        -11    1    3    3    0    0 -0.21691832175E+00  0.82216455999E+00  0.36483965579E+01  0.37461721566E+01  0.51100000000E-03 0. -1.
        -12    1    3    3    0    0  0.47557987814E+01 -0.32697613514E+01  0.19104860561E+02  0.19957571456E+02  0.00000000000E+00 0.  1.
</event>
<event>
 7    1  0.1541902E-008  0.4614232E+02  0.7816164E-02  0.1320468E+00
        -11   -1    0    0    0    0  0.00000000000E+00  0.00000000000E+00  0.45593999997E+02  0.45594000000E+02  0.51100000000E-03 0. -1.
         11   -1    0    0    0    0 -0.00000000000E+00 -0.00000000000E+00 -0.45593999997E+02  0.45594000000E+02  0.51100000000E-03 0.  1.
    9900012    2    1    2    0    0 -0.14213851522E+02  0.30975356622E+02 -0.29455173333E+02  0.46142317310E+02  0.99999958842E+01 0.  0.
         12    1    1    2    0    0  0.14213851522E+02 -0.30975356622E+02  0.29455173333E+02  0.45045682690E+02  0.00000000000E+00 0. -1.
         11    1    3    3    0    0 -0.51764187984E+01  0.44030698672E+01 -0.75220301621E+01  0.10137222196E+02  0.51100000000E-03 0. -1.
        -11    1    3    3    0    0 -0.57821469553E+01  0.18486707443E+02 -0.18001024125E+02  0.26442928077E+02  0.51100000000E-03 0.  1.
         12    1    3    3    0    0 -0.32552857687E+01  0.80855793114E+01 -0.39321190462E+01  0.95621670363E+01  0.00000000000E+00 0. -1.
</event>
<event>
 7    1  0.1541902E-008  0.4614232E+02  0.7816164E-02  0.1320468E+00
        -11   -1    0    0    0    0  0.00000000000E+00  0.00000000000E+00  0.45593999997E+02  0.45594000000E+02  0.51100000000E-03 0.  1.
         11   -1    0    0    0    0 -0.00000000000E+00 -0.00000000000E+00 -0.45593999997E+02  0.45594000000E+02  0.51100000000E-03 0. -1.
    9900012    2    1    2    0    0 -0.87773469325E+01 -0.26598308068E+02  0.35278913700E+02  0.46142316932E+02  0.99999924381E+01 0.  0.
         12    1    1    2    0    0  0.87773469325E+01  0.26598308068E+02 -0.35278913700E+02  0.45045683068E+02  0.00000000000E+00 0. -1.
         11    1    3    3    0    0 -0.11334431196E+01 -0.22402532677E+01  0.63438588364E+01  0.68226075078E+01  0.51100000000E-03 0.  1.
        -11    1    3    3    0    0 -0.86466169154E+00 -0.15134801377E+02  0.15784637772E+02  0.21885260849E+02  0.51100000000E-03 0. -1.
        -12    1    3    3    0    0 -0.67792421214E+01 -0.92232534232E+01  0.13150417091E+02  0.17434448575E+02  0.00000000000E+00 0.  1.
</event>
<event>
 7    1  0.1541902E-008  0.4614232E+02  0.7816164E-02  0.1320468E+00
        -11   -1    0    0    0    0  0.00000000000E+00  0.00000000000E+00  0.45593999997E+02  0.45594000000E+02  0.51100000000E-03 0.  1.
         11   -1    0    0    0    0 -0.00000000000E+00 -0.00000000000E+00 -0.45593999997E+02  0.45594000000E+02  0.51100000000E-03 0. -1.
    9900012    2    1    2    0    0 -0.30617997084E+02 -0.22599178895E+01  0.32962778310E+02  0.46142315099E+02  0.99999757230E+01 0.  0.
         12    1    1    2    0    0  0.30617997084E+02  0.22599178895E+01 -0.32962778310E+02  0.45045684901E+02  0.00000000000E+00 0. -1.
         11    1    3    3    0    0 -0.10537277484E+02  0.33697861610E+01  0.10209027794E+02  0.15053701349E+02  0.51100000000E-03 0. -1.
        -11    1    3    3    0    0 -0.64286542080E+01 -0.97500049477E+00  0.94185621938E+01  0.11444978591E+02  0.51100000000E-03 0.  1.
         12    1    3    3    0    0 -0.13652065392E+02 -0.46547035557E+01  0.13335188322E+02  0.19643635158E+02  0.00000000000E+00 0. -1.
</event>
<event>
 7    1  0.1541902E-008  0.4614232E+02  0.7816164E-02  0.1320468E+00
        -11   -1    0    0    0    0  0.00000000000E+00  0.00000000000E+00  0.45593999997E+02  0.45594000000E+02  0.51100000000E-03 0. -1.
         11   -1    0    0    0    0 -0.00000000000E+00 -0.00000000000E+00 -0.45593999997E+02  0.45594000000E+02  0.51100000000E-03 0.  1.
    9900012    2    1    2    0    0  0.21288592795E+02  0.23935798947E+02 -0.31669967419E+02  0.46142317735E+02  0.99999997600E+01 0.  0.
         12    1    1    2    0    0 -0.21288592795E+02 -0.23935798947E+02  0.31669967419E+02  0.45045682265E+02  0.00000000000E+00 0. -1.
         11    1    3    3    0    0  0.31474590451E+01  0.17182310235E+01 -0.14874707984E+01  0.38821882911E+01  0.51100000000E-03 0. -1.
        -11    1    3    3    0    0  0.10336660734E+02  0.17489520915E+02 -0.18882554323E+02  0.27735910927E+02  0.51100000000E-03 0.  1.
        -12    1    3    3    0    0  0.78044730160E+01  0.47280470084E+01 -0.11299942298E+02  0.14524218516E+02  0.00000000000E+00 0.  1.
</event>
<event>
 7    1  0.1541902E-008  0.4614232E+02  0.7816164E-02  0.1320468E+00
        -11   -1    0    0    0    0  0.00000000000E+00  0.00000000000E+00  0.45593999997E+02  0.45594000000E+02  0.51100000000E-03 0.  1.
         11   -1    0    0    0    0 -0.00000000000E+00 -0.00000000000E+00 -0.45593999997E+02  0.45594000000E+02  0.51100000000E-03 0. -1.
    9900012    2    1    2    0    0  0.31647023275E+02 -0.33396111146E+01  0.31881442066E+02  0.46142318378E+02  0.10000005627E+02 0.  0.
         12    1    1    2    0    0 -0.31647023275E+02  0.33396111146E+01 -0.31881442066E+02  0.45045681622E+02  0.00000000000E+00 0. -1.
         11    1    3    3    0    0  0.17743664146E+02  0.21537673420E+01  0.15244951552E+02  0.23492230188E+02  0.51100000000E-03 0. -1.
        -11    1    3    3    0    0  0.12130524516E+02 -0.58026888240E+01  0.13634072350E+02  0.19149641034E+02  0.51100000000E-03 0.  1.
        -12    1    3    3    0    0  0.17728346129E+01  0.30931036744E+00  0.30024181628E+01  0.35004471561E+01  0.00000000000E+00 0.  1.
</event>
<event>
 7    1  0.1541902E-008  0.4614232E+02  0.7816164E-02  0.1320468E+00
        -11   -1    0    0    0    0  0.00000000000E+00  0.00000000000E+00  0.45593999997E+02  0.45594000000E+02  0.51100000000E-03 0.  1.
         11   -1    0    0    0    0 -0.00000000000E+00 -0.00000000000E+00 -0.45593999997E+02  0.45594000000E+02  0.51100000000E-03 0. -1.
    9900012    2    1    2    0    0 -0.28955869518E+02 -0.34503787815E+02 -0.39962085966E+00  0.46142318187E+02  0.10000003884E+02 0.  0.
         12    1    1    2    0    0  0.28955869518E+02  0.34503787815E+02  0.39962085966E+00  0.45045681813E+02  0.00000000000E+00 0. -1.
         11    1    3    3    0    0 -0.51973789523E+00  0.16206283298E+00 -0.68163352844E+00  0.87236252199E+00  0.51100000000E-03 0.  1.
        -11    1    3    3    0    0 -0.64642897883E+00  0.16798601895E+00  0.23832676101E+00  0.70914711687E+00  0.51100000000E-03 0. -1.
        -12    1    3    3    0    0 -0.27789702644E+02 -0.34833836667E+02  0.43685907764E-01  0.44560808548E+02  0.00000000000E+00 0.  1.
</event>
<event>
 7    1  0.1541902E-008  0.4614232E+02  0.7816164E-02  0.1320468E+00
        -11   -1    0    0    0    0  0.00000000000E+00  0.00000000000E+00  0.45593999997E+02  0.45594000000E+02  0.51100000000E-03 0. -1.
         11   -1    0    0    0    0 -0.00000000000E+00 -0.00000000000E+00 -0.45593999997E+02  0.45594000000E+02  0.51100000000E-03 0.  1.
    9900012    2    1    2    0    0 -0.44298232143E+02  0.57901409966E+00 -0.81513707352E+01  0.46142317930E+02  0.10000001538E+02 0.  0.
         12    1    1    2    0    0  0.44298232143E+02 -0.57901409966E+00  0.81513707352E+01  0.45045682070E+02  0.00000000000E+00 0. -1.
         11    1    3    3    0    0 -0.34118293604E+01  0.11467368294E+01 -0.28626439739E+01  0.45989472407E+01  0.51100000000E-03 0. -1.
        -11    1    3    3    0    0 -0.22161252281E+01 -0.12196371006E+01 -0.31798855754E+00  0.25494789012E+01  0.51100000000E-03 0.  1.
         12    1    3    3    0    0 -0.38670277554E+02  0.65191437080E+00 -0.49707382038E+01  0.38993891788E+02  0.00000000000E+00 0. -1.
</event>
<event>
 7    1  0.1541902E-008  0.4614232E+02  0.7816164E-02  0.1320468E+00
        -11   -1    0    0    0    0  0.00000000000E+00  0.00000000000E+00  0.45593999997E+02  0.45594000000E+02  0.51100000000E-03 0.  1.
         11   -1    0    0    0    0 -0.00000000000E+00 -0.00000000000E+00 -0.45593999997E+02  0.45594000000E+02  0.51100000000E-03 0. -1.
    9900012    2    1    2    0    0 -0.38850241698E+02 -0.83840120598E+01  0.21200956201E+02  0.46142317831E+02  0.10000000635E+02 0.  0.
         12    1    1    2    0    0  0.38850241698E+02  0.83840120598E+01 -0.21200956201E+02  0.45045682169E+02  0.00000000000E+00 0. -1.
         11    1    3    3    0    0 -0.20724496370E+01  0.43515415114E+00 -0.54564235274E+00  0.21868087414E+01  0.51100000000E-03 0. -1.
        -11    1    3    3    0    0 -0.28869341946E+02 -0.86425468884E+01  0.15573522560E+02  0.33921484730E+02  0.51100000000E-03 0.  1.
         12    1    3    3    0    0 -0.79084501156E+01 -0.17661932254E+00  0.61730759940E+01  0.10034024359E+02  0.00000000000E+00 0. -1.
</event>
<event>
 7    1  0.1541902E-008  0.4614232E+02  0.7816164E-02  0.1320468E+00
        -11   -1    0    0    0    0  0.00000000000E+00  0.00000000000E+00  0.45593999997E+02  0.45594000000E+02  0.51100000000E-03 0. -1.
         11   -1    0    0    0    0 -0.00000000000E+00 -0.00000000000E+00 -0.45593999997E+02  0.45594000000E+02  0.51100000000E-03 0.  1.
    9900012    2    1    2    0    0 -0.44428010342E+02  0.59915455395E+01 -0.44007639941E+01  0.46142318247E+02  0.10000004428E+02 0.  0.
         12    1    1    2    0    0  0.44428010342E+02 -0.59915455395E+01  0.44007639941E+01  0.45045681753E+02  0.00000000000E+00 0. -1.
         11    1    3    3    0    0 -0.15497673094E+02  0.28584965874E+01 -0.56095605355E+01  0.16727702883E+02  0.51100000000E-03 0. -1.
        -11    1    3    3    0    0 -0.91616706474E+01  0.20363183392E+01  0.20151063742E+01  0.95991382629E+01  0.51100000000E-03 0.  1.
        -12    1    3    3    0    0 -0.19768666600E+02  0.10967306129E+01 -0.80630983278E+00  0.19815477101E+02  0.00000000000E+00 0.  1.
</event>
<event>
 7    1  0.1541902E-008  0.4614232E+02  0.7816164E-02  0.1320468E+00
        -11   -1    0    0    0    0  0.00000000000E+00  0.00000000000E+00  0.45593999997E+02  0.45594000000E+02  0.51100000000E-03 0.  1.
         11   -1    0    0    0    0 -0.00000000000E+00 -0.00000000000E+00 -0.45593999997E+02  0.45594000000E+02  0.51100000000E-03 0. -1.
    9900012    2    1    2    0    0 -0.34373172858E+02  0.21191171909E+02  0.19963284671E+02  0.46142317476E+02  0.99999973997E+01 0.  0.
         12    1    1    2    0    0  0.34373172858E+02 -0.21191171909E+02 -0.19963284671E+02  0.45045682524E+02  0.00000000000E+00 0. -1.
         11    1    3    3    0    0 -0.99130193240E+01  0.23307156063E+01  0.23078579597E+01  0.10441570571E+02  0.51100000000E-03 0. -1.
        -11    1    3    3    0    0 -0.99786035732E+01  0.90843864294E+01  0.88225523882E+01  0.16122531965E+02  0.51100000000E-03 0.  1.
        -12    1    3    3    0    0 -0.14481549961E+02  0.97760698729E+01  0.88328743233E+01  0.19578214940E+02  0.00000000000E+00 0.  1.
</event>
<event>
 7    1  0.1541902E-008  0.4614232E+02  0.7816164E-02  0.1320468E+00
        -11   -1    0    0    0    0  0.00000000000E+00  0.00000000000E+00  0.45593999997E+02  0.45594000000E+02  0.51100000000E-03 0.  1.
         11   -1    0    0    0    0 -0.00000000000E+00 -0.00000000000E+00 -0.45593999997E+02  0.45594000000E+02  0.51100000000E-03 0. -1.
    9900012    2    1    2    0    0 -0.96999582848E+01  0.15452480204E+02  0.41185496099E+02  0.46142318474E+02  0.10000006502E+02 0.  0.
         12    1    1    2    0    0  0.96999582848E+01 -0.15452480204E+02 -0.41185496099E+02  0.45045681526E+02  0.00000000000E+00 0. -1.
         11    1    3    3    0    0 -0.94612157974E+01  0.87929474391E+01  0.33052116223E+02  0.35486235586E+02  0.51100000000E-03 0. -1.
        -11    1    3    3    0    0 -0.38898478195E+00  0.25419834962E+01  0.43978870482E+01  0.50945461040E+01  0.51100000000E-03 0.  1.
         12    1    3    3    0    0  0.15024229456E+00  0.41175492686E+01  0.37354928286E+01  0.55615367839E+01  0.00000000000E+00 0. -1.
</event>
<event>
 7    1  0.1541902E-008  0.4614232E+02  0.7816164E-02  0.1320468E+00
        -11   -1    0    0    0    0  0.00000000000E+00  0.00000000000E+00  0.45593999997E+02  0.45594000000E+02  0.51100000000E-03 0.  1.
         11   -1    0    0    0    0 -0.00000000000E+00 -0.00000000000E+00 -0.45593999997E+02  0.45594000000E+02  0.51100000000E-03 0. -1.
    9900012    2    1    2    0    0  0.15516750798E+02  0.19060911232E+02  0.37749511398E+02  0.46142317598E+02  0.99999985083E+01 0.  0.
         12    1    1    2    0    0 -0.15516750798E+02 -0.19060911232E+02 -0.37749511398E+02  0.45045682402E+02  0.00000000000E+00 0. -1.
         11    1    3    3    0    0  0.10893878206E+02  0.11986445743E+02  0.16368163331E+02  0.23027553821E+02  0.51100000000E-03 0. -1.
        -11    1    3    3    0    0  0.31151860350E+01  0.59254152766E+01  0.18418945466E+02  0.19597767285E+02  0.51100000000E-03 0.  1.
         12    1    3    3    0    0  0.15076865567E+01  0.11490502132E+01  0.29624026017E+01  0.35169964913E+01  0.00000000000E+00 0. -1.
</event>
<event>
 7    1  0.1541902E-008  0.4614232E+02  0.7816164E-02  0.1320468E+00
        -11   -1    0    0    0    0  0.00000000000E+00  0.00000000000E+00  0.45593999997E+02  0.45594000000E+02  0.51100000000E-03 0. -1.
         11   -1    0    0    0    0 -0.00000000000E+00 -0.00000000000E+00 -0.45593999997E+02  0.45594000000E+02  0.51100000000E-03 0.  1.
    9900012    2    1    2    0    0  0.44996212702E+02 -0.68660549564E-01 -0.21094211571E+01  0.46142317306E+02  0.99999958485E+01 0.  0.
         12    1    1    2    0    0 -0.44996212702E+02  0.68660549564E-01  0.21094211571E+01  0.45045682694E+02  0.00000000000E+00 0. -1.
         11    1    3    3    0    0  0.59830466374E+01  0.12897753772E+01  0.59117854986E+00  0.61489722660E+01  0.51100000000E-03 0. -1.
        -11    1    3    3    0    0  0.32177832435E+02 -0.27405035483E+01  0.55067486500E+00  0.32299017059E+02  0.51100000000E-03 0.  1.
        -12    1    3    3    0    0  0.68353336294E+01  0.13820676215E+01 -0.32512745720E+01  0.76943279809E+01  0.00000000000E+00 0.  1.
</event>
<event>
 7    1  0.1541902E-008  0.4614232E+02  0.7816164E-02  0.1320468E+00
        -11   -1    0    0    0    0  0.00000000000E+00  0.00000000000E+00  0.45593999997E+02  0.45594000000E+02  0.51100000000E-03 0.  1.
         11   -1    0    0    0    0 -0.00000000000E+00 -0.00000000000E+00 -0.45593999997E+02  0.45594000000E+02  0.51100000000E-03 0. -1.
    9900012    2    1    2    0    0 -0.55926924325E+01  0.42316491424E+02  0.14392702897E+02  0.46142317058E+02  0.99999935839E+01 0.  0.
         12    1    1    2    0    0  0.55926924325E+01 -0.42316491424E+02 -0.14392702897E+02  0.45045682942E+02  0.00000000000E+00 0. -1.
         11    1    3    3    0    0 -0.55440730554E+01  0.23692699046E+02  0.95615899938E+01  0.26143923531E+02  0.51100000000E-03 0. -1.
        -11    1    3    3    0    0 -0.13468800089E+01  0.29292350881E+01  0.24975708640E+01  0.40782795934E+01  0.51100000000E-03 0.  1.
        -12    1    3    3    0    0  0.12982606318E+01  0.15694557290E+02  0.23335420388E+01  0.15920113933E+02  0.00000000000E+00 0.  1.
</event>
<event>
 7    1  0.1541902E-008  0.4614232E+02  0.7816164E-02  0.1320468E+00
        -11   -1    0    0    0    0  0.00000000000E+00  0.00000000000E+00  0.45593999997E+02  0.45594000000E+02  0.51100000000E-03 0.  1.
         11   -1    0    0    0    0 -0.00000000000E+00 -0.00000000000E+00 -0.45593999997E+02  0.45594000000E+02  0.51100000000E-03 0. -1.
    9900012    2    1    2    0    0 -0.39625638424E+02  0.16397757034E+02 -0.13785346950E+02  0.46142318223E+02  0.10000004208E+02 0.  0.
         12    1    1    2    0    0  0.39625638424E+02 -0.16397757034E+02  0.13785346950E+02  0.45045681777E+02  0.00000000000E+00 0. -1.
         11    1    3    3    0    0 -0.26846999920E+00 -0.61123495992E+00  0.52502749263E+00  0.84931645800E+00  0.51100000000E-03 0. -1.
        -11    1    3    3    0    0 -0.20988066498E+02  0.10070721898E+02 -0.65892520484E+01  0.24193730958E+02  0.51100000000E-03 0.  1.
        -12    1    3    3    0    0 -0.18369101927E+02  0.69382700957E+01 -0.77211223941E+01  0.21099270806E+02  0.00000000000E+00 0.  1.
</event>
<event>
 7    1  0.1541902E-008  0.4614232E+02  0.7816164E-02  0.1320468E+00
        -11   -1    0    0    0    0  0.00000000000E+00  0.00000000000E+00  0.45593999997E+02  0.45594000000E+02  0.51100000000E-03 0.  1.
         11   -1    0    0    0    0 -0.00000000000E+00 -0.00000000000E+00 -0.45593999997E+02  0.45594000000E+02  0.51100000000E-03 0. -1.
    9900012    2    1    2    0    0 -0.30832626927E+02 -0.18775857584E+02  0.26943083189E+02  0.46142318265E+02  0.10000004592E+02 0.  0.
         12    1    1    2    0    0  0.30832626927E+02  0.18775857584E+02 -0.26943083189E+02  0.45045681735E+02  0.00000000000E+00 0. -1.
         11    1    3    3    0    0 -0.83869339744E+01 -0.45306858330E+01  0.39340850487E+01  0.10312361565E+02  0.51100000000E-03 0. -1.
        -11    1    3    3    0    0 -0.17410143130E+02 -0.82534343289E+01  0.18902192720E+02  0.26991205085E+02  0.51100000000E-03 0.  1.
         12    1    3    3    0    0 -0.50355498230E+01 -0.59917374223E+01  0.41068054201E+01  0.88387516153E+01  0.00000000000E+00 0. -1.
</event>
<event>
 7    1  0.1541902E-008  0.4614232E+02  0.7816164E-02  0.1320468E+00
        -11   -1    0    0    0    0  0.00000000000E+00  0.00000000000E+00  0.45593999997E+02  0.45594000000E+02  0.51100000000E-03 0.  1.
         11   -1    0    0    0    0 -0.00000000000E+00 -0.00000000000E+00 -0.45593999997E+02  0.45594000000E+02  0.51100000000E-03 0. -1.
    9900012    2    1    2    0    0 -0.66787755540E+01  0.35993717171E+02  0.26248042046E+02  0.46142318410E+02  0.10000005919E+02 0.  0.
         12    1    1    2    0    0  0.66787755540E+01 -0.35993717171E+02 -0.26248042046E+02  0.45045681590E+02  0.00000000000E+00 0. -1.
         11    1    3    3    0    0 -0.26697982632E+01  0.29835147297E+02  0.19655226531E+02  0.35827248948E+02  0.51100000000E-03 0. -1.
        -11    1    3    3    0    0 -0.25903066463E+01  0.37886060229E+01  0.21138145887E+01  0.50528641873E+01  0.51100000000E-03 0.  1.
         12    1    3    3    0    0 -0.14186706445E+01  0.23699638512E+01  0.44790009264E+01  0.52622052746E+01  0.00000000000E+00 0. -1.
</event>
<event>
 7    1  0.1541902E-008  0.4614232E+02  0.7816164E-02  0.1320468E+00
        -11   -1    0    0    0    0  0.00000000000E+00  0.00000000000E+00  0.45593999997E+02  0.45594000000E+02  0.51100000000E-03 0. -1.
         11   -1    0    0    0    0 -0.00000000000E+00 -0.00000000000E+00 -0.45593999997E+02  0.45594000000E+02  0.51100000000E-03 0.  1.
    9900012    2    1    2    0    0 -0.28057258881E+02 -0.33806444153E+02 -0.99512531266E+01  0.46142324503E+02  0.10000061476E+02 0.  0.
         12    1    1    2    0    0  0.28057258881E+02  0.33806444153E+02  0.99512531266E+01  0.45045675497E+02  0.00000000000E+00 0. -1.
         11    1    3    3    0    0 -0.12000531804E+02 -0.18348734407E+02 -0.44447675771E+01  0.22370623080E+02  0.51100000000E-03 0.  1.
        -11    1    3    3    0    0 -0.15799737807E+02 -0.14838477111E+02 -0.38896690908E+01  0.22021390593E+02  0.51100000000E-03 0. -1.
        -12    1    3    3    0    0 -0.25698927040E+00 -0.61923263568E+00 -0.16168164587E+01  0.17503108304E+01  0.00000000000E+00 0.  1.
</event>
<event>
 7    1  0.1541902E-008  0.4614232E+02  0.7816164E-02  0.1320468E+00
        -11   -1    0    0    0    0  0.00000000000E+00  0.00000000000E+00  0.45593999997E+02  0.45594000000E+02  0.51100000000E-03 0. -1.
         11   -1    0    0    0    0 -0.00000000000E+00 -0.00000000000E+00 -0.45593999997E+02  0.45594000000E+02  0.51100000000E-03 0.  1.
    9900012    2    1    2    0    0  0.27585261822E+02  0.42319683421E+01 -0.35358977218E+02  0.46142317680E+02  0.99999992583E+01 0.  0.
         12    1    1    2    0    0 -0.27585261822E+02 -0.42319683421E+01  0.35358977218E+02  0.45045682320E+02  0.00000000000E+00 0. -1.
         11    1    3    3    0    0 -0.43231247038E-01 -0.35750588907E+00 -0.16849539544E-01  0.36050460406E+00  0.51100000000E-03 0. -1.
        -11    1    3    3    0    0  0.23618768476E+02  0.10829799726E+01 -0.27054490488E+02  0.35929994792E+02  0.51100000000E-03 0.  1.
        -12    1    3    3    0    0  0.40097245925E+01  0.35064942586E+01 -0.82876371902E+01  0.98518182834E+01  0.00000000000E+00 0.  1.
</event>
<event>
 7    1  0.1541902E-008  0.4614232E+02  0.7816164E-02  0.1320468E+00
        -11   -1    0    0    0    0  0.00000000000E+00  0.00000000000E+00  0.45593999997E+02  0.45594000000E+02  0.51100000000E-03 0.  1.
         11   -1    0    0    0    0 -0.00000000000E+00 -0.00000000000E+00 -0.45593999997E+02  0.45594000000E+02  0.51100000000E-03 0. -1.
    9900012    2    1    2    0    0  0.24026488265E+02  0.24556649090E+02  0.29134386332E+02  0.46142316302E+02  0.99999866945E+01 0.  0.
         12    1    1    2    0    0 -0.24026488265E+02 -0.24556649090E+02 -0.29134386332E+02  0.45045683698E+02  0.00000000000E+00 0. -1.
         11    1    3    3    0    0  0.10153712055E+02  0.13169879792E+02  0.87611226591E+01  0.18796299443E+02  0.51100000000E-03 0. -1.
        -11    1    3    3    0    0  0.70904602926E+01  0.74769880769E+01  0.10088436207E+02  0.14420697737E+02  0.51100000000E-03 0.  1.
         12    1    3    3    0    0  0.67823159169E+01  0.39097812207E+01  0.10284827466E+02  0.12925319122E+02  0.00000000000E+00 0. -1.
</event>
<event>
 7    1  0.1541902E-008  0.4614232E+02  0.7816164E-02  0.1320468E+00
        -11   -1    0    0    0    0  0.00000000000E+00  0.00000000000E+00  0.45593999997E+02  0.45594000000E+02  0.51100000000E-03 0.  1.
         11   -1    0    0    0    0 -0.00000000000E+00 -0.00000000000E+00 -0.45593999997E+02  0.45594000000E+02  0.51100000000E-03 0. -1.
    9900012    2    1    2    0    0 -0.13613828377E+02  0.30491309557E+02  0.30233380904E+02  0.46142316494E+02  0.99999884474E+01 0.  0.
         12    1    1    2    0    0  0.13613828377E+02 -0.30491309557E+02 -0.30233380904E+02  0.45045683506E+02  0.00000000000E+00 0. -1.
         11    1    3    3    0    0 -0.29006310666E+01  0.78386728218E+01  0.13675602679E+02  0.16027493912E+02  0.51100000000E-03 0. -1.
        -11    1    3    3    0    0 -0.22405519955E+01  0.49145133239E+01  0.25246960740E+01  0.59620973644E+01  0.51100000000E-03 0.  1.
         12    1    3    3    0    0 -0.84726453153E+01  0.17738123411E+02  0.14033082151E+02  0.24152725218E+02  0.00000000000E+00 0. -1.
</event>
<event>
 7    1  0.1541902E-008  0.4614231E+02  0.7816164E-02  0.1320468E+00
        -11   -1    0    0    0    0  0.00000000000E+00  0.00000000000E+00  0.45593999997E+02  0.45594000000E+02  0.51100000000E-03 0.  1.
         11   -1    0    0    0    0 -0.00000000000E+00 -0.00000000000E+00 -0.45593999997E+02  0.45594000000E+02  0.51100000000E-03 0. -1.
    9900012    2    1    2    0    0  0.20958383956E+02  0.32552160792E+02  0.23026442057E+02  0.46142311371E+02  0.99999417318E+01 0.  0.
         12    1    1    2    0    0 -0.20958383956E+02 -0.32552160792E+02 -0.23026442057E+02  0.45045688629E+02  0.00000000000E+00 0. -1.
         11    1    3    3    0    0  0.74424941844E+01  0.13175213450E+02  0.51916060781E+01  0.15997804321E+02  0.51100000000E-03 0. -1.
        -11    1    3    3    0    0  0.37488139858E+01  0.92733895141E+01  0.53315375067E+01  0.11334665934E+02  0.51100000000E-03 0.  1.
         12    1    3    3    0    0  0.97670757858E+01  0.10103557827E+02  0.12503298472E+02  0.18809841117E+02  0.00000000000E+00 0. -1.
</event>
<event>
 7    1  0.1541902E-008  0.4614232E+02  0.7816164E-02  0.1320468E+00
        -11   -1    0    0    0    0  0.00000000000E+00  0.00000000000E+00  0.45593999997E+02  0.45594000000E+02  0.51100000000E-03 0.  1.
         11   -1    0    0    0    0 -0.00000000000E+00 -0.00000000000E+00 -0.45593999997E+02  0.45594000000E+02  0.51100000000E-03 0. -1.
    9900012    2    1    2    0    0  0.12349121737E+02  0.28652166744E+02  0.32491013006E+02  0.46142318820E+02  0.10000009657E+02 0.  0.
         12    1    1    2    0    0 -0.12349121737E+02 -0.28652166744E+02 -0.32491013006E+02  0.45045681180E+02  0.00000000000E+00 0. -1.
         11    1    3    3    0    0  0.15631658277E+01  0.30183437213E+01  0.78310019400E+01  0.85368892385E+01  0.51100000000E-03 0. -1.
        -11    1    3    3    0    0  0.47615070658E+01  0.18223194273E+02  0.16008354968E+02  0.24718903456E+02  0.51100000000E-03 0.  1.
         12    1    3    3    0    0  0.60244488439E+01  0.74106287496E+01  0.86516560981E+01  0.12886526125E+02  0.00000000000E+00 0. -1.
</event>
<event>
 7    1  0.1541902E-008  0.4614232E+02  0.7816164E-02  0.1320468E+00
        -11   -1    0    0    0    0  0.00000000000E+00  0.00000000000E+00  0.45593999997E+02  0.45594000000E+02  0.51100000000E-03 0. -1.
         11   -1    0    0    0    0 -0.00000000000E+00 -0.00000000000E+00 -0.45593999997E+02  0.45594000000E+02  0.51100000000E-03 0.  1.
    9900012    2    1    2    0    0 -0.76056637226E+01  0.42161383103E+02  0.13917085689E+02  0.46142316301E+02  0.99999866874E+01 0.  0.
         12    1    1    2    0    0  0.76056637226E+01 -0.42161383103E+02 -0.13917085689E+02  0.45045683699E+02  0.00000000000E+00 0. -1.
         11    1    3    3    0    0 -0.30399967150E+01  0.10090172458E+02  0.73493370559E+01  0.12847798087E+02  0.51100000000E-03 0. -1.
        -11    1    3    3    0    0  0.11642749398E+00  0.12669922043E+02  0.21184733354E+01  0.12846338369E+02  0.51100000000E-03 0.  1.
        -12    1    3    3    0    0 -0.46820945016E+01  0.19401288602E+02  0.44492752972E+01  0.20448179846E+02  0.00000000000E+00 0.  1.
</event>
<event>
 7    1  0.1541902E-008  0.4614232E+02  0.7816164E-02  0.1320468E+00
        -11   -1    0    0    0    0  0.00000000000E+00  0.00000000000E+00  0.45593999997E+02  0.45594000000E+02  0.51100000000E-03 0. -1.
         11   -1    0    0    0    0 -0.00000000000E+00 -0.00000000000E+00 -0.45593999997E+02  0.45594000000E+02  0.51100000000E-03 0.  1.
    9900012    2    1    2    0    0  0.26557978605E+02  0.26998529993E+02 -0.24389888125E+02  0.46142317720E+02  0.99999996213E+01 0.  0.
         12    1    1    2    0    0 -0.26557978605E+02 -0.26998529993E+02  0.24389888125E+02  0.45045682280E+02  0.00000000000E+00 0. -1.
         11    1    3    3    0    0  0.20308977838E+01 -0.20029264236E+00 -0.43047522941E+00  0.20856586813E+01  0.51100000000E-03 0. -1.
        -11    1    3    3    0    0  0.17311282079E+02  0.15854314208E+02 -0.14090457083E+02  0.27378472333E+02  0.51100000000E-03 0.  1.
        -12    1    3    3    0    0  0.72157987422E+01  0.11344508427E+02 -0.98689558122E+01  0.16678186705E+02  0.00000000000E+00 0.  1.
</event>
<event>
 7    1  0.1541902E-008  0.4614232E+02  0.7816164E-02  0.1320468E+00
        -11   -1    0    0    0    0  0.00000000000E+00  0.00000000000E+00  0.45593999997E+02  0.45594000000E+02  0.51100000000E-03 0.  1.
         11   -1    0    0    0    0 -0.00000000000E+00 -0.00000000000E+00 -0.45593999997E+02  0.45594000000E+02  0.51100000000E-03 0. -1.
    9900012    2    1    2    0    0 -0.30784481884E+02  0.29060883869E+02  0.15391367046E+02  0.46142317902E+02  0.10000001283E+02 0.  0.
         12    1    1    2    0    0  0.30784481884E+02 -0.29060883869E+02 -0.15391367046E+02  0.45045682098E+02  0.00000000000E+00 0. -1.
         11    1    3    3    0    0 -0.27393423218E-01 -0.20770086274E+00 -0.51945408484E+00  0.56010968157E+00  0.51100000000E-03 0. -1.
        -11    1    3    3    0    0 -0.13232676715E+02  0.15477127641E+02  0.64732874321E+01  0.21366999403E+02  0.51100000000E-03 0.  1.
        -12    1    3    3    0    0 -0.17524411746E+02  0.13791457091E+02  0.94375336992E+01  0.24215208817E+02  0.00000000000E+00 0.  1.
</event>
<event>
 7    1  0.1541902E-008  0.4614232E+02  0.7816164E-02  0.1320468E+00
        -11   -1    0    0    0    0  0.00000000000E+00  0.00000000000E+00  0.45593999997E+02  0.45594000000E+02  0.51100000000E-03 0. -1.
         11   -1    0    0    0    0 -0.00000000000E+00 -0.00000000000E+00 -0.45593999997E+02  0.45594000000E+02  0.51100000000E-03 0.  1.
    9900012    2    1    2    0    0  0.24008921270E+02 -0.31725069013E+02 -0.21123567390E+02  0.46142318701E+02  0.10000008567E+02 0.  0.
         12    1    1    2    0    0 -0.24008921270E+02  0.31725069013E+02  0.21123567390E+02  0.45045681299E+02  0.00000000000E+00 0. -1.
         11    1    3    3    0    0  0.62393454653E+01 -0.29963810125E+01 -0.43420419844E+01  0.81707441438E+01  0.51100000000E-03 0. -1.
        -11    1    3    3    0    0  0.12494370714E+02 -0.20491827555E+02 -0.14073096579E+02  0.27822227511E+02  0.51100000000E-03 0.  1.
        -12    1    3    3    0    0  0.52752050904E+01 -0.82368604453E+01 -0.27084288265E+01  0.10149347045E+02  0.00000000000E+00 0.  1.
</event>
<event>
 7    1  0.1541902E-008  0.4614232E+02  0.7816164E-02  0.1320468E+00
        -11   -1    0    0    0    0  0.00000000000E+00  0.00000000000E+00  0.45593999997E+02  0.45594000000E+02  0.51100000000E-03 0. -1.
         11   -1    0    0    0    0 -0.00000000000E+00 -0.00000000000E+00 -0.45593999997E+02  0.45594000000E+02  0.51100000000E-03 0.  1.
    9900012    2    1    2    0    0 -0.23025898627E+02 -0.20942832593E+02 -0.32562543587E+02  0.46142317749E+02  0.99999998939E+01 0.  0.
         12    1    1    2    0    0  0.23025898627E+02  0.20942832593E+02  0.32562543587E+02  0.45045682251E+02  0.00000000000E+00 0. -1.
         11    1    3    3    0    0 -0.12597397322E+02 -0.58080216442E+01 -0.15501134223E+02  0.20801747455E+02  0.51100000000E-03 0. -1.
        -11    1    3    3    0    0 -0.96505073232E+01 -0.11570442102E+02 -0.13244193969E+02  0.20060311468E+02  0.51100000000E-03 0.  1.
         12    1    3    3    0    0 -0.77799398111E+00 -0.35643688465E+01 -0.38172153946E+01  0.52802588268E+01  0.00000000000E+00 0. -1.
</event>
<event>
 7    1  0.1541902E-008  0.4614233E+02  0.7816164E-02  0.1320468E+00
        -11   -1    0    0    0    0  0.00000000000E+00  0.00000000000E+00  0.45593999997E+02  0.45594000000E+02  0.51100000000E-03 0.  1.
         11   -1    0    0    0    0 -0.00000000000E+00 -0.00000000000E+00 -0.45593999997E+02  0.45594000000E+02  0.51100000000E-03 0. -1.
    9900012    2    1    2    0    0 -0.10065890069E+02  0.30603583083E+02  0.31483503590E+02  0.46142329412E+02  0.10000106243E+02 0.  0.
         12    1    1    2    0    0  0.10065890069E+02 -0.30603583083E+02 -0.31483503590E+02  0.45045670588E+02  0.00000000000E+00 0. -1.
         11    1    3    3    0    0  0.61451313157E+00  0.10195771328E+01  0.16355623013E+00  0.12016300679E+01  0.51100000000E-03 0. -1.
        -11    1    3    3    0    0 -0.92952539193E+01  0.27885485139E+02  0.26216904982E+02  0.39386903076E+02  0.51100000000E-03 0.  1.
        -12    1    3    3    0    0 -0.13851492818E+01  0.16985208120E+01  0.51030423775E+01  0.55537962681E+01  0.00000000000E+00 0.  1.
</event>
<event>
 7    1  0.1541902E-008  0.4614232E+02  0.7816164E-02  0.1320468E+00
        -11   -1    0    0    0    0  0.00000000000E+00  0.00000000000E+00  0.45593999997E+02  0.45594000000E+02  0.51100000000E-03 0.  1.
         11   -1    0    0    0    0 -0.00000000000E+00 -0.00000000000E+00 -0.45593999997E+02  0.45594000000E+02  0.51100000000E-03 0. -1.
    9900012    2    1    2    0    0 -0.23375359922E+02  0.36728959402E+02 -0.11562426581E+02  0.46142316315E+02  0.99999868108E+01 0.  0.
         12    1    1    2    0    0  0.23375359922E+02 -0.36728959402E+02  0.11562426581E+02  0.45045683685E+02  0.00000000000E+00 0. -1.
         11    1    3    3    0    0 -0.47090823300E+01  0.52032460714E+01  0.19000671510E+00  0.70203510513E+01  0.51100000000E-03 0. -1.
        -11    1    3    3    0    0 -0.21849383426E+01  0.50202259614E+01 -0.44793568686E+01  0.70739849082E+01  0.51100000000E-03 0.  1.
         12    1    3    3    0    0 -0.16481339249E+02  0.26505487369E+02 -0.72730764272E+01  0.32047980355E+02  0.00000000000E+00 0. -1.
</event>
<event>
 7    1  0.1541902E-008  0.4614232E+02  0.7816164E-02  0.1320468E+00
        -11   -1    0    0    0    0  0.00000000000E+00  0.00000000000E+00  0.45593999997E+02  0.45594000000E+02  0.51100000000E-03 0.  1.
         11   -1    0    0    0    0 -0.00000000000E+00 -0.00000000000E+00 -0.45593999997E+02  0.45594000000E+02  0.51100000000E-03 0. -1.
    9900012    2    1    2    0    0 -0.37863040890E+02  0.10624191163E+02  0.21968845376E+02  0.46142317960E+02  0.10000001813E+02 0.  0.
         12    1    1    2    0    0  0.37863040890E+02 -0.10624191163E+02 -0.21968845376E+02  0.45045682040E+02  0.00000000000E+00 0. -1.
         11    1    3    3    0    0 -0.21687945429E+02  0.45172205187E+01  0.87420730579E+01  0.23815879151E+02  0.51100000000E-03 0. -1.
        -11    1    3    3    0    0 -0.14324357833E+02  0.69830927718E+01  0.11853856380E+02  0.19861136003E+02  0.51100000000E-03 0.  1.
         12    1    3    3    0    0 -0.18507376280E+01 -0.87612212761E+00  0.13729159379E+01  0.24653028055E+01  0.00000000000E+00 0. -1.
</event>
<event>
 7    1  0.1541902E-008  0.4614232E+02  0.7816164E-02  0.1320468E+00
        -11   -1    0    0    0    0  0.00000000000E+00  0.00000000000E+00  0.45593999997E+02  0.45594000000E+02  0.51100000000E-03 0. -1.
         11   -1    0    0    0    0 -0.00000000000E+00 -0.00000000000E+00 -0.45593999997E+02  0.45594000000E+02  0.51100000000E-03 0.  1.
    9900012    2    1    2    0    0 -0.24234386937E+02 -0.37962997674E+02 -0.78662762977E+00  0.46142317792E+02  0.10000000277E+02 0.  0.
         12    1    1    2    0    0  0.24234386937E+02  0.37962997674E+02  0.78662762977E+00  0.45045682208E+02  0.00000000000E+00 0. -1.
         11    1    3    3    0    0 -0.16938662059E+01 -0.29572417282E+01  0.12495214005E+01  0.36298437093E+01  0.51100000000E-03 0. -1.
        -11    1    3    3    0    0 -0.15660409027E+02 -0.21707654393E+02  0.24591986523E+01  0.26879701047E+02  0.51100000000E-03 0.  1.
        -12    1    3    3    0    0 -0.68801117047E+01 -0.13298101553E+02 -0.44953476825E+01  0.15632773035E+02  0.00000000000E+00 0.  1.
</event>
<event>
 7    1  0.1541902E-008  0.4614232E+02  0.7816164E-02  0.1320468E+00
        -11   -1    0    0    0    0  0.00000000000E+00  0.00000000000E+00  0.45593999997E+02  0.45594000000E+02  0.51100000000E-03 0.  1.
         11   -1    0    0    0    0 -0.00000000000E+00 -0.00000000000E+00 -0.45593999997E+02  0.45594000000E+02  0.51100000000E-03 0. -1.
    9900012    2    1    2    0    0 -0.38142558616E+02 -0.62283001514E+01  0.23140160295E+02  0.46142317421E+02  0.99999968965E+01 0.  0.
         12    1    1    2    0    0  0.38142558616E+02  0.62283001514E+01 -0.23140160295E+02  0.45045682579E+02  0.00000000000E+00 0. -1.
         11    1    3    3    0    0 -0.98745579863E+00  0.85466242856E+00 -0.47530955696E+00  0.13897612231E+01  0.51100000000E-03 0. -1.
        -11    1    3    3    0    0 -0.22745018881E+02 -0.61430974592E+01  0.14054372316E+02  0.27433536261E+02  0.51100000000E-03 0.  1.
        -12    1    3    3    0    0 -0.14410083936E+02 -0.93986512072E+00  0.95610975360E+01  0.17319019937E+02  0.00000000000E+00 0.  1.
</event>
<event>
 7    1  0.1541902E-008  0.4614232E+02  0.7816164E-02  0.1320468E+00
        -11   -1    0    0    0    0  0.00000000000E+00  0.00000000000E+00  0.45593999997E+02  0.45594000000E+02  0.51100000000E-03 0.  1.
         11   -1    0    0    0    0 -0.00000000000E+00 -0.00000000000E+00 -0.45593999997E+02  0.45594000000E+02  0.51100000000E-03 0. -1.
    9900012    2    1    2    0    0  0.25402148431E+02 -0.14152811736E+02  0.34402645049E+02  0.46142320836E+02  0.10000028039E+02 0.  0.
         12    1    1    2    0    0 -0.25402148431E+02  0.14152811736E+02 -0.34402645049E+02  0.45045679164E+02  0.00000000000E+00 0. -1.
         11    1    3    3    0    0  0.62255630520E+01 -0.72833881781E+01  0.12117523198E+02  0.15447969038E+02  0.51100000000E-03 0. -1.
        -11    1    3    3    0    0  0.12325440827E+02 -0.66712052295E+01  0.12717386655E+02  0.18924941067E+02  0.51100000000E-03 0.  1.
         12    1    3    3    0    0  0.68511445525E+01 -0.19821832836E+00  0.95677351957E+01  0.11769410731E+02  0.00000000000E+00 0. -1.
</event>
<event>
 7    1  0.1541902E-008  0.4614232E+02  0.7816164E-02  0.1320468E+00
        -11   -1    0    0    0    0  0.00000000000E+00  0.00000000000E+00  0.45593999997E+02  0.45594000000E+02  0.51100000000E-03 0.  1.
         11   -1    0    0    0    0 -0.00000000000E+00 -0.00000000000E+00 -0.45593999997E+02  0.45594000000E+02  0.51100000000E-03 0. -1.
    9900012    2    1    2    0    0  0.87771639068E+01 -0.16298445512E+02  0.41066232734E+02  0.46142318705E+02  0.10000008604E+02 0.  0.
         12    1    1    2    0    0 -0.87771639068E+01  0.16298445512E+02 -0.41066232734E+02  0.45045681295E+02  0.00000000000E+00 0. -1.
         11    1    3    3    0    0  0.11827370898E+01 -0.23865898269E+01  0.10204791760E+01  0.28523772604E+01  0.51100000000E-03 0. -1.
        -11    1    3    3    0    0  0.18930978064E+01 -0.80313860859E+01  0.19929266528E+02  0.21569947760E+02  0.51100000000E-03 0.  1.
        -12    1    3    3    0    0  0.57013290106E+01 -0.58804695996E+01  0.20116487031E+02  0.21719993685E+02  0.00000000000E+00 0.  1.
</event>
<event>
 7    1  0.1541902E-008  0.4614232E+02  0.7816164E-02  0.1320468E+00
        -11   -1    0    0    0    0  0.00000000000E+00  0.00000000000E+00  0.45593999997E+02  0.45594000000E+02  0.51100000000E-03 0.  1.
         11   -1    0    0    0    0 -0.00000000000E+00 -0.00000000000E+00 -0.45593999997E+02  0.45594000000E+02  0.51100000000E-03 0. -1.
    9900012    2    1    2    0    0 -0.39951840580E+02 -0.14471337775E+02  0.14951397189E+02  0.46142318069E+02  0.10000002805E+02 0.  0.
         12    1    1    2    0    0  0.39951840580E+02  0.14471337775E+02 -0.14951397189E+02  0.45045681931E+02  0.00000000000E+00 0. -1.
         11    1    3    3    0    0 -0.12852210842E+02 -0.68598968466E+01  0.20896887154E+01  0.14717483055E+02  0.51100000000E-03 0. -1.
        -11    1    3    3    0    0 -0.74454868723E+01  0.36977959942E+00  0.30956904311E+01  0.80718839947E+01  0.51100000000E-03 0.  1.
         12    1    3    3    0    0 -0.19654142866E+02 -0.79812205277E+01  0.97660180422E+01  0.23352951019E+02  0.00000000000E+00 0. -1.
</event>
<event>
 7    1  0.1541902E-008  0.4614232E+02  0.7816164E-02  0.1320468E+00
        -11   -1    0    0    0    0  0.00000000000E+00  0.00000000000E+00  0.45593999997E+02  0.45594000000E+02  0.51100000000E-03 0.  1.
         11   -1    0    0    0    0 -0.00000000000E+00 -0.00000000000E+00 -0.45593999997E+02  0.45594000000E+02  0.51100000000E-03 0. -1.
    9900012    2    1    2    0    0 -0.39011626516E+02 -0.22518523998E+02  0.35004319864E+00  0.46142318113E+02  0.10000003204E+02 0.  0.
         12    1    1    2    0    0  0.39011626516E+02  0.22518523998E+02 -0.35004319864E+00  0.45045681887E+02  0.00000000000E+00 0. -1.
         11    1    3    3    0    0 -0.15977313980E+02 -0.97792275205E+01 -0.45571995531E+01  0.19278898333E+02  0.51100000000E-03 0. -1.
        -11    1    3    3    0    0 -0.65429630264E+01 -0.40196228821E+01  0.23732498070E+01  0.80374155166E+01  0.51100000000E-03 0.  1.
         12    1    3    3    0    0 -0.16491349510E+02 -0.87196735954E+01  0.25339929447E+01  0.18826004263E+02  0.00000000000E+00 0. -1.
</event>
<event>
 7    1  0.1541902E-008  0.4614232E+02  0.7816164E-02  0.1320468E+00
        -11   -1    0    0    0    0  0.00000000000E+00  0.00000000000E+00  0.45593999997E+02  0.45594000000E+02  0.51100000000E-03 0. -1.
         11   -1    0    0    0    0 -0.00000000000E+00 -0.00000000000E+00 -0.45593999997E+02  0.45594000000E+02  0.51100000000E-03 0.  1.
    9900012    2    1    2    0    0 -0.40898104789E+02  0.59883508168E+01 -0.17905247799E+02  0.46142320745E+02  0.10000027209E+02 0.  0.
         12    1    1    2    0    0  0.40898104789E+02 -0.59883508168E+01  0.17905247799E+02  0.45045679255E+02  0.00000000000E+00 0. -1.
         11    1    3    3    0    0 -0.15941445800E+01  0.17100392746E+01  0.25566812339E+00  0.23517860687E+01  0.51100000000E-03 0. -1.
        -11    1    3    3    0    0 -0.28502372325E+02  0.49436762631E+01 -0.14557331420E+02  0.32384271823E+02  0.51100000000E-03 0.  1.
         12    1    3    3    0    0 -0.10801587883E+02 -0.66536472094E+00 -0.36035845024E+01  0.11406262853E+02  0.00000000000E+00 0. -1.
</event>
<event>
 7    1  0.1541902E-008  0.4614232E+02  0.7816164E-02  0.1320468E+00
        -11   -1    0    0    0    0  0.00000000000E+00  0.00000000000E+00  0.45593999997E+02  0.45594000000E+02  0.51100000000E-03 0.  1.
         11   -1    0    0    0    0 -0.00000000000E+00 -0.00000000000E+00 -0.45593999997E+02  0.45594000000E+02  0.51100000000E-03 0. -1.
    9900012    2    1    2    0    0 -0.93499165265E+01  0.12934854825E+02  0.42123416101E+02  0.46142316607E+02  0.99999894717E+01 0.  0.
         12    1    1    2    0    0  0.93499165265E+01 -0.12934854825E+02 -0.42123416101E+02  0.45045683393E+02  0.00000000000E+00 0. -1.
         11    1    3    3    0    0 -0.58336575899E+00  0.51570958981E+00  0.10482284694E+01  0.13057776131E+01  0.51100000000E-03 0. -1.
        -11    1    3    3    0    0 -0.75777552225E+01  0.48894740809E+01  0.13560981774E+02  0.16285869886E+02  0.51100000000E-03 0.  1.
        -12    1    3    3    0    0 -0.11887955451E+01  0.75296711541E+01  0.27514205857E+02  0.28550669108E+02  0.00000000000E+00 0.  1.
</event>
<event>
 7    1  0.1541902E-008  0.4614232E+02  0.7816164E-02  0.1320468E+00
        -11   -1    0    0    0    0  0.00000000000E+00  0.00000000000E+00  0.45593999997E+02  0.45594000000E+02  0.51100000000E-03 0.  1.
         11   -1    0    0    0    0 -0.00000000000E+00 -0.00000000000E+00 -0.45593999997E+02  0.45594000000E+02  0.51100000000E-03 0. -1.
    9900012    2    1    2    0    0 -0.16055521997E+02  0.17993527647E+02  0.38046902865E+02  0.46142316062E+02  0.99999845068E+01 0.  0.
         12    1    1    2    0    0  0.16055521997E+02 -0.17993527647E+02 -0.38046902865E+02  0.45045683938E+02  0.00000000000E+00 0. -1.
         11    1    3    3    0    0 -0.11389464642E+02  0.11664501967E+02  0.19869422550E+02  0.25701643210E+02  0.51100000000E-03 0. -1.
        -11    1    3    3    0    0 -0.26683558773E+01  0.58855145218E+01  0.16728511018E+02  0.17933278713E+02  0.51100000000E-03 0.  1.
         12    1    3    3    0    0 -0.19977014776E+01  0.44351115842E+00  0.14489692976E+01  0.25073941386E+01  0.00000000000E+00 0. -1.
</event>
<event>
 7    1  0.1541902E-008  0.4614232E+02  0.7816164E-02  0.1320468E+00
        -11   -1    0    0    0    0  0.00000000000E+00  0.00000000000E+00  0.45593999997E+02  0.45594000000E+02  0.51100000000E-03 0.  1.
         11   -1    0    0    0    0 -0.00000000000E+00 -0.00000000000E+00 -0.45593999997E+02  0.45594000000E+02  0.51100000000E-03 0. -1.
    9900012    2    1    2    0    0  0.20319105889E+02  0.30899518888E+02  0.25719004279E+02  0.46142317491E+02  0.99999975355E+01 0.  0.
         12    1    1    2    0    0 -0.20319105889E+02 -0.30899518888E+02 -0.25719004279E+02  0.45045682509E+02  0.00000000000E+00 0. -1.
         11    1    3    3    0    0  0.17041315681E+01  0.20390880381E+01 -0.27337168304E+00  0.26714559264E+01  0.51100000000E-03 0. -1.
        -11    1    3    3    0    0  0.12426476093E+02  0.22469769240E+02  0.21578324088E+02  0.33540004600E+02  0.51100000000E-03 0.  1.
        -12    1    3    3    0    0  0.61884982273E+01  0.63906616092E+01  0.44140518737E+01  0.99308569648E+01  0.00000000000E+00 0.  1.
</event>
<event>
 7    1  0.1541902E-008  0.4614232E+02  0.7816164E-02  0.1320468E+00
        -11   -1    0    0    0    0  0.00000000000E+00  0.00000000000E+00  0.45593999997E+02  0.45594000000E+02  0.51100000000E-03 0.  1.
         11   -1    0    0    0    0 -0.00000000000E+00 -0.00000000000E+00 -0.45593999997E+02  0.45594000000E+02  0.51100000000E-03 0. -1.
    9900012    2    1    2    0    0 -0.17148190529E+02 -0.41652853377E+02 -0.30470533343E+00  0.46142317874E+02  0.10000001031E+02 0.  0.
         12    1    1    2    0    0  0.17148190529E+02  0.41652853377E+02  0.30470533343E+00  0.45045682126E+02  0.00000000000E+00 0. -1.
         11    1    3    3    0    0 -0.11744040963E+01 -0.11486180780E+01 -0.12238584804E+01  0.20485063612E+01  0.51100000000E-03 0. -1.
        -11    1    3    3    0    0 -0.11099218846E+02 -0.29071379198E+02  0.37604432167E+01  0.31344515962E+02  0.51100000000E-03 0.  1.
        -12    1    3    3    0    0 -0.48745675868E+01 -0.11432856101E+02 -0.28412900697E+01  0.12749295551E+02  0.00000000000E+00 0.  1.
</event>
<event>
 7    1  0.1541902E-008  0.4614232E+02  0.7816164E-02  0.1320468E+00
        -11   -1    0    0    0    0  0.00000000000E+00  0.00000000000E+00  0.45593999997E+02  0.45594000000E+02  0.51100000000E-03 0.  1.
         11   -1    0    0    0    0 -0.00000000000E+00 -0.00000000000E+00 -0.45593999997E+02  0.45594000000E+02  0.51100000000E-03 0. -1.
    9900012    2    1    2    0    0 -0.30725402841E+02  0.63994513096E+01  0.32312693032E+02  0.46142317768E+02  0.10000000063E+02 0.  0.
         12    1    1    2    0    0  0.30725402841E+02 -0.63994513096E+01 -0.32312693032E+02  0.45045682232E+02  0.00000000000E+00 0. -1.
         11    1    3    3    0    0 -0.41296079751E+01 -0.17694651943E+01  0.58708144858E+01  0.73926404005E+01  0.51100000000E-03 0. -1.
        -11    1    3    3    0    0 -0.24486538934E+02  0.72785972341E+01  0.21836321617E+02  0.33606450403E+02  0.51100000000E-03 0.  1.
        -12    1    3    3    0    0 -0.21092559319E+01  0.89031926982E+00  0.46055569283E+01  0.51432269645E+01  0.00000000000E+00 0.  1.
</event>
<event>
 7    1  0.1541902E-008  0.4614232E+02  0.7816164E-02  0.1320468E+00
        -11   -1    0    0    0    0  0.00000000000E+00  0.00000000000E+00  0.45593999997E+02  0.45594000000E+02  0.51100000000E-03 0.  1.
         11   -1    0    0    0    0 -0.00000000000E+00 -0.00000000000E+00 -0.45593999997E+02  0.45594000000E+02  0.51100000000E-03 0. -1.
    9900012    2    1    2    0    0 -0.38736877696E+01 -0.37874278238E+02  0.24075862671E+02  0.46142316829E+02  0.99999915013E+01 0.  0.
         12    1    1    2    0    0  0.38736877696E+01  0.37874278238E+02 -0.24075862671E+02  0.45045683171E+02  0.00000000000E+00 0. -1.
         11    1    3    3    0    0  0.13973615143E+01 -0.41683949414E+01  0.46589728618E+01  0.64057914404E+01  0.51100000000E-03 0. -1.
        -11    1    3    3    0    0 -0.78666691117E+00 -0.21440293461E+02  0.13870485033E+02  0.25547903707E+02  0.51100000000E-03 0.  1.
         12    1    3    3    0    0 -0.44843823727E+01 -0.12265589836E+02  0.55464047757E+01  0.14188621682E+02  0.00000000000E+00 0. -1.
</event>
<event>
 7    1  0.1541902E-008  0.4614232E+02  0.7816164E-02  0.1320468E+00
        -11   -1    0    0    0    0  0.00000000000E+00  0.00000000000E+00  0.45593999997E+02  0.45594000000E+02  0.51100000000E-03 0.  1.
         11   -1    0    0    0    0 -0.00000000000E+00 -0.00000000000E+00 -0.45593999997E+02  0.45594000000E+02  0.51100000000E-03 0. -1.
    9900012    2    1    2    0    0  0.42207680729E+01 -0.10946361688E+01  0.44834143774E+02  0.46142316973E+02  0.99999928111E+01 0.  0.
         12    1    1    2    0    0 -0.42207680729E+01  0.10946361688E+01 -0.44834143774E+02  0.45045683027E+02  0.00000000000E+00 0. -1.
         11    1    3    3    0    0  0.56561121719E+01 -0.36489335091E+01  0.20051197704E+02  0.21150812048E+02  0.51100000000E-03 0. -1.
        -11    1    3    3    0    0 -0.11645836947E+01  0.13943161122E+01  0.10243667970E+02  0.10403514135E+02  0.51100000000E-03 0.  1.
         12    1    3    3    0    0 -0.27076040435E+00  0.11599812282E+01  0.14539278099E+02  0.14587990790E+02  0.00000000000E+00 0. -1.
</event>
<event>
 7    1  0.1541902E-008  0.4614232E+02  0.7816164E-02  0.1320468E+00
        -11   -1    0    0    0    0  0.00000000000E+00  0.00000000000E+00  0.45593999997E+02  0.45594000000E+02  0.51100000000E-03 0.  1.
         11   -1    0    0    0    0 -0.00000000000E+00 -0.00000000000E+00 -0.45593999997E+02  0.45594000000E+02  0.51100000000E-03 0. -1.
    9900012    2    1    2    0    0 -0.44807802466E+02  0.44505518909E+01  0.12518017280E+01  0.46142316727E+02  0.99999905714E+01 0.  0.
         12    1    1    2    0    0  0.44807802466E+02 -0.44505518909E+01 -0.12518017280E+01  0.45045683273E+02  0.00000000000E+00 0. -1.
         11    1    3    3    0    0 -0.28855915827E+02  0.57155086436E+01  0.20709969134E+01  0.29489319181E+02  0.51100000000E-03 0. -1.
        -11    1    3    3    0    0 -0.13783730695E+02  0.47449438568E+00 -0.12148900956E+01  0.13845300105E+02  0.51100000000E-03 0.  1.
         12    1    3    3    0    0 -0.21681559438E+01 -0.17394511384E+01  0.39569491021E+00  0.28076974412E+01  0.00000000000E+00 0. -1.
</event>
<event>
 7    1  0.1541902E-008  0.4614232E+02  0.7816164E-02  0.1320468E+00
        -11   -1    0    0    0    0  0.00000000000E+00  0.00000000000E+00  0.45593999997E+02  0.45594000000E+02  0.51100000000E-03 0.  1.
         11   -1    0    0    0    0 -0.00000000000E+00 -0.00000000000E+00 -0.45593999997E+02  0.45594000000E+02  0.51100000000E-03 0. -1.
    9900012    2    1    2    0    0 -0.45650419447E+01  0.38602752682E+02 -0.22761839974E+02  0.46142317836E+02  0.10000000686E+02 0.  0.
         12    1    1    2    0    0  0.45650419447E+01 -0.38602752682E+02  0.22761839974E+02  0.45045682164E+02  0.00000000000E+00 0. -1.
         11    1    3    3    0    0 -0.85277588605E+00  0.17056938653E+02 -0.13934045871E+02  0.22041415960E+02  0.51100000000E-03 0.  1.
        -11    1    3    3    0    0 -0.31276838819E+01  0.63096812492E+01 -0.15743007573E+01  0.72161559758E+01  0.51100000000E-03 0. -1.
        -12    1    3    3    0    0 -0.58458217675E+00  0.15236132781E+02 -0.72534933452E+01  0.16884745901E+02  0.00000000000E+00 0.  1.
</event>
<event>
 7    1  0.1541902E-008  0.4614232E+02  0.7816164E-02  0.1320468E+00
        -11   -1    0    0    0    0  0.00000000000E+00  0.00000000000E+00  0.45593999997E+02  0.45594000000E+02  0.51100000000E-03 0.  1.
         11   -1    0    0    0    0 -0.00000000000E+00 -0.00000000000E+00 -0.45593999997E+02  0.45594000000E+02  0.51100000000E-03 0. -1.
    9900012    2    1    2    0    0 -0.28361462129E+02 -0.26052905357E+01  0.34899189415E+02  0.46142317691E+02  0.99999993574E+01 0.  0.
         12    1    1    2    0    0  0.28361462129E+02  0.26052905357E+01 -0.34899189415E+02  0.45045682309E+02  0.00000000000E+00 0. -1.
         11    1    3    3    0    0 -0.20942907661E+01 -0.20830862401E+01  0.71874426652E+01  0.77707550742E+01  0.51100000000E-03 0. -1.
        -11    1    3    3    0    0 -0.11938412082E+02  0.13364843743E+01  0.14064864646E+02  0.18496818410E+02  0.51100000000E-03 0.  1.
        -12    1    3    3    0    0 -0.14328759282E+02 -0.18586886699E+01  0.13646882103E+02  0.19874744206E+02  0.00000000000E+00 0.  1.
</event>
<event>
 7    1  0.1541902E-008  0.4614232E+02  0.7816164E-02  0.1320468E+00
        -11   -1    0    0    0    0  0.00000000000E+00  0.00000000000E+00  0.45593999997E+02  0.45594000000E+02  0.51100000000E-03 0.  1.
         11   -1    0    0    0    0 -0.00000000000E+00 -0.00000000000E+00 -0.45593999997E+02  0.45594000000E+02  0.51100000000E-03 0. -1.
    9900012    2    1    2    0    0  0.19873936103E+01 -0.41819182937E+02  0.16622863487E+02  0.46142318904E+02  0.10000010425E+02 0.  0.
         12    1    1    2    0    0 -0.19873936103E+01  0.41819182937E+02 -0.16622863487E+02  0.45045681096E+02  0.00000000000E+00 0. -1.
         11    1    3    3    0    0 -0.28957313829E+01 -0.22574667035E+02  0.83075080152E+01  0.24228403614E+02  0.51100000000E-03 0. -1.
        -11    1    3    3    0    0  0.15503231392E+01 -0.42914710338E+01  0.38121722763E+01  0.59458290587E+01  0.51100000000E-03 0.  1.
        -12    1    3    3    0    0  0.33328018541E+01 -0.14953044868E+02  0.45031831956E+01  0.15968086232E+02  0.00000000000E+00 0.  1.
</event>
<event>
 7    1  0.1541902E-008  0.4614232E+02  0.7816164E-02  0.1320468E+00
        -11   -1    0    0    0    0  0.00000000000E+00  0.00000000000E+00  0.45593999997E+02  0.45594000000E+02  0.51100000000E-03 0. -1.
         11   -1    0    0    0    0 -0.00000000000E+00 -0.00000000000E+00 -0.45593999997E+02  0.45594000000E+02  0.51100000000E-03 0.  1.
    9900012    2    1    2    0    0  0.16278781291E+02 -0.34551846030E+02 -0.23880633982E+02  0.46142318034E+02  0.10000002488E+02 0.  0.
         12    1    1    2    0    0 -0.16278781291E+02  0.34551846030E+02  0.23880633982E+02  0.45045681966E+02  0.00000000000E+00 0. -1.
         11    1    3    3    0    0 -0.53056765198E+00  0.19350411391E+00  0.45339007015E-01  0.56657017403E+00  0.51100000000E-03 0. -1.
        -11    1    3    3    0    0  0.32405044222E+01 -0.58389216215E+01 -0.58743536870E+01  0.88939252365E+01  0.51100000000E-03 0.  1.
        -12    1    3    3    0    0  0.13568844520E+02 -0.28906428523E+02 -0.18051619302E+02  0.36681822623E+02  0.00000000000E+00 0.  1.
</event>
<event>
 7    1  0.1541902E-008  0.4614232E+02  0.7816164E-02  0.1320468E+00
        -11   -1    0    0    0    0  0.00000000000E+00  0.00000000000E+00  0.45593999997E+02  0.45594000000E+02  0.51100000000E-03 0. -1.
         11   -1    0    0    0    0 -0.00000000000E+00 -0.00000000000E+00 -0.45593999997E+02  0.45594000000E+02  0.51100000000E-03 0.  1.
    9900012    2    1    2    0    0 -0.70626192442E+01  0.32358041618E+02 -0.30531780190E+02  0.46142322632E+02  0.10000044420E+02 0.  0.
         12    1    1    2    0    0  0.70626192442E+01 -0.32358041618E+02  0.30531780190E+02  0.45045677368E+02  0.00000000000E+00 0. -1.
         11    1    3    3    0    0  0.50389228124E+00 -0.50966791203E+00 -0.99672638682E+00  0.12276532747E+01  0.51100000000E-03 0. -1.
        -11    1    3    3    0    0 -0.57573158841E+01  0.23725809015E+02 -0.19757305114E+02  0.31407193527E+02  0.51100000000E-03 0.  1.
         12    1    3    3    0    0 -0.18091956413E+01  0.91419005154E+01 -0.97777486885E+01  0.13507475831E+02  0.00000000000E+00 0. -1.
</event>
<event>
 7    1  0.1541902E-008  0.4614232E+02  0.7816164E-02  0.1320468E+00
        -11   -1    0    0    0    0  0.00000000000E+00  0.00000000000E+00  0.45593999997E+02  0.45594000000E+02  0.51100000000E-03 0. -1.
         11   -1    0    0    0    0 -0.00000000000E+00 -0.00000000000E+00 -0.45593999997E+02  0.45594000000E+02  0.51100000000E-03 0.  1.
    9900012    2    1    2    0    0  0.21624500397E+02  0.39515722598E+02 -0.46522504902E-01  0.46142317474E+02  0.99999973838E+01 0.  0.
         12    1    1    2    0    0 -0.21624500397E+02 -0.39515722598E+02  0.46522504902E-01  0.45045682526E+02  0.00000000000E+00 0. -1.
         11    1    3    3    0    0  0.19276521323E+01  0.79085532839E+00  0.20332648764E+00  0.20934748184E+01  0.51100000000E-03 0. -1.
        -11    1    3    3    0    0  0.95297428588E+01  0.11600160241E+02 -0.12450223261E+01  0.15064189239E+02  0.51100000000E-03 0.  1.
         12    1    3    3    0    0  0.10167105406E+02  0.27124707029E+02  0.99517333353E+00  0.28984653417E+02  0.00000000000E+00 0. -1.
</event>
<event>
 7    1  0.1541902E-008  0.4614232E+02  0.7816164E-02  0.1320468E+00
        -11   -1    0    0    0    0  0.00000000000E+00  0.00000000000E+00  0.45593999997E+02  0.45594000000E+02  0.51100000000E-03 0.  1.
         11   -1    0    0    0    0 -0.00000000000E+00 -0.00000000000E+00 -0.45593999997E+02  0.45594000000E+02  0.51100000000E-03 0. -1.
    9900012    2    1    2    0    0 -0.37908710898E+02 -0.20728101119E+02 -0.12743192025E+02  0.46142317844E+02  0.10000000757E+02 0.  0.
         12    1    1    2    0    0  0.37908710898E+02  0.20728101119E+02  0.12743192025E+02  0.45045682156E+02  0.00000000000E+00 0. -1.
         11    1    3    3    0    0 -0.38021367336E+00  0.60912199854E+00 -0.10161469618E+01  0.12442455367E+01  0.51100000000E-03 0. -1.
        -11    1    3    3    0    0 -0.94298228460E+01 -0.41275158081E+01 -0.40768846968E+01  0.11071537145E+02  0.51100000000E-03 0.  1.
         12    1    3    3    0    0 -0.28098674378E+02 -0.17209707309E+02 -0.76501603661E+01  0.33826535163E+02  0.00000000000E+00 0. -1.
</event>
<event>
 7    1  0.1541902E-008  0.4614232E+02  0.7816164E-02  0.1320468E+00
        -11   -1    0    0    0    0  0.00000000000E+00  0.00000000000E+00  0.45593999997E+02  0.45594000000E+02  0.51100000000E-03 0.  1.
         11   -1    0    0    0    0 -0.00000000000E+00 -0.00000000000E+00 -0.45593999997E+02  0.45594000000E+02  0.51100000000E-03 0. -1.
    9900012    2    1    2    0    0 -0.64595237841E+01  0.42407229648E+02  0.13748270176E+02  0.46142317557E+02  0.99999981350E+01 0.  0.
         12    1    1    2    0    0  0.64595237841E+01 -0.42407229648E+02 -0.13748270176E+02  0.45045682443E+02  0.00000000000E+00 0. -1.
         11    1    3    3    0    0 -0.89447184732E+00  0.18462832332E+01  0.33764721907E+00  0.20791458747E+01  0.51100000000E-03 0. -1.
        -11    1    3    3    0    0  0.21054394330E+01  0.14277663988E+02  0.28105815323E+01  0.14703194652E+02  0.51100000000E-03 0.  1.
        -12    1    3    3    0    0 -0.76704913698E+01  0.26283282427E+02  0.10600041425E+02  0.29359977030E+02  0.00000000000E+00 0.  1.
</event>
<event>
 7    1  0.1541902E-008  0.4614232E+02  0.7816164E-02  0.1320468E+00
        -11   -1    0    0    0    0  0.00000000000E+00  0.00000000000E+00  0.45593999997E+02  0.45594000000E+02  0.51100000000E-03 0. -1.
         11   -1    0    0    0    0 -0.00000000000E+00 -0.00000000000E+00 -0.45593999997E+02  0.45594000000E+02  0.51100000000E-03 0.  1.
    9900012    2    1    2    0    0 -0.35175889505E+02 -0.26170787422E+02 -0.10337324719E+02  0.46142316532E+02  0.99999887935E+01 0.  0.
         12    1    1    2    0    0  0.35175889505E+02  0.26170787422E+02  0.10337324719E+02  0.45045683468E+02  0.00000000000E+00 0. -1.
         11    1    3    3    0    0 -0.15245472168E+01  0.20656821882E+00  0.42571412669E+00  0.15962917729E+01  0.51100000000E-03 0. -1.
        -11    1    3    3    0    0 -0.21999364907E+02 -0.19155686036E+02 -0.46594253022E+01  0.29540186327E+02  0.51100000000E-03 0.  1.
         12    1    3    3    0    0 -0.11651977381E+02 -0.72216696042E+01 -0.61036135437E+01  0.15005838432E+02  0.00000000000E+00 0. -1.
</event>
<event>
 7    1  0.1541902E-008  0.4614232E+02  0.7816164E-02  0.1320468E+00
        -11   -1    0    0    0    0  0.00000000000E+00  0.00000000000E+00  0.45593999997E+02  0.45594000000E+02  0.51100000000E-03 0. -1.
         11   -1    0    0    0    0 -0.00000000000E+00 -0.00000000000E+00 -0.45593999997E+02  0.45594000000E+02  0.51100000000E-03 0.  1.
    9900012    2    1    2    0    0  0.15395152077E+02 -0.39993912260E+01 -0.42143891370E+02  0.46142318548E+02  0.10000007180E+02 0.  0.
         12    1    1    2    0    0 -0.15395152077E+02  0.39993912260E+01  0.42143891370E+02  0.45045681452E+02  0.00000000000E+00 0. -1.
         11    1    3    3    0    0  0.12611165317E+02 -0.31354492087E+01 -0.22417778170E+02  0.25911953048E+02  0.51100000000E-03 0. -1.
        -11    1    3    3    0    0  0.28554327634E+01 -0.15153624683E+01 -0.18907043227E+02  0.19181399936E+02  0.51100000000E-03 0.  1.
         12    1    3    3    0    0 -0.71446003270E-01  0.65142045106E+00 -0.81906997268E+00  0.10489655645E+01  0.00000000000E+00 0. -1.
</event>
<event>
 7    1  0.1541902E-008  0.4614232E+02  0.7816164E-02  0.1320468E+00
        -11   -1    0    0    0    0  0.00000000000E+00  0.00000000000E+00  0.45593999997E+02  0.45594000000E+02  0.51100000000E-03 0.  1.
         11   -1    0    0    0    0 -0.00000000000E+00 -0.00000000000E+00 -0.45593999997E+02  0.45594000000E+02  0.51100000000E-03 0. -1.
    9900012    2    1    2    0    0  0.41849965550E+01 -0.17620252557E+02  0.41244708955E+02  0.46142317486E+02  0.99999974905E+01 0.  0.
         12    1    1    2    0    0 -0.41849965550E+01  0.17620252557E+02 -0.41244708955E+02  0.45045682514E+02  0.00000000000E+00 0. -1.
         11    1    3    3    0    0 -0.25744192089E+01 -0.18075672648E+01  0.87257367106E+01  0.92754199411E+01  0.51100000000E-03 0. -1.
        -11    1    3    3    0    0  0.91119030629E+00 -0.48079016500E+01  0.85290320247E+01  0.98331365082E+01  0.51100000000E-03 0.  1.
         12    1    3    3    0    0  0.58482254576E+01 -0.11004783643E+02  0.23989940220E+02  0.27033761037E+02  0.00000000000E+00 0. -1.
</event>
<event>
 7    1  0.1541902E-008  0.4614232E+02  0.7816164E-02  0.1320468E+00
        -11   -1    0    0    0    0  0.00000000000E+00  0.00000000000E+00  0.45593999997E+02  0.45594000000E+02  0.51100000000E-03 0.  1.
         11   -1    0    0    0    0 -0.00000000000E+00 -0.00000000000E+00 -0.45593999997E+02  0.45594000000E+02  0.51100000000E-03 0. -1.
    9900012    2    1    2    0    0  0.34328736136E+02 -0.16026758011E+02  0.24367897426E+02  0.46142317387E+02  0.99999965903E+01 0.  0.
         12    1    1    2    0    0 -0.34328736136E+02  0.16026758011E+02 -0.24367897426E+02  0.45045682613E+02  0.00000000000E+00 0. -1.
         11    1    3    3    0    0  0.65251034188E+01 -0.43321851918E+01  0.10798287319E+01  0.79063792923E+01  0.51100000000E-03 0. -1.
        -11    1    3    3    0    0  0.27373303409E+02 -0.11309802504E+02  0.22235551949E+02  0.37035511917E+02  0.51100000000E-03 0.  1.
         12    1    3    3    0    0  0.43032930871E+00 -0.38477031508E+00  0.10525167459E+01  0.12004261783E+01  0.00000000000E+00 0. -1.
</event>
<event>
 7    1  0.1541902E-008  0.4614232E+02  0.7816164E-02  0.1320468E+00
        -11   -1    0    0    0    0  0.00000000000E+00  0.00000000000E+00  0.45593999997E+02  0.45594000000E+02  0.51100000000E-03 0.  1.
         11   -1    0    0    0    0 -0.00000000000E+00 -0.00000000000E+00 -0.45593999997E+02  0.45594000000E+02  0.51100000000E-03 0. -1.
    9900012    2    1    2    0    0  0.23242860703E+02 -0.29902856657E+02  0.24386515293E+02  0.46142317210E+02  0.99999949721E+01 0.  0.
         12    1    1    2    0    0 -0.23242860703E+02  0.29902856657E+02 -0.24386515293E+02  0.45045682790E+02  0.00000000000E+00 0. -1.
         11    1    3    3    0    0  0.50541837057E+01 -0.27241323100E+01  0.18617747291E+01  0.60358823031E+01  0.51100000000E-03 0.  1.
        -11    1    3    3    0    0  0.11368785322E+01 -0.51253394244E+01  0.27363381424E+01  0.59202317271E+01  0.51100000000E-03 0. -1.
        -12    1    3    3    0    0  0.17051798465E+02 -0.22053384923E+02  0.19788402422E+02  0.34186203180E+02  0.00000000000E+00 0.  1.
</event>
<event>
 7    1  0.1541902E-008  0.4614232E+02  0.7816164E-02  0.1320468E+00
        -11   -1    0    0    0    0  0.00000000000E+00  0.00000000000E+00  0.45593999997E+02  0.45594000000E+02  0.51100000000E-03 0.  1.
         11   -1    0    0    0    0 -0.00000000000E+00 -0.00000000000E+00 -0.45593999997E+02  0.45594000000E+02  0.51100000000E-03 0. -1.
    9900012    2    1    2    0    0 -0.34212696940E+02 -0.27414261166E+02  0.10347131392E+02  0.46142317907E+02  0.10000001334E+02 0.  0.
         12    1    1    2    0    0  0.34212696940E+02  0.27414261166E+02 -0.10347131392E+02  0.45045682093E+02  0.00000000000E+00 0. -1.
         11    1    3    3    0    0 -0.42722965141E+01 -0.80967582692E+01  0.25339301309E+01  0.94989901644E+01  0.51100000000E-03 0. -1.
        -11    1    3    3    0    0 -0.25196755782E+02 -0.16407637704E+02  0.52768511484E+01  0.30527565171E+02  0.51100000000E-03 0.  1.
        -12    1    3    3    0    0 -0.47436446441E+01 -0.29098651926E+01  0.25363501127E+01  0.61157625724E+01  0.00000000000E+00 0.  1.
</event>
<event>
 7    1  0.1541902E-008  0.4614232E+02  0.7816164E-02  0.1320468E+00
        -11   -1    0    0    0    0  0.00000000000E+00  0.00000000000E+00  0.45593999997E+02  0.45594000000E+02  0.51100000000E-03 0. -1.
         11   -1    0    0    0    0 -0.00000000000E+00 -0.00000000000E+00 -0.45593999997E+02  0.45594000000E+02  0.51100000000E-03 0.  1.
    9900012    2    1    2    0    0 -0.40637256161E+02  0.58984740223E+01 -0.18518498640E+02  0.46142319009E+02  0.10000011378E+02 0.  0.
         12    1    1    2    0    0  0.40637256161E+02 -0.58984740223E+01  0.18518498640E+02  0.45045680991E+02  0.00000000000E+00 0. -1.
         11    1    3    3    0    0 -0.41224285135E+01 -0.12220423170E+01 -0.44876574051E-01  0.42999788885E+01  0.51100000000E-03 0. -1.
        -11    1    3    3    0    0 -0.33548670473E+02  0.79024714145E+01 -0.16708037107E+02  0.38303013578E+02  0.51100000000E-03 0.  1.
        -12    1    3    3    0    0 -0.29661571747E+01 -0.78195507520E+00 -0.17655849583E+01  0.35393265418E+01  0.00000000000E+00 0.  1.
</event>
<event>
 7    1  0.1541902E-008  0.4614232E+02  0.7816164E-02  0.1320468E+00
        -11   -1    0    0    0    0  0.00000000000E+00  0.00000000000E+00  0.45593999997E+02  0.45594000000E+02  0.51100000000E-03 0.  1.
         11   -1    0    0    0    0 -0.00000000000E+00 -0.00000000000E+00 -0.45593999997E+02  0.45594000000E+02  0.51100000000E-03 0. -1.
    9900012    2    1    2    0    0 -0.18796321567E+02 -0.50084730748E+01  0.40629139120E+02  0.46142318158E+02  0.10000003621E+02 0.  0.
         12    1    1    2    0    0  0.18796321567E+02  0.50084730748E+01 -0.40629139120E+02  0.45045681842E+02  0.00000000000E+00 0. -1.
         11    1    3    3    0    0  0.36214311045E-01 -0.23568932822E+01  0.79246916658E+01  0.82678289580E+01  0.51100000000E-03 0. -1.
        -11    1    3    3    0    0 -0.97219904059E+01 -0.84502149107E+00  0.18198335728E+02  0.20649711434E+02  0.51100000000E-03 0.  1.
         12    1    3    3    0    0 -0.91105454721E+01 -0.18065583015E+01  0.14506111726E+02  0.17224777766E+02  0.00000000000E+00 0. -1.
</event>
<event>
 7    1  0.1541902E-008  0.4614232E+02  0.7816164E-02  0.1320468E+00
        -11   -1    0    0    0    0  0.00000000000E+00  0.00000000000E+00  0.45593999997E+02  0.45594000000E+02  0.51100000000E-03 0.  1.
         11   -1    0    0    0    0 -0.00000000000E+00 -0.00000000000E+00 -0.45593999997E+02  0.45594000000E+02  0.51100000000E-03 0. -1.
    9900012    2    1    2    0    0  0.18264508568E+02  0.39976257680E+02  0.98701576610E+01  0.46142318036E+02  0.10000002507E+02 0.  0.
         12    1    1    2    0    0 -0.18264508568E+02 -0.39976257680E+02 -0.98701576610E+01  0.45045681964E+02  0.00000000000E+00 0. -1.
         11    1    3    3    0    0  0.10210577107E+02  0.16194478673E+02  0.74064860316E+01  0.20527373430E+02  0.51100000000E-03 0. -1.
        -11    1    3    3    0    0  0.28847941310E+01  0.87858358512E+01 -0.12298422354E+01  0.93287438044E+01  0.51100000000E-03 0.  1.
        -12    1    3    3    0    0  0.51691373300E+01  0.14995943156E+02  0.36935138648E+01  0.16286200802E+02  0.00000000000E+00 0.  1.
</event>
<event>
 7    1  0.1541902E-008  0.4614232E+02  0.7816164E-02  0.1320468E+00
        -11   -1    0    0    0    0  0.00000000000E+00  0.00000000000E+00  0.45593999997E+02  0.45594000000E+02  0.51100000000E-03 0.  1.
         11   -1    0    0    0    0 -0.00000000000E+00 -0.00000000000E+00 -0.45593999997E+02  0.45594000000E+02  0.51100000000E-03 0. -1.
    9900012    2    1    2    0    0  0.32158422254E+02 -0.23389648752E+02  0.21163028543E+02  0.46142316880E+02  0.99999919694E+01 0.  0.
         12    1    1    2    0    0 -0.32158422254E+02  0.23389648752E+02 -0.21163028543E+02  0.45045683120E+02  0.00000000000E+00 0. -1.
         11    1    3    3    0    0  0.77880617223E+00 -0.28485510702E+00  0.98097988706E+00  0.12845245369E+01  0.51100000000E-03 0. -1.
        -11    1    3    3    0    0  0.20848272095E+02 -0.16258447230E+02  0.18305926115E+02  0.32157339549E+02  0.51100000000E-03 0.  1.
        -12    1    3    3    0    0  0.10531343987E+02 -0.68463464151E+01  0.18761225408E+01  0.12700452795E+02  0.00000000000E+00 0.  1.
</event>
<event>
 7    1  0.1541902E-008  0.4614232E+02  0.7816164E-02  0.1320468E+00
        -11   -1    0    0    0    0  0.00000000000E+00  0.00000000000E+00  0.45593999997E+02  0.45594000000E+02  0.51100000000E-03 0.  1.
         11   -1    0    0    0    0 -0.00000000000E+00 -0.00000000000E+00 -0.45593999997E+02  0.45594000000E+02  0.51100000000E-03 0. -1.
    9900012    2    1    2    0    0  0.35780050682E+02 -0.78587883882E+01  0.26213370911E+02  0.46142318783E+02  0.10000009323E+02 0.  0.
         12    1    1    2    0    0 -0.35780050682E+02  0.78587883882E+01 -0.26213370911E+02  0.45045681217E+02  0.00000000000E+00 0. -1.
         11    1    3    3    0    0  0.43016120853E+01 -0.97364239106E+00  0.27154354197E-01  0.44105083220E+01  0.51100000000E-03 0. -1.
        -11    1    3    3    0    0  0.55984614357E+01 -0.28554942613E+01  0.56095942011E+01  0.84240231057E+01  0.51100000000E-03 0.  1.
         12    1    3    3    0    0  0.25879977161E+02 -0.40296517359E+01  0.20576622356E+02  0.33307787356E+02  0.00000000000E+00 0. -1.
</event>
<event>
 7    1  0.1541902E-008  0.4614232E+02  0.7816164E-02  0.1320468E+00
        -11   -1    0    0    0    0  0.00000000000E+00  0.00000000000E+00  0.45593999997E+02  0.45594000000E+02  0.51100000000E-03 0.  1.
         11   -1    0    0    0    0 -0.00000000000E+00 -0.00000000000E+00 -0.45593999997E+02  0.45594000000E+02  0.51100000000E-03 0. -1.
    9900012    2    1    2    0    0 -0.22269662730E+02  0.17431742488E+02  0.35061517557E+02  0.46142317213E+02  0.99999950062E+01 0.  0.
         12    1    1    2    0    0  0.22269662730E+02 -0.17431742488E+02 -0.35061517557E+02  0.45045682787E+02  0.00000000000E+00 0. -1.
         11    1    3    3    0    0  0.43061053115E+00  0.10809101093E+01  0.19355099312E+01  0.22583159763E+01  0.51100000000E-03 0. -1.
        -11    1    3    3    0    0 -0.41111877078E+01  0.48287783664E+01  0.41428005312E+01  0.75750750084E+01  0.51100000000E-03 0.  1.
        -12    1    3    3    0    0 -0.18589085554E+02  0.11522054012E+02  0.28983207095E+02  0.36308926229E+02  0.00000000000E+00 0.  1.
</event>
<event>
 7    1  0.1541902E-008  0.4614232E+02  0.7816164E-02  0.1320468E+00
        -11   -1    0    0    0    0  0.00000000000E+00  0.00000000000E+00  0.45593999997E+02  0.45594000000E+02  0.51100000000E-03 0.  1.
         11   -1    0    0    0    0 -0.00000000000E+00 -0.00000000000E+00 -0.45593999997E+02  0.45594000000E+02  0.51100000000E-03 0. -1.
    9900012    2    1    2    0    0 -0.34388706203E+01 -0.44802822727E+02 -0.31614411797E+01  0.46142318011E+02  0.10000002283E+02 0.  0.
         12    1    1    2    0    0  0.34388706203E+01  0.44802822727E+02  0.31614411797E+01  0.45045681989E+02  0.00000000000E+00 0. -1.
         11    1    3    3    0    0 -0.56290181066E+01 -0.13325500158E+02 -0.92091034534E+00  0.14494925852E+02  0.51100000000E-03 0. -1.
        -11    1    3    3    0    0  0.19861825693E+01 -0.23135436532E+02 -0.18426131447E+01  0.23293530609E+02  0.51100000000E-03 0.  1.
         12    1    3    3    0    0  0.20396491700E+00 -0.83418860365E+01 -0.39791768967E+00  0.83538615514E+01  0.00000000000E+00 0. -1.
</event>
<event>
 7    1  0.1541902E-008  0.4614232E+02  0.7816164E-02  0.1320468E+00
        -11   -1    0    0    0    0  0.00000000000E+00  0.00000000000E+00  0.45593999997E+02  0.45594000000E+02  0.51100000000E-03 0. -1.
         11   -1    0    0    0    0 -0.00000000000E+00 -0.00000000000E+00 -0.45593999997E+02  0.45594000000E+02  0.51100000000E-03 0.  1.
    9900012    2    1    2    0    0 -0.10066363144E+02  0.30670631770E+02 -0.31418054684E+02  0.46142317852E+02  0.10000000824E+02 0.  0.
         12    1    1    2    0    0  0.10066363144E+02 -0.30670631770E+02  0.31418054684E+02  0.45045682148E+02  0.00000000000E+00 0. -1.
         11    1    3    3    0    0 -0.90158087852E+01  0.17147751726E+02 -0.13714935921E+02  0.23736673416E+02  0.51100000000E-03 0. -1.
        -11    1    3    3    0    0 -0.12395255891E+01  0.13000996179E+02 -0.16234104140E+02  0.20835269684E+02  0.51100000000E-03 0.  1.
         12    1    3    3    0    0  0.18897123064E+00  0.52188386529E+00 -0.14690146238E+01  0.15703747514E+01  0.00000000000E+00 0. -1.
</event>
<event>
 7    1  0.1541902E-008  0.4614232E+02  0.7816164E-02  0.1320468E+00
        -11   -1    0    0    0    0  0.00000000000E+00  0.00000000000E+00  0.45593999997E+02  0.45594000000E+02  0.51100000000E-03 0. -1.
         11   -1    0    0    0    0 -0.00000000000E+00 -0.00000000000E+00 -0.45593999997E+02  0.45594000000E+02  0.51100000000E-03 0.  1.
    9900012    2    1    2    0    0  0.27938780343E+02  0.35069318509E+02  0.43221129996E+01  0.46142320867E+02  0.10000028324E+02 0.  0.
         12    1    1    2    0    0 -0.27938780343E+02 -0.35069318509E+02 -0.43221129996E+01  0.45045679133E+02  0.00000000000E+00 0. -1.
         11    1    3    3    0    0  0.80998058807E+01  0.51459342308E+01 -0.90504954290E+00  0.96388074651E+01  0.51100000000E-03 0. -1.
        -11    1    3    3    0    0  0.14476718141E+02  0.18668466725E+02  0.26406084174E+01  0.23770987171E+02  0.51100000000E-03 0.  1.
        -12    1    3    3    0    0  0.53622563210E+01  0.11254917554E+02  0.25865541251E+01  0.12732526231E+02  0.00000000000E+00 0.  1.
</event>
<event>
 7    1  0.1541902E-008  0.4614232E+02  0.7816164E-02  0.1320468E+00
        -11   -1    0    0    0    0  0.00000000000E+00  0.00000000000E+00  0.45593999997E+02  0.45594000000E+02  0.51100000000E-03 0.  1.
         11   -1    0    0    0    0 -0.00000000000E+00 -0.00000000000E+00 -0.45593999997E+02  0.45594000000E+02  0.51100000000E-03 0. -1.
    9900012    2    1    2    0    0  0.96250807640E+01 -0.33842467708E+01  0.43875030592E+02  0.46142316351E+02  0.99999871451E+01 0.  0.
         12    1    1    2    0    0 -0.96250807640E+01  0.33842467708E+01 -0.43875030592E+02  0.45045683649E+02  0.00000000000E+00 0. -1.
         11    1    3    3    0    0  0.78728651171E+00  0.17503237625E+01  0.20924788387E+01  0.28393522636E+01  0.51100000000E-03 0. -1.
        -11    1    3    3    0    0  0.49613747975E+01 -0.27751302749E+01  0.32227410150E+02  0.32724953066E+02  0.51100000000E-03 0.  1.
        -12    1    3    3    0    0  0.38764194548E+01 -0.23594402585E+01  0.95551416036E+01  0.10578011022E+02  0.00000000000E+00 0.  1.
</event>
<event>
 7    1  0.1541902E-008  0.4614232E+02  0.7816164E-02  0.1320468E+00
        -11   -1    0    0    0    0  0.00000000000E+00  0.00000000000E+00  0.45593999997E+02  0.45594000000E+02  0.51100000000E-03 0.  1.
         11   -1    0    0    0    0 -0.00000000000E+00 -0.00000000000E+00 -0.45593999997E+02  0.45594000000E+02  0.51100000000E-03 0. -1.
    9900012    2    1    2    0    0  0.37063552791E+02  0.14776624570E+02  0.20905921292E+02  0.46142321804E+02  0.10000036863E+02 0.  0.
         12    1    1    2    0    0 -0.37063552791E+02 -0.14776624570E+02 -0.20905921292E+02  0.45045678196E+02  0.00000000000E+00 0. -1.
         11    1    3    3    0    0  0.11364566620E+02  0.71507122345E+01  0.28979236298E+01  0.13736230253E+02  0.51100000000E-03 0. -1.
        -11    1    3    3    0    0  0.13692360165E+02  0.27135466518E+01  0.88796333676E+01  0.16543637790E+02  0.51100000000E-03 0.  1.
         12    1    3    3    0    0  0.12006626006E+02  0.49123656833E+01  0.91283642942E+01  0.15862453761E+02  0.00000000000E+00 0. -1.
</event>
<event>
 7    1  0.1541902E-008  0.4614232E+02  0.7816164E-02  0.1320468E+00
        -11   -1    0    0    0    0  0.00000000000E+00  0.00000000000E+00  0.45593999997E+02  0.45594000000E+02  0.51100000000E-03 0.  1.
         11   -1    0    0    0    0 -0.00000000000E+00 -0.00000000000E+00 -0.45593999997E+02  0.45594000000E+02  0.51100000000E-03 0. -1.
    9900012    2    1    2    0    0  0.36870577850E+02 -0.22089451889E+02 -0.13480728823E+02  0.46142318239E+02  0.10000004355E+02 0.  0.
         12    1    1    2    0    0 -0.36870577850E+02  0.22089451889E+02  0.13480728823E+02  0.45045681761E+02  0.00000000000E+00 0. -1.
         11    1    3    3    0    0  0.94911744640E+01 -0.36137681072E+01 -0.30208769507E+00  0.10160362684E+02  0.51100000000E-03 0. -1.
        -11    1    3    3    0    0  0.18853243349E+02 -0.98352277788E+01 -0.71974543148E+01  0.22449495297E+02  0.51100000000E-03 0.  1.
        -12    1    3    3    0    0  0.85261600370E+01 -0.86404560030E+01 -0.59811868134E+01  0.13532460257E+02  0.00000000000E+00 0.  1.
</event>
<event>
 7    1  0.1541902E-008  0.4614232E+02  0.7816164E-02  0.1320468E+00
        -11   -1    0    0    0    0  0.00000000000E+00  0.00000000000E+00  0.45593999997E+02  0.45594000000E+02  0.51100000000E-03 0.  1.
         11   -1    0    0    0    0 -0.00000000000E+00 -0.00000000000E+00 -0.45593999997E+02  0.45594000000E+02  0.51100000000E-03 0. -1.
    9900012    2    1    2    0    0 -0.76467176801E+01 -0.14958237975E+02  0.41795840556E+02  0.46142318050E+02  0.10000002635E+02 0.  0.
         12    1    1    2    0    0  0.76467176801E+01  0.14958237975E+02 -0.41795840556E+02  0.45045681950E+02  0.00000000000E+00 0. -1.
         11    1    3    3    0    0 -0.72028900779E+01 -0.88471844784E+01  0.19333235007E+02  0.22448346816E+02  0.51100000000E-03 0. -1.
        -11    1    3    3    0    0  0.52322119394E+00 -0.57514057077E+01  0.13653622296E+02  0.14824770827E+02  0.51100000000E-03 0.  1.
        -12    1    3    3    0    0 -0.96704879614E+00 -0.35964778844E+00  0.88089832529E+01  0.88692004068E+01  0.00000000000E+00 0.  1.
</event>
<event>
 7    1  0.1541902E-008  0.4614232E+02  0.7816164E-02  0.1320468E+00
        -11   -1    0    0    0    0  0.00000000000E+00  0.00000000000E+00  0.45593999997E+02  0.45594000000E+02  0.51100000000E-03 0.  1.
         11   -1    0    0    0    0 -0.00000000000E+00 -0.00000000000E+00 -0.45593999997E+02  0.45594000000E+02  0.51100000000E-03 0. -1.
    9900012    2    1    2    0    0 -0.21422906649E+02  0.10861941765E+01  0.39610512087E+02  0.46142318576E+02  0.10000007434E+02 0.  0.
         12    1    1    2    0    0  0.21422906649E+02 -0.10861941765E+01 -0.39610512087E+02  0.45045681424E+02  0.00000000000E+00 0. -1.
         11    1    3    3    0    0 -0.18592184622E+01  0.80253575042E+00  0.14456472906E+01  0.24881023433E+01  0.51100000000E-03 0. -1.
        -11    1    3    3    0    0 -0.60317797156E+01 -0.13069047982E+01  0.20106464048E+02  0.21032362289E+02  0.51100000000E-03 0.  1.
        -12    1    3    3    0    0 -0.13531908472E+02  0.15905632243E+01  0.18058400749E+02  0.22621853944E+02  0.00000000000E+00 0.  1.
</event>
<event>
 7    1  0.1541902E-008  0.4614232E+02  0.7816164E-02  0.1320468E+00
        -11   -1    0    0    0    0  0.00000000000E+00  0.00000000000E+00  0.45593999997E+02  0.45594000000E+02  0.51100000000E-03 0. -1.
         11   -1    0    0    0    0 -0.00000000000E+00 -0.00000000000E+00 -0.45593999997E+02  0.45594000000E+02  0.51100000000E-03 0.  1.
    9900012    2    1    2    0    0  0.75315812207E+00  0.17729645024E+02 -0.41402967330E+02  0.46142320256E+02  0.10000022749E+02 0.  0.
         12    1    1    2    0    0 -0.75315812207E+00 -0.17729645024E+02  0.41402967330E+02  0.45045679744E+02  0.00000000000E+00 0. -1.
         11    1    3    3    0    0 -0.19057665461E+01  0.12910455740E+01 -0.24696409310E+01  0.33760733688E+01  0.51100000000E-03 0. -1.
        -11    1    3    3    0    0  0.36850809947E+01  0.14748949863E+02 -0.36999006623E+02  0.40000472939E+02  0.51100000000E-03 0.  1.
        -12    1    3    3    0    0 -0.10261563265E+01  0.16896495869E+01 -0.19343197762E+01  0.27657739476E+01  0.00000000000E+00 0.  1.
</event>
<event>
 7    1  0.1541902E-008  0.4614232E+02  0.7816164E-02  0.1320468E+00
        -11   -1    0    0    0    0  0.00000000000E+00  0.00000000000E+00  0.45593999997E+02  0.45594000000E+02  0.51100000000E-03 0. -1.
         11   -1    0    0    0    0 -0.00000000000E+00 -0.00000000000E+00 -0.45593999997E+02  0.45594000000E+02  0.51100000000E-03 0.  1.
    9900012    2    1    2    0    0 -0.10318161990E+02  0.43447538901E+02 -0.59127322424E+01  0.46142317566E+02  0.99999982200E+01 0.  0.
         12    1    1    2    0    0  0.10318161990E+02 -0.43447538901E+02  0.59127322424E+01  0.45045682434E+02  0.00000000000E+00 0. -1.
         11    1    3    3    0    0  0.80108506497E-01  0.92404565629E+01 -0.27497167734E+01  0.96412342290E+01  0.51100000000E-03 0. -1.
        -11    1    3    3    0    0 -0.60300557488E+01  0.21002980053E+02  0.13124070026E+01  0.21890846394E+02  0.51100000000E-03 0.  1.
         12    1    3    3    0    0 -0.43682147477E+01  0.13204102285E+02 -0.44754224717E+01  0.14610236943E+02  0.00000000000E+00 0. -1.
</event>
<event>
 7    1  0.1541902E-008  0.4614232E+02  0.7816164E-02  0.1320468E+00
        -11   -1    0    0    0    0  0.00000000000E+00  0.00000000000E+00  0.45593999997E+02  0.45594000000E+02  0.51100000000E-03 0.  1.
         11   -1    0    0    0    0 -0.00000000000E+00 -0.00000000000E+00 -0.45593999997E+02  0.45594000000E+02  0.51100000000E-03 0. -1.
    9900012    2    1    2    0    0 -0.23495281481E+02 -0.15496962525E+02  0.35170005072E+02  0.46142319229E+02  0.10000013384E+02 0.  0.
         12    1    1    2    0    0  0.23495281481E+02  0.15496962525E+02 -0.35170005072E+02  0.45045680771E+02  0.00000000000E+00 0. -1.
         11    1    3    3    0    0 -0.92004246695E+01 -0.24080179580E+01  0.64997534947E+01  0.11519251726E+02  0.51100000000E-03 0. -1.
        -11    1    3    3    0    0 -0.13509637640E+02 -0.12119372455E+02  0.27130431094E+02  0.32641228370E+02  0.51100000000E-03 0.  1.
         12    1    3    3    0    0 -0.78521917192E+00 -0.96957211174E+00  0.15398204832E+01  0.19818391328E+01  0.00000000000E+00 0. -1.
</event>
<event>
 7    1  0.1541902E-008  0.4614232E+02  0.7816164E-02  0.1320468E+00
        -11   -1    0    0    0    0  0.00000000000E+00  0.00000000000E+00  0.45593999997E+02  0.45594000000E+02  0.51100000000E-03 0. -1.
         11   -1    0    0    0    0 -0.00000000000E+00 -0.00000000000E+00 -0.45593999997E+02  0.45594000000E+02  0.51100000000E-03 0.  1.
    9900012    2    1    2    0    0  0.38544798298E+01 -0.16003889256E+01 -0.44851924996E+02  0.46142318350E+02  0.10000005369E+02 0.  0.
         12    1    1    2    0    0 -0.38544798298E+01  0.16003889256E+01  0.44851924996E+02  0.45045681650E+02  0.00000000000E+00 0. -1.
         11    1    3    3    0    0  0.15860367135E+00  0.20449083139E+01 -0.12138308539E+02  0.12310375282E+02  0.51100000000E-03 0. -1.
        -11    1    3    3    0    0 -0.12870043872E+01 -0.33415964326E+01 -0.15556476098E+02  0.15963289005E+02  0.51100000000E-03 0.  1.
        -12    1    3    3    0    0  0.49828805457E+01 -0.30370080686E+00 -0.17157140359E+02  0.17868654062E+02  0.00000000000E+00 0.  1.
</event>
<event>
 7    1  0.1541902E-008  0.4614232E+02  0.7816164E-02  0.1320468E+00
        -11   -1    0    0    0    0  0.00000000000E+00  0.00000000000E+00  0.45593999997E+02  0.45594000000E+02  0.51100000000E-03 0.  1.
         11   -1    0    0    0    0 -0.00000000000E+00 -0.00000000000E+00 -0.45593999997E+02  0.45594000000E+02  0.51100000000E-03 0. -1.
    9900012    2    1    2    0    0  0.38725252970E+02 -0.23004575823E+02  0.50775162112E+00  0.46142317209E+02  0.99999949664E+01 0.  0.
         12    1    1    2    0    0 -0.38725252970E+02  0.23004575823E+02 -0.50775162112E+00  0.45045682791E+02  0.00000000000E+00 0. -1.
         11    1    3    3    0    0  0.45030752937E+01 -0.56320805039E+01  0.10427633602E+01  0.72859710121E+01  0.51100000000E-03 0. -1.
        -11    1    3    3    0    0  0.25082814584E+02 -0.10026406835E+02 -0.17420883660E+01  0.27068640409E+02  0.51100000000E-03 0.  1.
        -12    1    3    3    0    0  0.91393630923E+01 -0.73460884847E+01  0.12070766269E+01  0.11787705788E+02  0.00000000000E+00 0.  1.
</event>
<event>
 7    1  0.1541902E-008  0.4614232E+02  0.7816164E-02  0.1320468E+00
        -11   -1    0    0    0    0  0.00000000000E+00  0.00000000000E+00  0.45593999997E+02  0.45594000000E+02  0.51100000000E-03 0. -1.
         11   -1    0    0    0    0 -0.00000000000E+00 -0.00000000000E+00 -0.45593999997E+02  0.45594000000E+02  0.51100000000E-03 0.  1.
    9900012    2    1    2    0    0  0.44370724250E+02  0.69208341851E+01 -0.35290716759E+01  0.46142318040E+02  0.10000002546E+02 0.  0.
         12    1    1    2    0    0 -0.44370724250E+02 -0.69208341851E+01  0.35290716759E+01  0.45045681960E+02  0.00000000000E+00 0. -1.
         11    1    3    3    0    0  0.69784983919E+01 -0.16791897937E+01 -0.25796694803E+01  0.76271759556E+01  0.51100000000E-03 0. -1.
        -11    1    3    3    0    0  0.24504315579E+02  0.68880698414E+01 -0.15405477250E+01  0.25500593634E+02  0.51100000000E-03 0.  1.
         12    1    3    3    0    0  0.12887910279E+02  0.17119541374E+01  0.59114552947E+00  0.13014548451E+02  0.00000000000E+00 0. -1.
</event>
<event>
 7    1  0.1541902E-008  0.4614233E+02  0.7816164E-02  0.1320468E+00
        -11   -1    0    0    0    0  0.00000000000E+00  0.00000000000E+00  0.45593999997E+02  0.45594000000E+02  0.51100000000E-03 0. -1.
         11   -1    0    0    0    0 -0.00000000000E+00 -0.00000000000E+00 -0.45593999997E+02  0.45594000000E+02  0.51100000000E-03 0.  1.
    9900012    2    1    2    0    0 -0.24547403117E+02 -0.23782954121E+02 -0.29341248254E+02  0.46142325894E+02  0.10000074164E+02 0.  0.
         12    1    1    2    0    0  0.24547403117E+02  0.23782954121E+02  0.29341248254E+02  0.45045674106E+02  0.00000000000E+00 0. -1.
         11    1    3    3    0    0 -0.10304428355E+02 -0.11985591716E+02 -0.17669784973E+02  0.23707740377E+02  0.51100000000E-03 0. -1.
        -11    1    3    3    0    0 -0.96850608334E+01 -0.48387569946E+01 -0.61660623576E+01  0.12459305673E+02  0.51100000000E-03 0.  1.
         12    1    3    3    0    0 -0.45579139284E+01 -0.69586054111E+01 -0.55054009231E+01  0.99752798442E+01  0.00000000000E+00 0. -1.
</event>
<event>
 7    1  0.1541902E-008  0.4614232E+02  0.7816164E-02  0.1320468E+00
        -11   -1    0    0    0    0  0.00000000000E+00  0.00000000000E+00  0.45593999997E+02  0.45594000000E+02  0.51100000000E-03 0. -1.
         11   -1    0    0    0    0 -0.00000000000E+00 -0.00000000000E+00 -0.45593999997E+02  0.45594000000E+02  0.51100000000E-03 0.  1.
    9900012    2    1    2    0    0 -0.15960111106E+02  0.23402051841E+02 -0.35024730401E+02  0.46142324108E+02  0.10000057875E+02 0.  0.
         12    1    1    2    0    0  0.15960111106E+02 -0.23402051841E+02  0.35024730401E+02  0.45045675892E+02  0.00000000000E+00 0. -1.
         11    1    3    3    0    0 -0.80995513186E+00  0.86731022041E+00 -0.32248424027E+00  0.12297360206E+01  0.51100000000E-03 0. -1.
        -11    1    3    3    0    0 -0.23292509864E+01  0.34841266526E+01 -0.11623666523E+02  0.12356139057E+02  0.51100000000E-03 0.  1.
        -12    1    3    3    0    0 -0.12820904988E+02  0.19050614968E+02 -0.23078579638E+02  0.32556449031E+02  0.00000000000E+00 0.  1.
</event>
<event>
 7    1  0.1541902E-008  0.4614231E+02  0.7816164E-02  0.1320468E+00
        -11   -1    0    0    0    0  0.00000000000E+00  0.00000000000E+00  0.45593999997E+02  0.45594000000E+02  0.51100000000E-03 0.  1.
         11   -1    0    0    0    0 -0.00000000000E+00 -0.00000000000E+00 -0.45593999997E+02  0.45594000000E+02  0.51100000000E-03 0. -1.
    9900012    2    1    2    0    0  0.22885158427E+02  0.11059243915E+02  0.37189736679E+02  0.46142313565E+02  0.99999617327E+01 0.  0.
         12    1    1    2    0    0 -0.22885158427E+02 -0.11059243915E+02 -0.37189736679E+02  0.45045686435E+02  0.00000000000E+00 0. -1.
         11    1    3    3    0    0 -0.21001712743E+00 -0.21988983924E+00  0.92407565202E-02  0.30421109105E+00  0.51100000000E-03 0. -1.
        -11    1    3    3    0    0  0.50143800264E+01  0.49987398543E+01  0.61456804550E+01  0.93755424215E+01  0.51100000000E-03 0.  1.
         12    1    3    3    0    0  0.18080795528E+02  0.62803939001E+01  0.31034815467E+02  0.36462560052E+02  0.00000000000E+00 0. -1.
</event>
<event>
 7    1  0.1541902E-008  0.4614232E+02  0.7816164E-02  0.1320468E+00
        -11   -1    0    0    0    0  0.00000000000E+00  0.00000000000E+00  0.45593999997E+02  0.45594000000E+02  0.51100000000E-03 0.  1.
         11   -1    0    0    0    0 -0.00000000000E+00 -0.00000000000E+00 -0.45593999997E+02  0.45594000000E+02  0.51100000000E-03 0. -1.
    9900012    2    1    2    0    0 -0.37951609308E+02  0.22012130164E+02  0.10210531279E+02  0.46142317938E+02  0.10000001616E+02 0.  0.
         12    1    1    2    0    0  0.37951609308E+02 -0.22012130164E+02 -0.10210531279E+02  0.45045682062E+02  0.00000000000E+00 0. -1.
         11    1    3    3    0    0 -0.18314434944E+02  0.51526996931E+01  0.30170312642E+01  0.19263211553E+02  0.51100000000E-03 0. -1.
        -11    1    3    3    0    0 -0.17335497428E+02  0.15154024060E+02  0.61767214812E+01  0.23839375092E+02  0.51100000000E-03 0.  1.
         12    1    3    3    0    0 -0.23016769357E+01  0.17054064114E+01  0.10167785335E+01  0.30397312925E+01  0.00000000000E+00 0. -1.
</event>
<event>
 7    1  0.1541902E-008  0.4614232E+02  0.7816164E-02  0.1320468E+00
        -11   -1    0    0    0    0  0.00000000000E+00  0.00000000000E+00  0.45593999997E+02  0.45594000000E+02  0.51100000000E-03 0. -1.
         11   -1    0    0    0    0 -0.00000000000E+00 -0.00000000000E+00 -0.45593999997E+02  0.45594000000E+02  0.51100000000E-03 0.  1.
    9900012    2    1    2    0    0  0.29545935981E+01  0.43887395974E+02  0.97098038948E+01  0.46142318293E+02  0.10000004855E+02 0.  0.
         12    1    1    2    0    0 -0.29545935981E+01 -0.43887395974E+02 -0.97098038948E+01  0.45045681707E+02  0.00000000000E+00 0. -1.
         11    1    3    3    0    0  0.27763166112E+01  0.16050938490E+02  0.68131057205E+01  0.17656697601E+02  0.51100000000E-03 0. -1.
        -11    1    3    3    0    0  0.14878857642E+01  0.19005448435E+02 -0.11431573100E+00  0.19063943522E+02  0.51100000000E-03 0.  1.
        -12    1    3    3    0    0 -0.13096087772E+01  0.88310090494E+01  0.30110139053E+01  0.94216771712E+01  0.00000000000E+00 0.  1.
</event>
<event>
 7    1  0.1541902E-008  0.4614232E+02  0.7816164E-02  0.1320468E+00
        -11   -1    0    0    0    0  0.00000000000E+00  0.00000000000E+00  0.45593999997E+02  0.45594000000E+02  0.51100000000E-03 0.  1.
         11   -1    0    0    0    0 -0.00000000000E+00 -0.00000000000E+00 -0.45593999997E+02  0.45594000000E+02  0.51100000000E-03 0. -1.
    9900012    2    1    2    0    0  0.22535203999E+02  0.30416629005E+02 -0.24415300037E+02  0.46142316353E+02  0.99999871625E+01 0.  0.
         12    1    1    2    0    0 -0.22535203999E+02 -0.30416629005E+02  0.24415300037E+02  0.45045683647E+02  0.00000000000E+00 0. -1.
         11    1    3    3    0    0  0.58853431031E+01  0.11645920721E+02 -0.12145380773E+02  0.17826244900E+02  0.51100000000E-03 0. -1.
        -11    1    3    3    0    0  0.15856093636E+01  0.41390297055E+01 -0.30529663025E+01  0.53820374824E+01  0.51100000000E-03 0.  1.
         12    1    3    3    0    0  0.15064251532E+02  0.14631678579E+02 -0.92169529618E+01  0.22934033970E+02  0.00000000000E+00 0. -1.
</event>
<event>
 7    1  0.1541902E-008  0.4614232E+02  0.7816164E-02  0.1320468E+00
        -11   -1    0    0    0    0  0.00000000000E+00  0.00000000000E+00  0.45593999997E+02  0.45594000000E+02  0.51100000000E-03 0.  1.
         11   -1    0    0    0    0 -0.00000000000E+00 -0.00000000000E+00 -0.45593999997E+02  0.45594000000E+02  0.51100000000E-03 0. -1.
    9900012    2    1    2    0    0 -0.44837924444E+02  0.92718891127E+00  0.42207000803E+01  0.46142318111E+02  0.10000003187E+02 0.  0.
         12    1    1    2    0    0  0.44837924444E+02 -0.92718891127E+00 -0.42207000803E+01  0.45045681889E+02  0.00000000000E+00 0. -1.
         11    1    3    3    0    0 -0.10261083151E+02 -0.51669802738E+00 -0.11968552740E+01  0.10343561625E+02  0.51100000000E-03 0. -1.
        -11    1    3    3    0    0 -0.25373641554E+02 -0.21169835912E+01  0.48088681786E+01  0.25911937764E+02  0.51100000000E-03 0.  1.
        -12    1    3    3    0    0 -0.92031997391E+01  0.35608705299E+01  0.60868717567E+00  0.98868187223E+01  0.00000000000E+00 0.  1.
</event>
<event>
 7    1  0.1541902E-008  0.4614232E+02  0.7816164E-02  0.1320468E+00
        -11   -1    0    0    0    0  0.00000000000E+00  0.00000000000E+00  0.45593999997E+02  0.45594000000E+02  0.51100000000E-03 0.  1.
         11   -1    0    0    0    0 -0.00000000000E+00 -0.00000000000E+00 -0.45593999997E+02  0.45594000000E+02  0.51100000000E-03 0. -1.
    9900012    2    1    2    0    0 -0.64075820509E+01 -0.11296115793E+02  0.43132983168E+02  0.46142316781E+02  0.99999910582E+01 0.  0.
         12    1    1    2    0    0  0.64075820509E+01  0.11296115793E+02 -0.43132983168E+02  0.45045683219E+02  0.00000000000E+00 0. -1.
         11    1    3    3    0    0 -0.35256690001E+01 -0.96328465682E+01  0.19265340107E+02  0.21826025854E+02  0.51100000000E-03 0. -1.
        -11    1    3    3    0    0 -0.19433097093E+01 -0.60445802888E+00  0.21192530322E+02  0.21290024985E+02  0.51100000000E-03 0.  1.
        -12    1    3    3    0    0 -0.93860334148E+00 -0.10588111964E+01  0.26751127388E+01  0.30262659413E+01  0.00000000000E+00 0.  1.
</event>
<event>
 7    1  0.1541902E-008  0.4614232E+02  0.7816164E-02  0.1320468E+00
        -11   -1    0    0    0    0  0.00000000000E+00  0.00000000000E+00  0.45593999997E+02  0.45594000000E+02  0.51100000000E-03 0.  1.
         11   -1    0    0    0    0 -0.00000000000E+00 -0.00000000000E+00 -0.45593999997E+02  0.45594000000E+02  0.51100000000E-03 0. -1.
    9900012    2    1    2    0    0  0.27874719814E+02  0.25858545112E+02  0.24154691539E+02  0.46142317816E+02  0.10000000504E+02 0.  0.
         12    1    1    2    0    0 -0.27874719814E+02 -0.25858545112E+02 -0.24154691539E+02  0.45045682184E+02  0.00000000000E+00 0. -1.
         11    1    3    3    0    0  0.66432135917E+01  0.38358503056E+01  0.75672317981E+01  0.10775390097E+02  0.51100000000E-03 0. -1.
        -11    1    3    3    0    0  0.18207191229E+02  0.16019542865E+02  0.11015354785E+02  0.26635795602E+02  0.51100000000E-03 0.  1.
         12    1    3    3    0    0  0.30243149941E+01  0.60031519410E+01  0.55721049567E+01  0.87311321178E+01  0.00000000000E+00 0. -1.
</event>
<event>
 7    1  0.1541902E-008  0.4614232E+02  0.7816164E-02  0.1320468E+00
        -11   -1    0    0    0    0  0.00000000000E+00  0.00000000000E+00  0.45593999997E+02  0.45594000000E+02  0.51100000000E-03 0. -1.
         11   -1    0    0    0    0 -0.00000000000E+00 -0.00000000000E+00 -0.45593999997E+02  0.45594000000E+02  0.51100000000E-03 0.  1.
    9900012    2    1    2    0    0  0.40980867167E+02  0.17798509290E+02 -0.57354252227E+01  0.46142317530E+02  0.99999978922E+01 0.  0.
         12    1    1    2    0    0 -0.40980867167E+02 -0.17798509290E+02  0.57354252227E+01  0.45045682470E+02  0.00000000000E+00 0. -1.
         11    1    3    3    0    0  0.14214686294E+02  0.99038004995E+01 -0.42405891919E+01  0.17836063684E+02  0.51100000000E-03 0. -1.
        -11    1    3    3    0    0  0.54802228796E+01  0.33358848114E+00  0.99728686126E+00  0.55802065759E+01  0.51100000000E-03 0.  1.
        -12    1    3    3    0    0  0.21285957993E+02  0.75611203091E+01 -0.24921228920E+01  0.22726047270E+02  0.00000000000E+00 0.  1.
</event>
<event>
 7    1  0.1541902E-008  0.4614232E+02  0.7816164E-02  0.1320468E+00
        -11   -1    0    0    0    0  0.00000000000E+00  0.00000000000E+00  0.45593999997E+02  0.45594000000E+02  0.51100000000E-03 0.  1.
         11   -1    0    0    0    0 -0.00000000000E+00 -0.00000000000E+00 -0.45593999997E+02  0.45594000000E+02  0.51100000000E-03 0. -1.
    9900012    2    1    2    0    0 -0.32000538685E+02 -0.72292101477E+01  0.30867744345E+02  0.46142316561E+02  0.99999890591E+01 0.  0.
         12    1    1    2    0    0  0.32000538685E+02  0.72292101477E+01 -0.30867744345E+02  0.45045683439E+02  0.00000000000E+00 0. -1.
         11    1    3    3    0    0 -0.10388442367E+02 -0.29732243820E+01  0.99351980152E+01  0.14678826857E+02  0.51100000000E-03 0. -1.
        -11    1    3    3    0    0 -0.16755848312E+02 -0.59497135751E+01  0.13067874766E+02  0.22066420086E+02  0.51100000000E-03 0.  1.
         12    1    3    3    0    0 -0.48562480070E+01  0.16937278095E+01  0.78646715639E+01  0.93970696180E+01  0.00000000000E+00 0. -1.
</event>
<event>
 7    1  0.1541902E-008  0.4614232E+02  0.7816164E-02  0.1320468E+00
        -11   -1    0    0    0    0  0.00000000000E+00  0.00000000000E+00  0.45593999997E+02  0.45594000000E+02  0.51100000000E-03 0.  1.
         11   -1    0    0    0    0 -0.00000000000E+00 -0.00000000000E+00 -0.45593999997E+02  0.45594000000E+02  0.51100000000E-03 0. -1.
    9900012    2    1    2    0    0 -0.25181457147E+02  0.18394126480E+01  0.37304481666E+02  0.46142316796E+02  0.99999911975E+01 0.  0.
         12    1    1    2    0    0  0.25181457147E+02 -0.18394126480E+01 -0.37304481666E+02  0.45045683204E+02  0.00000000000E+00 0. -1.
         11    1    3    3    0    0 -0.10139858029E+02  0.18925617811E+01  0.16449974319E+02  0.19416492121E+02  0.51100000000E-03 0. -1.
        -11    1    3    3    0    0 -0.46428422176E+01  0.31504022549E+01  0.92440433564E+01  0.10813572770E+02  0.51100000000E-03 0.  1.
         12    1    3    3    0    0 -0.10398756901E+02 -0.32035513880E+01  0.11610463991E+02  0.15912251904E+02  0.00000000000E+00 0. -1.
</event>
<event>
 7    1  0.1541902E-008  0.4614232E+02  0.7816164E-02  0.1320468E+00
        -11   -1    0    0    0    0  0.00000000000E+00  0.00000000000E+00  0.45593999997E+02  0.45594000000E+02  0.51100000000E-03 0. -1.
         11   -1    0    0    0    0 -0.00000000000E+00 -0.00000000000E+00 -0.45593999997E+02  0.45594000000E+02  0.51100000000E-03 0.  1.
    9900012    2    1    2    0    0 -0.25551171730E+02  0.27411536544E+02 -0.24997175216E+02  0.46142317840E+02  0.10000000721E+02 0.  0.
         12    1    1    2    0    0  0.25551171730E+02 -0.27411536544E+02  0.24997175216E+02  0.45045682160E+02  0.00000000000E+00 0. -1.
         11    1    3    3    0    0 -0.48202446553E+01  0.89468950686E+01 -0.67149104395E+01  0.12180792765E+02  0.51100000000E-03 0.  1.
        -11    1    3    3    0    0 -0.12381510593E+02  0.15200041073E+02 -0.13474569375E+02  0.23788801426E+02  0.51100000000E-03 0. -1.
         12    1    3    3    0    0 -0.83494164817E+01  0.32646004016E+01 -0.48076954018E+01  0.10172723649E+02  0.00000000000E+00 0. -1.
</event>
<event>
 7    1  0.1541902E-008  0.4614232E+02  0.7816164E-02  0.1320468E+00
        -11   -1    0    0    0    0  0.00000000000E+00  0.00000000000E+00  0.45593999997E+02  0.45594000000E+02  0.51100000000E-03 0.  1.
         11   -1    0    0    0    0 -0.00000000000E+00 -0.00000000000E+00 -0.45593999997E+02  0.45594000000E+02  0.51100000000E-03 0. -1.
    9900012    2    1    2    0    0 -0.34263236986E+02  0.21755283918E+02  0.19541025950E+02  0.46142317829E+02  0.10000000618E+02 0.  0.
         12    1    1    2    0    0  0.34263236986E+02 -0.21755283918E+02 -0.19541025950E+02  0.45045682171E+02  0.00000000000E+00 0. -1.
         11    1    3    3    0    0 -0.12396420273E+02  0.28075231838E+01  0.76336833103E+01  0.14826548592E+02  0.51100000000E-03 0. -1.
        -11    1    3    3    0    0 -0.12153410364E+02  0.10154655051E+02  0.58807424725E+01  0.16893949656E+02  0.51100000000E-03 0.  1.
         12    1    3    3    0    0 -0.97134063485E+01  0.87931056835E+01  0.60266001671E+01  0.14421819581E+02  0.00000000000E+00 0. -1.
</event>
<event>
 7    1  0.1541902E-008  0.4614232E+02  0.7816164E-02  0.1320468E+00
        -11   -1    0    0    0    0  0.00000000000E+00  0.00000000000E+00  0.45593999997E+02  0.45594000000E+02  0.51100000000E-03 0. -1.
         11   -1    0    0    0    0 -0.00000000000E+00 -0.00000000000E+00 -0.45593999997E+02  0.45594000000E+02  0.51100000000E-03 0.  1.
    9900012    2    1    2    0    0  0.18957896341E+02 -0.26957920616E+02 -0.30708014655E+02  0.46142317835E+02  0.10000000675E+02 0.  0.
         12    1    1    2    0    0 -0.18957896341E+02  0.26957920616E+02  0.30708014655E+02  0.45045682165E+02  0.00000000000E+00 0. -1.
         11    1    3    3    0    0 -0.13233086918E+00 -0.23293469075E+00  0.51338790580E-01  0.27277456192E+00  0.51100000000E-03 0. -1.
        -11    1    3    3    0    0  0.14988190836E+02 -0.25071585939E+02 -0.24066548709E+02  0.37847444472E+02  0.51100000000E-03 0.  1.
        -12    1    3    3    0    0  0.41020363743E+01 -0.16533999867E+01 -0.66928047369E+01  0.80220988013E+01  0.00000000000E+00 0.  1.
</event>
<event>
 7    1  0.1541902E-008  0.4614232E+02  0.7816164E-02  0.1320468E+00
        -11   -1    0    0    0    0  0.00000000000E+00  0.00000000000E+00  0.45593999997E+02  0.45594000000E+02  0.51100000000E-03 0. -1.
         11   -1    0    0    0    0 -0.00000000000E+00 -0.00000000000E+00 -0.45593999997E+02  0.45594000000E+02  0.51100000000E-03 0.  1.
    9900012    2    1    2    0    0 -0.12795404600E+02  0.26906628434E+02 -0.33784970046E+02  0.46142320590E+02  0.10000025792E+02 0.  0.
         12    1    1    2    0    0  0.12795404600E+02 -0.26906628434E+02  0.33784970046E+02  0.45045679410E+02  0.00000000000E+00 0. -1.
         11    1    3    3    0    0  0.82412204315E+00  0.55548907095E+00  0.96932325261E-01  0.99856967045E+00  0.51100000000E-03 0.  1.
        -11    1    3    3    0    0 -0.45935243942E+01  0.74730160846E+01 -0.81076577624E+01  0.11944896417E+02  0.51100000000E-03 0. -1.
        -12    1    3    3    0    0 -0.90260022493E+01  0.18878123278E+02 -0.25774244609E+02  0.33198854502E+02  0.00000000000E+00 0.  1.
</event>
<event>
 7    1  0.1541902E-008  0.4614232E+02  0.7816164E-02  0.1320468E+00
        -11   -1    0    0    0    0  0.00000000000E+00  0.00000000000E+00  0.45593999997E+02  0.45594000000E+02  0.51100000000E-03 0.  1.
         11   -1    0    0    0    0 -0.00000000000E+00 -0.00000000000E+00 -0.45593999997E+02  0.45594000000E+02  0.51100000000E-03 0. -1.
    9900012    2    1    2    0    0  0.13069660336E+02 -0.30590392637E+02  0.30373103157E+02  0.46142317206E+02  0.99999949345E+01 0.  0.
         12    1    1    2    0    0 -0.13069660336E+02  0.30590392637E+02 -0.30373103157E+02  0.45045682794E+02  0.00000000000E+00 0. -1.
         11    1    3    3    0    0  0.99340285174E+01 -0.23901292819E+02  0.17890628260E+02  0.31464762843E+02  0.51100000000E-03 0. -1.
        -11    1    3    3    0    0  0.13893274342E+01 -0.52533001839E+01  0.82423071614E+01  0.98723361544E+01  0.51100000000E-03 0.  1.
         12    1    3    3    0    0  0.17463043847E+01 -0.14357996346E+01  0.42401677363E+01  0.48052182080E+01  0.00000000000E+00 0. -1.
</event>
<event>
 7    1  0.1541902E-008  0.4614232E+02  0.7816164E-02  0.1320468E+00
        -11   -1    0    0    0    0  0.00000000000E+00  0.00000000000E+00  0.45593999997E+02  0.45594000000E+02  0.51100000000E-03 0. -1.
         11   -1    0    0    0    0 -0.00000000000E+00 -0.00000000000E+00 -0.45593999997E+02  0.45594000000E+02  0.51100000000E-03 0.  1.
    9900012    2    1    2    0    0  0.16052801642E+02 -0.12959052313E+02 -0.40043525142E+02  0.46142318929E+02  0.10000010648E+02 0.  0.
         12    1    1    2    0    0 -0.16052801642E+02  0.12959052313E+02  0.40043525142E+02  0.45045681071E+02  0.00000000000E+00 0. -1.
         11    1    3    3    0    0  0.89964460201E+01 -0.10709319356E+02 -0.27600422318E+02  0.30942024408E+02  0.51100000000E-03 0. -1.
        -11    1    3    3    0    0  0.39065036588E+01  0.10018744015E+01 -0.43849004403E+01  0.59575057940E+01  0.51100000000E-03 0.  1.
        -12    1    3    3    0    0  0.31498519630E+01 -0.32516073581E+01 -0.80582023834E+01  0.92427887270E+01  0.00000000000E+00 0.  1.
</event>
<event>
 7    1  0.1541902E-008  0.4614232E+02  0.7816164E-02  0.1320468E+00
        -11   -1    0    0    0    0  0.00000000000E+00  0.00000000000E+00  0.45593999997E+02  0.45594000000E+02  0.51100000000E-03 0.  1.
         11   -1    0    0    0    0 -0.00000000000E+00 -0.00000000000E+00 -0.45593999997E+02  0.45594000000E+02  0.51100000000E-03 0. -1.
    9900012    2    1    2    0    0  0.21604473514E+02 -0.12747128093E+02  0.37414849272E+02  0.46142317671E+02  0.99999991803E+01 0.  0.
         12    1    1    2    0    0 -0.21604473514E+02  0.12747128093E+02 -0.37414849272E+02  0.45045682329E+02  0.00000000000E+00 0. -1.
         11    1    3    3    0    0  0.48087752575E+00 -0.28130818989E+01  0.17040631476E+01  0.33239290662E+01  0.51100000000E-03 0. -1.
        -11    1    3    3    0    0  0.30649401412E+01 -0.33832857969E+00  0.60610458521E+01  0.68003383283E+01  0.51100000000E-03 0.  1.
         12    1    3    3    0    0  0.18058655847E+02 -0.95957176143E+01  0.29649740272E+02  0.36018050277E+02  0.00000000000E+00 0. -1.
</event>
<event>
 7    1  0.1541902E-008  0.4614232E+02  0.7816164E-02  0.1320468E+00
        -11   -1    0    0    0    0  0.00000000000E+00  0.00000000000E+00  0.45593999997E+02  0.45594000000E+02  0.51100000000E-03 0. -1.
         11   -1    0    0    0    0 -0.00000000000E+00 -0.00000000000E+00 -0.45593999997E+02  0.45594000000E+02  0.51100000000E-03 0.  1.
    9900012    2    1    2    0    0  0.20898510122E+02  0.39819298042E+02  0.26055670815E+01  0.46142320943E+02  0.10000029012E+02 0.  0.
         12    1    1    2    0    0 -0.20898510122E+02 -0.39819298042E+02 -0.26055670815E+01  0.45045679057E+02  0.00000000000E+00 0. -1.
         11    1    3    3    0    0  0.90547147690E+00  0.56315237009E+01 -0.21539906284E+01  0.60970167851E+01  0.51100000000E-03 0. -1.
        -11    1    3    3    0    0  0.64190326182E+01  0.13534577424E+02  0.29271952209E+01  0.15262936740E+02  0.51100000000E-03 0.  1.
        -12    1    3    3    0    0  0.13574006027E+02  0.20653196917E+02  0.18323624890E+01  0.24782367417E+02  0.00000000000E+00 0.  1.
</event>
<event>
 7    1  0.1541902E-008  0.4614232E+02  0.7816164E-02  0.1320468E+00
        -11   -1    0    0    0    0  0.00000000000E+00  0.00000000000E+00  0.45593999997E+02  0.45594000000E+02  0.51100000000E-03 0. -1.
         11   -1    0    0    0    0 -0.00000000000E+00 -0.00000000000E+00 -0.45593999997E+02  0.45594000000E+02  0.51100000000E-03 0.  1.
    9900012    2    1    2    0    0  0.39020473866E+02 -0.15132150957E+02  0.16659354201E+02  0.46142318124E+02  0.10000003307E+02 0.  0.
         12    1    1    2    0    0 -0.39020473866E+02  0.15132150957E+02 -0.16659354201E+02  0.45045681876E+02  0.00000000000E+00 0. -1.
         11    1    3    3    0    0  0.26134329092E+01 -0.21825882382E+01  0.38959158916E+01  0.51741553789E+01  0.51100000000E-03 0. -1.
        -11    1    3    3    0    0  0.36391077842E+02 -0.13063815048E+02  0.12427564610E+02  0.40613029590E+02  0.51100000000E-03 0.  1.
        -12    1    3    3    0    0  0.15963115006E-01  0.11425232961E+00  0.33587369909E+00  0.35513315475E+00  0.00000000000E+00 0.  1.
</event>
<event>
 7    1  0.1541902E-008  0.4614232E+02  0.7816164E-02  0.1320468E+00
        -11   -1    0    0    0    0  0.00000000000E+00  0.00000000000E+00  0.45593999997E+02  0.45594000000E+02  0.51100000000E-03 0.  1.
         11   -1    0    0    0    0 -0.00000000000E+00 -0.00000000000E+00 -0.45593999997E+02  0.45594000000E+02  0.51100000000E-03 0. -1.
    9900012    2    1    2    0    0 -0.28776424903E+02 -0.27553187775E+02  0.21020292157E+02  0.46142317975E+02  0.10000001949E+02 0.  0.
         12    1    1    2    0    0  0.28776424903E+02  0.27553187775E+02 -0.21020292157E+02  0.45045682025E+02  0.00000000000E+00 0. -1.
         11    1    3    3    0    0 -0.64802925874E+01 -0.40007164601E+01  0.71159797704E+01  0.10422911904E+02  0.51100000000E-03 0. -1.
        -11    1    3    3    0    0 -0.21338607933E+02 -0.23421868029E+02  0.12604616433E+02  0.34099801263E+02  0.51100000000E-03 0.  1.
        -12    1    3    3    0    0 -0.95752438276E+00 -0.13060328571E+00  0.12996959532E+01  0.16196048075E+01  0.00000000000E+00 0.  1.
</event>
<event>
 7    1  0.1541902E-008  0.4614232E+02  0.7816164E-02  0.1320468E+00
        -11   -1    0    0    0    0  0.00000000000E+00  0.00000000000E+00  0.45593999997E+02  0.45594000000E+02  0.51100000000E-03 0.  1.
         11   -1    0    0    0    0 -0.00000000000E+00 -0.00000000000E+00 -0.45593999997E+02  0.45594000000E+02  0.51100000000E-03 0. -1.
    9900012    2    1    2    0    0 -0.17374689104E+02  0.13590729920E+02  0.39275000587E+02  0.46142318384E+02  0.10000005676E+02 0.  0.
         12    1    1    2    0    0  0.17374689104E+02 -0.13590729920E+02 -0.39275000587E+02  0.45045681616E+02  0.00000000000E+00 0. -1.
         11    1    3    3    0    0 -0.94014899412E+01  0.56931704952E+01  0.15915404655E+02  0.19341672859E+02  0.51100000000E-03 0. -1.
        -11    1    3    3    0    0 -0.52215015783E+01  0.11822371323E+01  0.63378150025E+01  0.82963644228E+01  0.51100000000E-03 0.  1.
         12    1    3    3    0    0 -0.27516975847E+01  0.67153222922E+01  0.17021780929E+02  0.18504281101E+02  0.00000000000E+00 0. -1.
</event>
<event>
 7    1  0.1541902E-008  0.4614232E+02  0.7816164E-02  0.1320468E+00
        -11   -1    0    0    0    0  0.00000000000E+00  0.00000000000E+00  0.45593999997E+02  0.45594000000E+02  0.51100000000E-03 0. -1.
         11   -1    0    0    0    0 -0.00000000000E+00 -0.00000000000E+00 -0.45593999997E+02  0.45594000000E+02  0.51100000000E-03 0.  1.
    9900012    2    1    2    0    0 -0.32743872840E+02 -0.30295899721E+02 -0.62538539525E+01  0.46142318323E+02  0.10000005125E+02 0.  0.
         12    1    1    2    0    0  0.32743872840E+02  0.30295899721E+02  0.62538539525E+01  0.45045681677E+02  0.00000000000E+00 0. -1.
         11    1    3    3    0    0 -0.62745139737E+01 -0.36930957734E+01 -0.38767901186E+01  0.82485140408E+01  0.51100000000E-03 0. -1.
        -11    1    3    3    0    0 -0.12961885999E+02 -0.13215538384E+02  0.11706473345E+01  0.18548082350E+02  0.51100000000E-03 0.  1.
         12    1    3    3    0    0 -0.13507472867E+02 -0.13387265564E+02 -0.35477111684E+01  0.19345721932E+02  0.00000000000E+00 0. -1.
</event>
<event>
 7    1  0.1541902E-008  0.4614232E+02  0.7816164E-02  0.1320468E+00
        -11   -1    0    0    0    0  0.00000000000E+00  0.00000000000E+00  0.45593999997E+02  0.45594000000E+02  0.51100000000E-03 0.  1.
         11   -1    0    0    0    0 -0.00000000000E+00 -0.00000000000E+00 -0.45593999997E+02  0.45594000000E+02  0.51100000000E-03 0. -1.
    9900012    2    1    2    0    0 -0.38999384141E+02  0.14151231751E+02  0.17547195903E+02  0.46142318659E+02  0.10000008189E+02 0.  0.
         12    1    1    2    0    0  0.38999384141E+02 -0.14151231751E+02 -0.17547195903E+02  0.45045681341E+02  0.00000000000E+00 0. -1.
         11    1    3    3    0    0  0.14373910462E+00  0.48045485173E+00  0.99546655212E+00  0.11146531803E+01  0.51100000000E-03 0. -1.
        -11    1    3    3    0    0 -0.33615412398E+02  0.13658832378E+02  0.13507239528E+02  0.38716988164E+02  0.51100000000E-03 0.  1.
        -12    1    3    3    0    0 -0.55277108474E+01  0.11944521186E-01  0.30444898232E+01  0.63106773145E+01  0.00000000000E+00 0.  1.
</event>
<event>
 7    1  0.1541902E-008  0.4614232E+02  0.7816164E-02  0.1320468E+00
        -11   -1    0    0    0    0  0.00000000000E+00  0.00000000000E+00  0.45593999997E+02  0.45594000000E+02  0.51100000000E-03 0. -1.
         11   -1    0    0    0    0 -0.00000000000E+00 -0.00000000000E+00 -0.45593999997E+02  0.45594000000E+02  0.51100000000E-03 0.  1.
    9900012    2    1    2    0    0 -0.37074522057E+02 -0.95689621696E+01 -0.23728213403E+02  0.46142319474E+02  0.10000015615E+02 0.  0.
         12    1    1    2    0    0  0.37074522057E+02  0.95689621696E+01  0.23728213403E+02  0.45045680526E+02  0.00000000000E+00 0. -1.
         11    1    3    3    0    0 -0.59442008859E+01 -0.41686019601E+01 -0.20934151112E+01  0.75560011622E+01  0.51100000000E-03 0. -1.
        -11    1    3    3    0    0 -0.22904857501E+02 -0.57515942146E+01 -0.17356880389E+02  0.29308268974E+02  0.51100000000E-03 0.  1.
         12    1    3    3    0    0 -0.82254636705E+01  0.35123400520E+00 -0.42779179026E+01  0.92780493372E+01  0.00000000000E+00 0. -1.
</event>
<event>
 7    1  0.1541902E-008  0.4614232E+02  0.7816164E-02  0.1320468E+00
        -11   -1    0    0    0    0  0.00000000000E+00  0.00000000000E+00  0.45593999997E+02  0.45594000000E+02  0.51100000000E-03 0. -1.
         11   -1    0    0    0    0 -0.00000000000E+00 -0.00000000000E+00 -0.45593999997E+02  0.45594000000E+02  0.51100000000E-03 0.  1.
    9900012    2    1    2    0    0 -0.11549242498E+02  0.37664046605E+00 -0.43538333707E+02  0.46142319161E+02  0.10000012764E+02 0.  0.
         12    1    1    2    0    0  0.11549242498E+02 -0.37664046605E+00  0.43538333707E+02  0.45045680839E+02  0.00000000000E+00 0. -1.
         11    1    3    3    0    0 -0.48552837818E+00  0.58801608106E+00 -0.57923593905E+00  0.95760913311E+00  0.51100000000E-03 0. -1.
        -11    1    3    3    0    0 -0.10840184572E+02 -0.19228123294E+01 -0.41465684966E+02  0.42902329060E+02  0.51100000000E-03 0.  1.
        -12    1    3    3    0    0 -0.22352954800E+00  0.17114367144E+01 -0.14934128013E+01  0.22823809676E+01  0.00000000000E+00 0.  1.
</event>
<event>
 7    1  0.1541902E-008  0.4614232E+02  0.7816164E-02  0.1320468E+00
        -11   -1    0    0    0    0  0.00000000000E+00  0.00000000000E+00  0.45593999997E+02  0.45594000000E+02  0.51100000000E-03 0.  1.
         11   -1    0    0    0    0 -0.00000000000E+00 -0.00000000000E+00 -0.45593999997E+02  0.45594000000E+02  0.51100000000E-03 0. -1.
    9900012    2    1    2    0    0 -0.65033691727E+01 -0.37823087550E+02  0.23584607682E+02  0.46142317832E+02  0.10000000648E+02 0.  0.
         12    1    1    2    0    0  0.65033691727E+01  0.37823087550E+02 -0.23584607682E+02  0.45045682168E+02  0.00000000000E+00 0. -1.
         11    1    3    3    0    0 -0.43136179093E+01 -0.14605088713E+02  0.11203205273E+02  0.18905759028E+02  0.51100000000E-03 0. -1.
        -11    1    3    3    0    0 -0.26516899057E+01 -0.29131100739E+01  0.17224883005E+01  0.42993762182E+01  0.51100000000E-03 0.  1.
         12    1    3    3    0    0  0.46193864228E+00 -0.20304888763E+02  0.10658914109E+02  0.22937182586E+02  0.00000000000E+00 0. -1.
</event>
<event>
 7    1  0.1541902E-008  0.4614232E+02  0.7816164E-02  0.1320468E+00
        -11   -1    0    0    0    0  0.00000000000E+00  0.00000000000E+00  0.45593999997E+02  0.45594000000E+02  0.51100000000E-03 0.  1.
         11   -1    0    0    0    0 -0.00000000000E+00 -0.00000000000E+00 -0.45593999997E+02  0.45594000000E+02  0.51100000000E-03 0. -1.
    9900012    2    1    2    0    0 -0.19080206587E+02 -0.15024623035E+02  0.37938370260E+02  0.46142317424E+02  0.99999969292E+01 0.  0.
         12    1    1    2    0    0  0.19080206587E+02  0.15024623035E+02 -0.37938370260E+02  0.45045682576E+02  0.00000000000E+00 0. -1.
         11    1    3    3    0    0 -0.94211617376E+01 -0.49964382062E+01  0.14150776755E+02  0.17719118665E+02  0.51100000000E-03 0. -1.
        -11    1    3    3    0    0 -0.97143848587E+01 -0.98840079199E+01  0.18409269574E+02  0.23042658099E+02  0.51100000000E-03 0.  1.
         12    1    3    3    0    0  0.55340009190E-01 -0.14417690900E+00  0.53783239310E+01  0.53805406610E+01  0.00000000000E+00 0. -1.
</event>
<event>
 7    1  0.1541902E-008  0.4614232E+02  0.7816164E-02  0.1320468E+00
        -11   -1    0    0    0    0  0.00000000000E+00  0.00000000000E+00  0.45593999997E+02  0.45594000000E+02  0.51100000000E-03 0.  1.
         11   -1    0    0    0    0 -0.00000000000E+00 -0.00000000000E+00 -0.45593999997E+02  0.45594000000E+02  0.51100000000E-03 0. -1.
    9900012    2    1    2    0    0 -0.32250451168E+02 -0.96892804372E+00  0.31433790950E+02  0.46142316127E+02  0.99999850995E+01 0.  0.
         12    1    1    2    0    0  0.32250451168E+02  0.96892804372E+00 -0.31433790950E+02  0.45045683873E+02  0.00000000000E+00 0. -1.
         11    1    3    3    0    0 -0.31420299313E+01 -0.98812810493E+00  0.23694316215E+01  0.40574568034E+01  0.51100000000E-03 0. -1.
        -11    1    3    3    0    0 -0.12836308347E+02 -0.39591477444E+01  0.10272761026E+02  0.16910803712E+02  0.51100000000E-03 0.  1.
        -12    1    3    3    0    0 -0.16272112890E+02  0.39783478056E+01  0.18791598303E+02  0.25174055612E+02  0.00000000000E+00 0.  1.
</event>
<event>
 7    1  0.1541902E-008  0.4614232E+02  0.7816164E-02  0.1320468E+00
        -11   -1    0    0    0    0  0.00000000000E+00  0.00000000000E+00  0.45593999997E+02  0.45594000000E+02  0.51100000000E-03 0.  1.
         11   -1    0    0    0    0 -0.00000000000E+00 -0.00000000000E+00 -0.45593999997E+02  0.45594000000E+02  0.51100000000E-03 0. -1.
    9900012    2    1    2    0    0 -0.62121311867E+01  0.37917787729E+02  0.23510941720E+02  0.46142316736E+02  0.99999906565E+01 0.  0.
         12    1    1    2    0    0  0.62121311867E+01 -0.37917787729E+02 -0.23510941720E+02  0.45045683264E+02  0.00000000000E+00 0. -1.
         11    1    3    3    0    0 -0.43456162169E+00  0.64908598000E+01  0.12057520954E+01  0.66161879601E+01  0.51100000000E-03 0. -1.
        -11    1    3    3    0    0 -0.53331851259E+01  0.18862317610E+02  0.16739745920E+02  0.25776907940E+02  0.51100000000E-03 0.  1.
        -12    1    3    3    0    0 -0.44438443912E+00  0.12564610318E+02  0.55654437049E+01  0.13749220837E+02  0.00000000000E+00 0.  1.
</event>
<event>
 7    1  0.1541902E-008  0.4614231E+02  0.7816164E-02  0.1320468E+00
        -11   -1    0    0    0    0  0.00000000000E+00  0.00000000000E+00  0.45593999997E+02  0.45594000000E+02  0.51100000000E-03 0. -1.
         11   -1    0    0    0    0 -0.00000000000E+00 -0.00000000000E+00 -0.45593999997E+02  0.45594000000E+02  0.51100000000E-03 0.  1.
    9900012    2    1    2    0    0  0.68341896324E+01 -0.31884217904E+02 -0.31077391106E+02  0.46142314999E+02  0.99999748091E+01 0.  0.
         12    1    1    2    0    0 -0.68341896324E+01  0.31884217904E+02  0.31077391106E+02  0.45045685001E+02  0.00000000000E+00 0. -1.
         11    1    3    3    0    0 -0.15416617282E+00 -0.13857612092E+02 -0.82646079153E+01  0.16135703404E+02  0.51100000000E-03 0. -1.
        -11    1    3    3    0    0  0.39296160017E+01 -0.81565721770E+01 -0.91029000136E+01  0.12838782673E+02  0.51100000000E-03 0.  1.
         12    1    3    3    0    0  0.30587398034E+01 -0.98700336351E+01 -0.13709883177E+02  0.17167828922E+02  0.00000000000E+00 0. -1.
</event>
<event>
 7    1  0.1541902E-008  0.4614232E+02  0.7816164E-02  0.1320468E+00
        -11   -1    0    0    0    0  0.00000000000E+00  0.00000000000E+00  0.45593999997E+02  0.45594000000E+02  0.51100000000E-03 0.  1.
         11   -1    0    0    0    0 -0.00000000000E+00 -0.00000000000E+00 -0.45593999997E+02  0.45594000000E+02  0.51100000000E-03 0. -1.
    9900012    2    1    2    0    0  0.15934998775E+01 -0.87635055326E+01  0.44156259594E+02  0.46142317272E+02  0.99999955377E+01 0.  0.
         12    1    1    2    0    0 -0.15934998775E+01  0.87635055326E+01 -0.44156259594E+02  0.45045682728E+02  0.00000000000E+00 0. -1.
         11    1    3    3    0    0  0.45430278949E+01 -0.69533988677E+01  0.22929603410E+02  0.24387611016E+02  0.51100000000E-03 0. -1.
        -11    1    3    3    0    0  0.80762860081E-02 -0.21561497729E-02  0.10112793331E+02  0.10112796798E+02  0.51100000000E-03 0.  1.
        -12    1    3    3    0    0 -0.29576043033E+01 -0.18079505151E+01  0.11113862854E+02  0.11641909457E+02  0.00000000000E+00 0.  1.
</event>
<event>
 7    1  0.1541902E-008  0.4614232E+02  0.7816164E-02  0.1320468E+00
        -11   -1    0    0    0    0  0.00000000000E+00  0.00000000000E+00  0.45593999997E+02  0.45594000000E+02  0.51100000000E-03 0.  1.
         11   -1    0    0    0    0 -0.00000000000E+00 -0.00000000000E+00 -0.45593999997E+02  0.45594000000E+02  0.51100000000E-03 0. -1.
    9900012    2    1    2    0    0 -0.18954022970E+02  0.35722696780E+01  0.40707461302E+02  0.46142317598E+02  0.99999985118E+01 0.  0.
         12    1    1    2    0    0  0.18954022970E+02 -0.35722696780E+01 -0.40707461302E+02  0.45045682402E+02  0.00000000000E+00 0. -1.
         11    1    3    3    0    0 -0.21135787233E+01 -0.28412024071E+01  0.64865615511E+01  0.73902048115E+01  0.51100000000E-03 0. -1.
        -11    1    3    3    0    0 -0.16924686472E+02  0.63527932644E+01  0.33972812538E+02  0.38483177967E+02  0.51100000000E-03 0.  1.
        -12    1    3    3    0    0  0.84242225331E-01  0.60678820742E-01  0.24808721283E+00  0.26893481921E+00  0.00000000000E+00 0.  1.
</event>
<event>
 7    1  0.1541902E-008  0.4614232E+02  0.7816164E-02  0.1320468E+00
        -11   -1    0    0    0    0  0.00000000000E+00  0.00000000000E+00  0.45593999997E+02  0.45594000000E+02  0.51100000000E-03 0. -1.
         11   -1    0    0    0    0 -0.00000000000E+00 -0.00000000000E+00 -0.45593999997E+02  0.45594000000E+02  0.51100000000E-03 0.  1.
    9900012    2    1    2    0    0  0.11548203901E+02  0.37975323390E+02 -0.21298529157E+02  0.46142317142E+02  0.99999943553E+01 0.  0.
         12    1    1    2    0    0 -0.11548203901E+02 -0.37975323390E+02  0.21298529157E+02  0.45045682858E+02  0.00000000000E+00 0. -1.
         11    1    3    3    0    0  0.67120656588E+01  0.25114557200E+02 -0.18076665649E+02  0.31663206565E+02  0.51100000000E-03 0. -1.
        -11    1    3    3    0    0  0.17713890549E+01  0.90702051708E+01 -0.21167430086E+01  0.94808777151E+01  0.51100000000E-03 0.  1.
         12    1    3    3    0    0  0.30647491878E+01  0.37905610191E+01 -0.11051204994E+01  0.49982328619E+01  0.00000000000E+00 0. -1.
</event>
<event>
 7    1  0.1541902E-008  0.4614232E+02  0.7816164E-02  0.1320468E+00
        -11   -1    0    0    0    0  0.00000000000E+00  0.00000000000E+00  0.45593999997E+02  0.45594000000E+02  0.51100000000E-03 0.  1.
         11   -1    0    0    0    0 -0.00000000000E+00 -0.00000000000E+00 -0.45593999997E+02  0.45594000000E+02  0.51100000000E-03 0. -1.
    9900012    2    1    2    0    0 -0.10898911158E+01 -0.44488708487E+02 -0.69771342730E+01  0.46142318207E+02  0.10000004067E+02 0.  0.
         12    1    1    2    0    0  0.10898911158E+01  0.44488708487E+02  0.69771342730E+01  0.45045681793E+02  0.00000000000E+00 0. -1.
         11    1    3    3    0    0 -0.15780602921E+01 -0.89973395702E+01  0.18724148467E+00  0.91365996553E+01  0.51100000000E-03 0. -1.
        -11    1    3    3    0    0  0.11625147323E+01 -0.28254230308E+02 -0.86811501004E+01  0.29580658176E+02  0.51100000000E-03 0.  1.
        -12    1    3    3    0    0 -0.67434555602E+00 -0.72371386092E+01  0.15167743428E+01  0.74250603758E+01  0.00000000000E+00 0.  1.
</event>
<event>
 7    1  0.1541902E-008  0.4614232E+02  0.7816164E-02  0.1320468E+00
        -11   -1    0    0    0    0  0.00000000000E+00  0.00000000000E+00  0.45593999997E+02  0.45594000000E+02  0.51100000000E-03 0. -1.
         11   -1    0    0    0    0 -0.00000000000E+00 -0.00000000000E+00 -0.45593999997E+02  0.45594000000E+02  0.51100000000E-03 0.  1.
    9900012    2    1    2    0    0  0.41912699098E+02  0.16425887691E+02 -0.16215278987E+01  0.46142317801E+02  0.10000000361E+02 0.  0.
         12    1    1    2    0    0 -0.41912699098E+02 -0.16425887691E+02  0.16215278987E+01  0.45045682199E+02  0.00000000000E+00 0. -1.
         11    1    3    3    0    0  0.13986236399E+02  0.59798173892E+01  0.14821726783E+01  0.15282992532E+02  0.51100000000E-03 0. -1.
        -11    1    3    3    0    0  0.23981911790E+02  0.85962259189E+01  0.58250936395E-01  0.25476078713E+02  0.51100000000E-03 0.  1.
        -12    1    3    3    0    0  0.39445509088E+01  0.18498443826E+01 -0.31619515133E+01  0.53832465562E+01  0.00000000000E+00 0.  1.
</event>
<event>
 7    1  0.1541902E-008  0.4614232E+02  0.7816164E-02  0.1320468E+00
        -11   -1    0    0    0    0  0.00000000000E+00  0.00000000000E+00  0.45593999997E+02  0.45594000000E+02  0.51100000000E-03 0.  1.
         11   -1    0    0    0    0 -0.00000000000E+00 -0.00000000000E+00 -0.45593999997E+02  0.45594000000E+02  0.51100000000E-03 0. -1.
    9900012    2    1    2    0    0  0.37462706864E+02  0.24997074629E+02  0.89737207869E+00  0.46142318495E+02  0.10000006690E+02 0.  0.
         12    1    1    2    0    0 -0.37462706864E+02 -0.24997074629E+02 -0.89737207869E+00  0.45045681505E+02  0.00000000000E+00 0. -1.
         11    1    3    3    0    0  0.11608562543E+01  0.16331088114E+01 -0.82446778217E+00  0.21666515682E+01  0.51100000000E-03 0. -1.
        -11    1    3    3    0    0  0.21094533158E+02  0.15979099027E+02  0.45001966751E+01  0.26843299075E+02  0.51100000000E-03 0.  1.
        -12    1    3    3    0    0  0.15207317452E+02  0.73848667908E+01 -0.27783568142E+01  0.17132367851E+02  0.00000000000E+00 0.  1.
</event>
<event>
 7    1  0.1541902E-008  0.4614230E+02  0.7816164E-02  0.1320468E+00
        -11   -1    0    0    0    0  0.00000000000E+00  0.00000000000E+00  0.45593999997E+02  0.45594000000E+02  0.51100000000E-03 0.  1.
         11   -1    0    0    0    0 -0.00000000000E+00 -0.00000000000E+00 -0.45593999997E+02  0.45594000000E+02  0.51100000000E-03 0. -1.
    9900012    2    1    2    0    0 -0.11201708178E+02 -0.36120784807E+02  0.24472951982E+02  0.46142303869E+02  0.99998733196E+01 0.  0.
         12    1    1    2    0    0  0.11201708178E+02  0.36120784807E+02 -0.24472951982E+02  0.45045696131E+02  0.00000000000E+00 0. -1.
         11    1    3    3    0    0 -0.17820426414E+01 -0.13472115464E+02  0.83346152364E+01  0.15941749667E+02  0.51100000000E-03 0. -1.
        -11    1    3    3    0    0 -0.87829805838E+01 -0.12701449402E+02  0.83811952998E+01  0.17570202041E+02  0.51100000000E-03 0.  1.
        -12    1    3    3    0    0 -0.63668495239E+00 -0.99472199414E+01  0.77571414462E+01  0.12630352161E+02  0.00000000000E+00 0.  1.
</event>
<event>
 7    1  0.1541902E-008  0.4614232E+02  0.7816164E-02  0.1320468E+00
        -11   -1    0    0    0    0  0.00000000000E+00  0.00000000000E+00  0.45593999997E+02  0.45594000000E+02  0.51100000000E-03 0. -1.
         11   -1    0    0    0    0 -0.00000000000E+00 -0.00000000000E+00 -0.45593999997E+02  0.45594000000E+02  0.51100000000E-03 0.  1.
    9900012    2    1    2    0    0 -0.88388080286E+01  0.40780222314E+02 -0.16969456834E+02  0.46142317359E+02  0.99999963323E+01 0.  0.
         12    1    1    2    0    0  0.88388080286E+01 -0.40780222314E+02  0.16969456834E+02  0.45045682641E+02  0.00000000000E+00 0. -1.
         11    1    3    3    0    0  0.13584431091E+00  0.62845886924E+01  0.59582405365E+00  0.63142311704E+01  0.51100000000E-03 0. -1.
        -11    1    3    3    0    0 -0.51453367604E+01  0.21927244540E+02 -0.12397946556E+02  0.25709679550E+02  0.51100000000E-03 0.  1.
         12    1    3    3    0    0 -0.38293155792E+01  0.12568389082E+02 -0.51673343322E+01  0.14118406639E+02  0.00000000000E+00 0. -1.
</event>
<event>
 7    1  0.1541902E-008  0.4614232E+02  0.7816164E-02  0.1320468E+00
        -11   -1    0    0    0    0  0.00000000000E+00  0.00000000000E+00  0.45593999997E+02  0.45594000000E+02  0.51100000000E-03 0.  1.
         11   -1    0    0    0    0 -0.00000000000E+00 -0.00000000000E+00 -0.45593999997E+02  0.45594000000E+02  0.51100000000E-03 0. -1.
    9900012    2    1    2    0    0  0.32696171074E+02  0.96475277512E+01  0.29444848380E+02  0.46142317735E+02  0.99999997592E+01 0.  0.
         12    1    1    2    0    0 -0.32696171074E+02 -0.96475277512E+01 -0.29444848380E+02  0.45045682265E+02  0.00000000000E+00 0. -1.
         11    1    3    3    0    0  0.24456298263E+01  0.12929111792E+01  0.39313969121E+01  0.48071411989E+01  0.51100000000E-03 0. -1.
        -11    1    3    3    0    0  0.19733314840E+01  0.83779500231E+00  0.54535563396E+01  0.58597964659E+01  0.51100000000E-03 0.  1.
        -12    1    3    3    0    0  0.28277209764E+02  0.75168215697E+01  0.20059895128E+02  0.35475380070E+02  0.00000000000E+00 0.  1.
</event>
<event>
 7    1  0.1541902E-008  0.4614233E+02  0.7816164E-02  0.1320468E+00
        -11   -1    0    0    0    0  0.00000000000E+00  0.00000000000E+00  0.45593999997E+02  0.45594000000E+02  0.51100000000E-03 0. -1.
         11   -1    0    0    0    0 -0.00000000000E+00 -0.00000000000E+00 -0.45593999997E+02  0.45594000000E+02  0.51100000000E-03 0.  1.
    9900012    2    1    2    0    0  0.34798710994E+02  0.28577643589E+02  0.12167482252E+01  0.46142328996E+02  0.10000102451E+02 0.  0.
         12    1    1    2    0    0 -0.34798710994E+02 -0.28577643589E+02 -0.12167482252E+01  0.45045671004E+02  0.00000000000E+00 0. -1.
         11    1    3    3    0    0  0.38595861711E+01  0.65462544582E+01  0.14715540697E+01  0.77404989816E+01  0.51100000000E-03 0. -1.
        -11    1    3    3    0    0  0.15978933398E+02  0.79230309426E+01 -0.32400348217E+00  0.17838321400E+02  0.51100000000E-03 0.  1.
         12    1    3    3    0    0  0.14960191425E+02  0.14108358188E+02  0.69197637684E-01  0.20563508615E+02  0.00000000000E+00 0. -1.
</event>
<event>
 7    1  0.1541902E-008  0.4614232E+02  0.7816164E-02  0.1320468E+00
        -11   -1    0    0    0    0  0.00000000000E+00  0.00000000000E+00  0.45593999997E+02  0.45594000000E+02  0.51100000000E-03 0.  1.
         11   -1    0    0    0    0 -0.00000000000E+00 -0.00000000000E+00 -0.45593999997E+02  0.45594000000E+02  0.51100000000E-03 0. -1.
    9900012    2    1    2    0    0  0.15196313536E+02  0.39634495055E+02  0.15076215745E+02  0.46142318470E+02  0.10000006464E+02 0.  0.
         12    1    1    2    0    0 -0.15196313536E+02 -0.39634495055E+02 -0.15076215745E+02  0.45045681530E+02  0.00000000000E+00 0. -1.
         11    1    3    3    0    0  0.70023954635E+01  0.12349528154E+02  0.27030600802E+01  0.14451675402E+02  0.51100000000E-03 0. -1.
        -11    1    3    3    0    0  0.36497652336E+01  0.13767127864E+02  0.28027952606E+01  0.14515862269E+02  0.51100000000E-03 0.  1.
         12    1    3    3    0    0  0.45441528392E+01  0.13517839037E+02  0.95703604039E+01  0.17174780799E+02  0.00000000000E+00 0. -1.
</event>
<event>
 7    1  0.1541902E-008  0.4614232E+02  0.7816164E-02  0.1320468E+00
        -11   -1    0    0    0    0  0.00000000000E+00  0.00000000000E+00  0.45593999997E+02  0.45594000000E+02  0.51100000000E-03 0.  1.
         11   -1    0    0    0    0 -0.00000000000E+00 -0.00000000000E+00 -0.45593999997E+02  0.45594000000E+02  0.51100000000E-03 0. -1.
    9900012    2    1    2    0    0  0.16674876765E+02 -0.26711957719E+02  0.32210764813E+02  0.46142316853E+02  0.99999917204E+01 0.  0.
         12    1    1    2    0    0 -0.16674876765E+02  0.26711957719E+02 -0.32210764813E+02  0.45045683147E+02  0.00000000000E+00 0. -1.
         11    1    3    3    0    0  0.12883330686E+01 -0.60477980717E+00  0.24345052855E+01  0.28199959144E+01  0.51100000000E-03 0. -1.
        -11    1    3    3    0    0  0.21850838455E+01 -0.78928912330E+01  0.40126926247E+01  0.91199794840E+01  0.51100000000E-03 0.  1.
        -12    1    3    3    0    0  0.13201459851E+02 -0.18214286678E+02  0.25763566903E+02  0.34202341455E+02  0.00000000000E+00 0.  1.
</event>
<event>
 7    1  0.1541902E-008  0.4614232E+02  0.7816164E-02  0.1320468E+00
        -11   -1    0    0    0    0  0.00000000000E+00  0.00000000000E+00  0.45593999997E+02  0.45594000000E+02  0.51100000000E-03 0. -1.
         11   -1    0    0    0    0 -0.00000000000E+00 -0.00000000000E+00 -0.45593999997E+02  0.45594000000E+02  0.51100000000E-03 0.  1.
    9900012    2    1    2    0    0 -0.31990151549E+02  0.60257466772E+01 -0.31135736830E+02  0.46142317331E+02  0.99999960794E+01 0.  0.
         12    1    1    2    0    0  0.31990151549E+02 -0.60257466772E+01  0.31135736830E+02  0.45045682669E+02  0.00000000000E+00 0. -1.
         11    1    3    3    0    0 -0.54944665439E+01 -0.18316824080E+01 -0.90132495654E+01  0.10713677755E+02  0.51100000000E-03 0. -1.
        -11    1    3    3    0    0 -0.15443277219E+02  0.52539143128E+01 -0.13385772654E+02  0.21101595596E+02  0.51100000000E-03 0.  1.
         12    1    3    3    0    0 -0.11052407785E+02  0.26035147724E+01 -0.87367146112E+01  0.14327043981E+02  0.00000000000E+00 0. -1.
</event>
<event>
 7    1  0.1541902E-008  0.4614232E+02  0.7816164E-02  0.1320468E+00
        -11   -1    0    0    0    0  0.00000000000E+00  0.00000000000E+00  0.45593999997E+02  0.45594000000E+02  0.51100000000E-03 0.  1.
         11   -1    0    0    0    0 -0.00000000000E+00 -0.00000000000E+00 -0.45593999997E+02  0.45594000000E+02  0.51100000000E-03 0. -1.
    9900012    2    1    2    0    0  0.39797359369E+02 -0.74565286530E+01  0.19740415364E+02  0.46142316178E+02  0.99999855627E+01 0.  0.
         12    1    1    2    0    0 -0.39797359369E+02  0.74565286530E+01 -0.19740415364E+02  0.45045683822E+02  0.00000000000E+00 0. -1.
         11    1    3    3    0    0  0.22036693995E+02 -0.36131396066E+01  0.68688088059E+01  0.23363458535E+02  0.51100000000E-03 0. -1.
        -11    1    3    3    0    0  0.16013566394E+02 -0.40060528367E+01  0.96779633835E+01  0.19134935158E+02  0.51100000000E-03 0.  1.
         12    1    3    3    0    0  0.17470989804E+01  0.16266379017E+00  0.31936431742E+01  0.36439224855E+01  0.00000000000E+00 0. -1.
</event>
<event>
 7    1  0.1541902E-008  0.4614232E+02  0.7816164E-02  0.1320468E+00
        -11   -1    0    0    0    0  0.00000000000E+00  0.00000000000E+00  0.45593999997E+02  0.45594000000E+02  0.51100000000E-03 0.  1.
         11   -1    0    0    0    0 -0.00000000000E+00 -0.00000000000E+00 -0.45593999997E+02  0.45594000000E+02  0.51100000000E-03 0. -1.
    9900012    2    1    2    0    0  0.30866331829E+02 -0.21848212394E+02  0.24475266219E+02  0.46142317833E+02  0.10000000654E+02 0.  0.
         12    1    1    2    0    0 -0.30866331829E+02  0.21848212394E+02 -0.24475266219E+02  0.45045682167E+02  0.00000000000E+00 0. -1.
         11    1    3    3    0    0  0.88729939661E+01 -0.33497223651E+01  0.66760593546E+01  0.11598294298E+02  0.51100000000E-03 0. -1.
        -11    1    3    3    0    0  0.81562803944E+01 -0.26720499262E+01  0.51067403636E+01  0.99871696733E+01  0.51100000000E-03 0.  1.
         12    1    3    3    0    0  0.13837057469E+02 -0.15826440103E+02  0.12692466501E+02  0.24556853862E+02  0.00000000000E+00 0. -1.
</event>
<event>
 7    1  0.1541902E-008  0.4614232E+02  0.7816164E-02  0.1320468E+00
        -11   -1    0    0    0    0  0.00000000000E+00  0.00000000000E+00  0.45593999997E+02  0.45594000000E+02  0.51100000000E-03 0.  1.
         11   -1    0    0    0    0 -0.00000000000E+00 -0.00000000000E+00 -0.45593999997E+02  0.45594000000E+02  0.51100000000E-03 0. -1.
    9900012    2    1    2    0    0 -0.42727525354E+02 -0.21371036452E+01  0.14103363555E+02  0.46142317649E+02  0.99999989807E+01 0.  0.
         12    1    1    2    0    0  0.42727525354E+02  0.21371036452E+01 -0.14103363555E+02  0.45045682351E+02  0.00000000000E+00 0. -1.
         11    1    3    3    0    0 -0.16367676757E+02  0.78579536844E+00  0.92830199830E+01  0.18833289066E+02  0.51100000000E-03 0. -1.
        -11    1    3    3    0    0 -0.12767331863E+02 -0.28841642913E+01  0.40219182181E+01  0.13693027166E+02  0.51100000000E-03 0.  1.
         12    1    3    3    0    0 -0.13592516734E+02 -0.38734722426E-01  0.79842535420E+00  0.13616001417E+02  0.00000000000E+00 0. -1.
</event>
<event>
 7    1  0.1541902E-008  0.4614232E+02  0.7816164E-02  0.1320468E+00
        -11   -1    0    0    0    0  0.00000000000E+00  0.00000000000E+00  0.45593999997E+02  0.45594000000E+02  0.51100000000E-03 0. -1.
         11   -1    0    0    0    0 -0.00000000000E+00 -0.00000000000E+00 -0.45593999997E+02  0.45594000000E+02  0.51100000000E-03 0.  1.
    9900012    2    1    2    0    0  0.17377604492E+02  0.27880623477E+02 -0.30818876145E+02  0.46142318407E+02  0.10000005889E+02 0.  0.
         12    1    1    2    0    0 -0.17377604492E+02 -0.27880623477E+02  0.30818876145E+02  0.45045681593E+02  0.00000000000E+00 0. -1.
         11    1    3    3    0    0  0.27078067387E+00  0.29084214519E+01 -0.37083187307E+00  0.29444446089E+01  0.51100000000E-03 0. -1.
        -11    1    3    3    0    0  0.67397710141E+01  0.13953942223E+02 -0.16138482133E+02  0.22373815560E+02  0.51100000000E-03 0.  1.
        -12    1    3    3    0    0  0.10367052804E+02  0.11018259802E+02 -0.14309562139E+02  0.20824058239E+02  0.00000000000E+00 0.  1.
</event>
<event>
 7    1  0.1541902E-008  0.4614232E+02  0.7816164E-02  0.1320468E+00
        -11   -1    0    0    0    0  0.00000000000E+00  0.00000000000E+00  0.45593999997E+02  0.45594000000E+02  0.51100000000E-03 0.  1.
         11   -1    0    0    0    0 -0.00000000000E+00 -0.00000000000E+00 -0.45593999997E+02  0.45594000000E+02  0.51100000000E-03 0. -1.
    9900012    2    1    2    0    0  0.10907655060E+02 -0.14780533228E+02  0.41129944581E+02  0.46142318268E+02  0.10000004626E+02 0.  0.
         12    1    1    2    0    0 -0.10907655060E+02  0.14780533228E+02 -0.41129944581E+02  0.45045681732E+02  0.00000000000E+00 0. -1.
         11    1    3    3    0    0  0.23840049328E+01  0.25685230140E+00  0.50604601265E+01  0.55997954943E+01  0.51100000000E-03 0. -1.
        -11    1    3    3    0    0  0.12953128481E+01 -0.81492559784E+01  0.19840555778E+02  0.21488039981E+02  0.51100000000E-03 0.  1.
        -12    1    3    3    0    0  0.72283372795E+01 -0.68881295507E+01  0.16228928677E+02  0.19054482794E+02  0.00000000000E+00 0.  1.
</event>
<event>
 7    1  0.1541902E-008  0.4614232E+02  0.7816164E-02  0.1320468E+00
        -11   -1    0    0    0    0  0.00000000000E+00  0.00000000000E+00  0.45593999997E+02  0.45594000000E+02  0.51100000000E-03 0. -1.
         11   -1    0    0    0    0 -0.00000000000E+00 -0.00000000000E+00 -0.45593999997E+02  0.45594000000E+02  0.51100000000E-03 0.  1.
    9900012    2    1    2    0    0  0.35909058303E+02 -0.23195211954E+02 -0.14199830546E+02  0.46142317484E+02  0.99999974738E+01 0.  0.
         12    1    1    2    0    0 -0.35909058303E+02  0.23195211954E+02  0.14199830546E+02  0.45045682516E+02  0.00000000000E+00 0. -1.
         11    1    3    3    0    0  0.11069054265E+02 -0.11930522269E+02 -0.66028124567E+01  0.17562985411E+02  0.51100000000E-03 0. -1.
        -11    1    3    3    0    0  0.17379276094E+02 -0.90425624507E+01 -0.39609668917E+01  0.19987406841E+02  0.51100000000E-03 0.  1.
         12    1    3    3    0    0  0.74607279435E+01 -0.22221272343E+01 -0.36360511977E+01  0.85919252327E+01  0.00000000000E+00 0. -1.
</event>
<event>
 7    1  0.1541902E-008  0.4614232E+02  0.7816164E-02  0.1320468E+00
        -11   -1    0    0    0    0  0.00000000000E+00  0.00000000000E+00  0.45593999997E+02  0.45594000000E+02  0.51100000000E-03 0.  1.
         11   -1    0    0    0    0 -0.00000000000E+00 -0.00000000000E+00 -0.45593999997E+02  0.45594000000E+02  0.51100000000E-03 0. -1.
    9900012    2    1    2    0    0 -0.23872849467E+01 -0.16808770399E+01  0.44950961644E+02  0.46142318412E+02  0.10000005936E+02 0.  0.
         12    1    1    2    0    0  0.23872849467E+01  0.16808770399E+01 -0.44950961644E+02  0.45045681588E+02  0.00000000000E+00 0. -1.
         11    1    3    3    0    0  0.85029822995E+00 -0.14684959579E+00  0.28688615544E+00  0.90932711988E+00  0.51100000000E-03 0. -1.
        -11    1    3    3    0    0 -0.66682480813E+00 -0.76268599651E+00  0.38458695924E+02  0.38472037088E+02  0.51100000000E-03 0.  1.
        -12    1    3    3    0    0 -0.25707583685E+01 -0.77134144762E+00  0.62053795643E+01  0.67609542045E+01  0.00000000000E+00 0.  1.
</event>
<event>
 7    1  0.1541902E-008  0.4614232E+02  0.7816164E-02  0.1320468E+00
        -11   -1    0    0    0    0  0.00000000000E+00  0.00000000000E+00  0.45593999997E+02  0.45594000000E+02  0.51100000000E-03 0.  1.
         11   -1    0    0    0    0 -0.00000000000E+00 -0.00000000000E+00 -0.45593999997E+02  0.45594000000E+02  0.51100000000E-03 0. -1.
    9900012    2    1    2    0    0  0.15228261243E+01  0.34939538097E+02  0.28390549119E+02  0.46142316509E+02  0.99999885840E+01 0.  0.
         12    1    1    2    0    0 -0.15228261243E+01 -0.34939538097E+02 -0.28390549119E+02  0.45045683491E+02  0.00000000000E+00 0. -1.
         11    1    3    3    0    0  0.17827000957E+01  0.32889323360E+01  0.33639280128E+01  0.50310145575E+01  0.51100000000E-03 0. -1.
        -11    1    3    3    0    0 -0.22260947756E+01  0.23248441106E+02  0.21646879472E+02  0.31843883289E+02  0.51100000000E-03 0.  1.
        -12    1    3    3    0    0  0.19662208042E+01  0.84021646554E+01  0.33797416345E+01  0.92674186624E+01  0.00000000000E+00 0.  1.
</event>
<event>
 7    1  0.1541902E-008  0.4614232E+02  0.7816164E-02  0.1320468E+00
        -11   -1    0    0    0    0  0.00000000000E+00  0.00000000000E+00  0.45593999997E+02  0.45594000000E+02  0.51100000000E-03 0.  1.
         11   -1    0    0    0    0 -0.00000000000E+00 -0.00000000000E+00 -0.45593999997E+02  0.45594000000E+02  0.51100000000E-03 0. -1.
    9900012    2    1    2    0    0 -0.21819891304E+02 -0.39403335378E+02  0.61896141674E+00  0.46142316426E+02  0.99999878222E+01 0.  0.
         12    1    1    2    0    0  0.21819891304E+02  0.39403335378E+02 -0.61896141674E+00  0.45045683574E+02  0.00000000000E+00 0. -1.
         11    1    3    3    0    0 -0.33475898943E+01 -0.52815229168E+01  0.23932768836E+01  0.66954176064E+01  0.51100000000E-03 0. -1.
        -11    1    3    3    0    0 -0.15020130692E+02 -0.23678008522E+02 -0.36893747504E+01  0.28281865212E+02  0.51100000000E-03 0.  1.
        -12    1    3    3    0    0 -0.34521707181E+01 -0.10443803939E+02  0.19150592835E+01  0.11165033607E+02  0.00000000000E+00 0.  1.
</event>
<event>
 7    1  0.1541902E-008  0.4614231E+02  0.7816164E-02  0.1320468E+00
        -11   -1    0    0    0    0  0.00000000000E+00  0.00000000000E+00  0.45593999997E+02  0.45594000000E+02  0.51100000000E-03 0.  1.
         11   -1    0    0    0    0 -0.00000000000E+00 -0.00000000000E+00 -0.45593999997E+02  0.45594000000E+02  0.51100000000E-03 0. -1.
    9900012    2    1    2    0    0  0.24412020748E+02 -0.27862591665E+02  0.25628955144E+02  0.46142310827E+02  0.99999367725E+01 0.  0.
         12    1    1    2    0    0 -0.24412020748E+02  0.27862591665E+02 -0.25628955144E+02  0.45045689173E+02  0.00000000000E+00 0. -1.
         11    1    3    3    0    0  0.15794853522E+02 -0.17048607038E+02  0.19161951242E+02  0.30121633013E+02  0.51100000000E-03 0. -1.
        -11    1    3    3    0    0  0.48196621752E+01 -0.75269539519E+01  0.64084307471E+01  0.10997825430E+02  0.51100000000E-03 0.  1.
         12    1    3    3    0    0  0.37975050501E+01 -0.32870306750E+01  0.58573155126E-01  0.50228523847E+01  0.00000000000E+00 0. -1.
</event>
<event>
 7    1  0.1541902E-008  0.4614232E+02  0.7816164E-02  0.1320468E+00
        -11   -1    0    0    0    0  0.00000000000E+00  0.00000000000E+00  0.45593999997E+02  0.45594000000E+02  0.51100000000E-03 0.  1.
         11   -1    0    0    0    0 -0.00000000000E+00 -0.00000000000E+00 -0.45593999997E+02  0.45594000000E+02  0.51100000000E-03 0. -1.
    9900012    2    1    2    0    0  0.13702353816E+02  0.24469365867E+02  0.35250661756E+02  0.46142317407E+02  0.99999967699E+01 0.  0.
         12    1    1    2    0    0 -0.13702353816E+02 -0.24469365867E+02 -0.35250661756E+02  0.45045682593E+02  0.00000000000E+00 0. -1.
         11    1    3    3    0    0  0.83855783327E+01  0.19168173502E+02  0.23988755987E+02  0.31830758921E+02  0.51100000000E-03 0. -1.
        -11    1    3    3    0    0  0.34296053357E+01  0.86059828140E+00  0.71321869710E+01  0.79605849918E+01  0.51100000000E-03 0.  1.
         12    1    3    3    0    0  0.18871701472E+01  0.44405940831E+01  0.41297187983E+01  0.63509734946E+01  0.00000000000E+00 0. -1.
</event>
<event>
 7    1  0.1541902E-008  0.4614232E+02  0.7816164E-02  0.1320468E+00
        -11   -1    0    0    0    0  0.00000000000E+00  0.00000000000E+00  0.45593999997E+02  0.45594000000E+02  0.51100000000E-03 0.  1.
         11   -1    0    0    0    0 -0.00000000000E+00 -0.00000000000E+00 -0.45593999997E+02  0.45594000000E+02  0.51100000000E-03 0. -1.
    9900012    2    1    2    0    0 -0.16331274829E+02 -0.35473754203E+01  0.41830840138E+02  0.46142316561E+02  0.99999890527E+01 0.  0.
         12    1    1    2    0    0  0.16331274829E+02  0.35473754203E+01 -0.41830840138E+02  0.45045683439E+02  0.00000000000E+00 0. -1.
         11    1    3    3    0    0 -0.46632249193E+00  0.12376035224E+00  0.12281885947E+02  0.12291358590E+02  0.51100000000E-03 0. -1.
        -11    1    3    3    0    0 -0.12640905041E+02 -0.37862584876E+01  0.22211762065E+02  0.25835839601E+02  0.51100000000E-03 0.  1.
         12    1    3    3    0    0 -0.32240472961E+01  0.11512271507E+00  0.73371921254E+01  0.80151183704E+01  0.00000000000E+00 0. -1.
</event>
<event>
 7    1  0.1541902E-008  0.4614232E+02  0.7816164E-02  0.1320468E+00
        -11   -1    0    0    0    0  0.00000000000E+00  0.00000000000E+00  0.45593999997E+02  0.45594000000E+02  0.51100000000E-03 0. -1.
         11   -1    0    0    0    0 -0.00000000000E+00 -0.00000000000E+00 -0.45593999997E+02  0.45594000000E+02  0.51100000000E-03 0.  1.
    9900012    2    1    2    0    0  0.31973475285E+02  0.25315527238E+02 -0.19129410963E+02  0.46142318687E+02  0.10000008445E+02 0.  0.
         12    1    1    2    0    0 -0.31973475285E+02 -0.25315527238E+02  0.19129410963E+02  0.45045681313E+02  0.00000000000E+00 0. -1.
         11    1    3    3    0    0  0.94603811173E+01  0.34118250898E+01 -0.49897070772E+01  0.11226599588E+02  0.51100000000E-03 0. -1.
        -11    1    3    3    0    0  0.22760730082E+02  0.21550751121E+02 -0.13463611059E+02  0.34113846613E+02  0.51100000000E-03 0.  1.
        -12    1    3    3    0    0 -0.24763591394E+00  0.35295102642E+00 -0.67609282725E+00  0.80187248611E+00  0.00000000000E+00 0.  1.
</event>
<event>
 7    1  0.1541902E-008  0.4614232E+02  0.7816164E-02  0.1320468E+00
        -11   -1    0    0    0    0  0.00000000000E+00  0.00000000000E+00  0.45593999997E+02  0.45594000000E+02  0.51100000000E-03 0.  1.
         11   -1    0    0    0    0 -0.00000000000E+00 -0.00000000000E+00 -0.45593999997E+02  0.45594000000E+02  0.51100000000E-03 0. -1.
    9900012    2    1    2    0    0 -0.33798712996E+02 -0.30643959956E+00  0.29776948874E+02  0.46142316637E+02  0.99999897488E+01 0.  0.
         12    1    1    2    0    0  0.33798712996E+02  0.30643959956E+00 -0.29776948874E+02  0.45045683363E+02  0.00000000000E+00 0. -1.
         11    1    3    3    0    0 -0.47227974211E+01 -0.22778753282E+01  0.35066492956E+01  0.63079411090E+01  0.51100000000E-03 0. -1.
        -11    1    3    3    0    0 -0.19584372597E+02 -0.48544206533E+00  0.20938144562E+02  0.28673841773E+02  0.51100000000E-03 0.  1.
        -12    1    3    3    0    0 -0.94915429773E+01  0.24568777940E+01  0.53321550160E+01  0.11160533755E+02  0.00000000000E+00 0.  1.
</event>
<event>
 7    1  0.1541902E-008  0.4614232E+02  0.7816164E-02  0.1320468E+00
        -11   -1    0    0    0    0  0.00000000000E+00  0.00000000000E+00  0.45593999997E+02  0.45594000000E+02  0.51100000000E-03 0.  1.
         11   -1    0    0    0    0 -0.00000000000E+00 -0.00000000000E+00 -0.45593999997E+02  0.45594000000E+02  0.51100000000E-03 0. -1.
    9900012    2    1    2    0    0  0.44501970580E+02  0.29491073755E+01  0.63238338451E+01  0.46142317695E+02  0.99999993985E+01 0.  0.
         12    1    1    2    0    0 -0.44501970580E+02 -0.29491073755E+01 -0.63238338451E+01  0.45045682305E+02  0.00000000000E+00 0. -1.
         11    1    3    3    0    0  0.77778184565E+01  0.20506828778E+00 -0.24181451471E+01  0.81476339608E+01  0.51100000000E-03 0. -1.
        -11    1    3    3    0    0  0.27984523447E+02  0.23702755277E+01  0.52254921125E+01  0.28566720615E+02  0.51100000000E-03 0.  1.
         12    1    3    3    0    0  0.87396286766E+01  0.37376356006E+00  0.35164868797E+01  0.94279631193E+01  0.00000000000E+00 0. -1.
</event>
<event>
 7    1  0.1541902E-008  0.4614232E+02  0.7816164E-02  0.1320468E+00
        -11   -1    0    0    0    0  0.00000000000E+00  0.00000000000E+00  0.45593999997E+02  0.45594000000E+02  0.51100000000E-03 0.  1.
         11   -1    0    0    0    0 -0.00000000000E+00 -0.00000000000E+00 -0.45593999997E+02  0.45594000000E+02  0.51100000000E-03 0. -1.
    9900012    2    1    2    0    0 -0.15405894535E+02 -0.74421002469E+01  0.41669974869E+02  0.46142320428E+02  0.10000024320E+02 0.  0.
         12    1    1    2    0    0  0.15405894535E+02  0.74421002469E+01 -0.41669974869E+02  0.45045679572E+02  0.00000000000E+00 0. -1.
         11    1    3    3    0    0 -0.14636395695E+01  0.14065087639E+01  0.47645155179E+01  0.51789107035E+01  0.51100000000E-03 0. -1.
        -11    1    3    3    0    0 -0.24386368337E+01 -0.35481272457E+01  0.15543251432E+02  0.16128509599E+02  0.51100000000E-03 0.  1.
        -12    1    3    3    0    0 -0.11503618132E+02 -0.53004817651E+01  0.21362207919E+02  0.24834900126E+02  0.00000000000E+00 0.  1.
</event>
<event>
 7    1  0.1541902E-008  0.4614232E+02  0.7816164E-02  0.1320468E+00
        -11   -1    0    0    0    0  0.00000000000E+00  0.00000000000E+00  0.45593999997E+02  0.45594000000E+02  0.51100000000E-03 0. -1.
         11   -1    0    0    0    0 -0.00000000000E+00 -0.00000000000E+00 -0.45593999997E+02  0.45594000000E+02  0.51100000000E-03 0.  1.
    9900012    2    1    2    0    0 -0.48053857477E+01 -0.43931085187E+02 -0.87224672716E+01  0.46142318596E+02  0.10000007610E+02 0.  0.
         12    1    1    2    0    0  0.48053857477E+01  0.43931085187E+02  0.87224672716E+01  0.45045681404E+02  0.00000000000E+00 0. -1.
         11    1    3    3    0    0  0.12796138579E+01 -0.91700492885E+01 -0.15044438130E+01  0.93803287270E+01  0.51100000000E-03 0. -1.
        -11    1    3    3    0    0 -0.18766974152E+00 -0.14340692390E+02 -0.85051991601E-01  0.14342172508E+02  0.51100000000E-03 0.  1.
        -12    1    3    3    0    0 -0.58973298641E+01 -0.20420343509E+02 -0.71329714670E+01  0.22419817361E+02  0.00000000000E+00 0.  1.
</event>
<event>
 7    1  0.1541902E-008  0.4614232E+02  0.7816164E-02  0.1320468E+00
        -11   -1    0    0    0    0  0.00000000000E+00  0.00000000000E+00  0.45593999997E+02  0.45594000000E+02  0.51100000000E-03 0.  1.
         11   -1    0    0    0    0 -0.00000000000E+00 -0.00000000000E+00 -0.45593999997E+02  0.45594000000E+02  0.51100000000E-03 0. -1.
    9900012    2    1    2    0    0 -0.27303207628E+02  0.29878424863E+02  0.19771904635E+02  0.46142316167E+02  0.99999854651E+01 0.  0.
         12    1    1    2    0    0  0.27303207628E+02 -0.29878424863E+02 -0.19771904635E+02  0.45045683833E+02  0.00000000000E+00 0. -1.
         11    1    3    3    0    0 -0.47992042666E+01  0.23409160207E+01  0.29002412266E+01  0.60764832627E+01  0.51100000000E-03 0. -1.
        -11    1    3    3    0    0 -0.20931828451E+02  0.27599939456E+02  0.16779808884E+02  0.38489740019E+02  0.51100000000E-03 0.  1.
        -12    1    3    3    0    0 -0.15721749102E+01 -0.62430613907E-01  0.91854524631E-01  0.15760928854E+01  0.00000000000E+00 0.  1.
</event>
<event>
 7    1  0.1541902E-008  0.4614232E+02  0.7816164E-02  0.1320468E+00
        -11   -1    0    0    0    0  0.00000000000E+00  0.00000000000E+00  0.45593999997E+02  0.45594000000E+02  0.51100000000E-03 0.  1.
         11   -1    0    0    0    0 -0.00000000000E+00 -0.00000000000E+00 -0.45593999997E+02  0.45594000000E+02  0.51100000000E-03 0. -1.
    9900012    2    1    2    0    0  0.17654934929E+01 -0.34803914774E+02  0.28542670433E+02  0.46142317784E+02  0.10000000213E+02 0.  0.
         12    1    1    2    0    0 -0.17654934929E+01  0.34803914774E+02 -0.28542670433E+02  0.45045682216E+02  0.00000000000E+00 0. -1.
         11    1    3    3    0    0 -0.57045108352E+00 -0.52523275712E+00  0.32210878748E+01  0.33131090001E+01  0.51100000000E-03 0. -1.
        -11    1    3    3    0    0 -0.21598360552E+00 -0.21543518358E+02  0.15317392019E+02  0.26434680453E+02  0.51100000000E-03 0.  1.
        -12    1    3    3    0    0  0.25519281820E+01 -0.12735163659E+02  0.10004190539E+02  0.16394528331E+02  0.00000000000E+00 0.  1.
</event>
<event>
 7    1  0.1541902E-008  0.4614232E+02  0.7816164E-02  0.1320468E+00
        -11   -1    0    0    0    0  0.00000000000E+00  0.00000000000E+00  0.45593999997E+02  0.45594000000E+02  0.51100000000E-03 0.  1.
         11   -1    0    0    0    0 -0.00000000000E+00 -0.00000000000E+00 -0.45593999997E+02  0.45594000000E+02  0.51100000000E-03 0. -1.
    9900012    2    1    2    0    0  0.30168007393E+01 -0.19827766324E+02  0.40334502633E+02  0.46142317557E+02  0.99999981362E+01 0.  0.
         12    1    1    2    0    0 -0.30168007393E+01  0.19827766324E+02 -0.40334502633E+02  0.45045682443E+02  0.00000000000E+00 0. -1.
         11    1    3    3    0    0  0.20580039392E+01 -0.11604411495E+02  0.15502880054E+02  0.19474009258E+02  0.51100000000E-03 0. -1.
        -11    1    3    3    0    0 -0.15639106691E+01 -0.28313810362E+01  0.13337384373E+02  0.13724006606E+02  0.51100000000E-03 0.  1.
         12    1    3    3    0    0  0.25227074693E+01 -0.53919737929E+01  0.11494238207E+02  0.12944301693E+02  0.00000000000E+00 0. -1.
</event>
<event>
 7    1  0.1541902E-008  0.4614232E+02  0.7816164E-02  0.1320468E+00
        -11   -1    0    0    0    0  0.00000000000E+00  0.00000000000E+00  0.45593999997E+02  0.45594000000E+02  0.51100000000E-03 0. -1.
         11   -1    0    0    0    0 -0.00000000000E+00 -0.00000000000E+00 -0.45593999997E+02  0.45594000000E+02  0.51100000000E-03 0.  1.
    9900012    2    1    2    0    0  0.18224241429E+02 -0.31788291914E+02 -0.26201046955E+02  0.46142319408E+02  0.10000015014E+02 0.  0.
         12    1    1    2    0    0 -0.18224241429E+02  0.31788291914E+02  0.26201046955E+02  0.45045680592E+02  0.00000000000E+00 0. -1.
         11    1    3    3    0    0  0.45589376744E+01 -0.62990173566E+01 -0.16688352717E+01  0.79527695681E+01  0.51100000000E-03 0. -1.
        -11    1    3    3    0    0  0.10495521285E+02 -0.15019395299E+02 -0.14999039178E+02  0.23679302750E+02  0.51100000000E-03 0.  1.
         12    1    3    3    0    0  0.31697824703E+01 -0.10469879259E+02 -0.95331725049E+01  0.14510247090E+02  0.00000000000E+00 0. -1.
</event>
<event>
 7    1  0.1541902E-008  0.4614232E+02  0.7816164E-02  0.1320468E+00
        -11   -1    0    0    0    0  0.00000000000E+00  0.00000000000E+00  0.45593999997E+02  0.45594000000E+02  0.51100000000E-03 0.  1.
         11   -1    0    0    0    0 -0.00000000000E+00 -0.00000000000E+00 -0.45593999997E+02  0.45594000000E+02  0.51100000000E-03 0. -1.
    9900012    2    1    2    0    0 -0.38492051220E+02  0.10144404177E+01  0.23376192878E+02  0.46142317744E+02  0.99999998412E+01 0.  0.
         12    1    1    2    0    0  0.38492051220E+02 -0.10144404177E+01 -0.23376192878E+02  0.45045682256E+02  0.00000000000E+00 0. -1.
         11    1    3    3    0    0 -0.64813674314E+01 -0.27478720599E+01  0.36719317730E+01  0.79398997377E+01  0.51100000000E-03 0. -1.
        -11    1    3    3    0    0 -0.55164753938E+01 -0.23590908180E+00  0.12306041121E+01  0.56569904196E+01  0.51100000000E-03 0.  1.
        -12    1    3    3    0    0 -0.26494208395E+02  0.39982215594E+01  0.18473656993E+02  0.32545427586E+02  0.00000000000E+00 0.  1.
</event>
<event>
 7    1  0.1541902E-008  0.4614232E+02  0.7816164E-02  0.1320468E+00
        -11   -1    0    0    0    0  0.00000000000E+00  0.00000000000E+00  0.45593999997E+02  0.45594000000E+02  0.51100000000E-03 0.  1.
         11   -1    0    0    0    0 -0.00000000000E+00 -0.00000000000E+00 -0.45593999997E+02  0.45594000000E+02  0.51100000000E-03 0. -1.
    9900012    2    1    2    0    0  0.28102039162E+02  0.31612585331E+02  0.15493012300E+02  0.46142316672E+02  0.99999900707E+01 0.  0.
         12    1    1    2    0    0 -0.28102039162E+02 -0.31612585331E+02 -0.15493012300E+02  0.45045683328E+02  0.00000000000E+00 0. -1.
         11    1    3    3    0    0  0.11265753757E+02  0.93885648014E+01  0.16998560362E+01  0.14763193000E+02  0.51100000000E-03 0.  1.
        -11    1    3    3    0    0  0.14175839228E+02  0.15780337818E+02  0.10505695343E+02  0.23671567636E+02  0.51100000000E-03 0. -1.
        -12    1    3    3    0    0  0.26604461770E+01  0.64436827113E+01  0.32874609214E+01  0.77075560364E+01  0.00000000000E+00 0.  1.
</event>
<event>
 7    1  0.1541902E-008  0.4614232E+02  0.7816164E-02  0.1320468E+00
        -11   -1    0    0    0    0  0.00000000000E+00  0.00000000000E+00  0.45593999997E+02  0.45594000000E+02  0.51100000000E-03 0.  1.
         11   -1    0    0    0    0 -0.00000000000E+00 -0.00000000000E+00 -0.45593999997E+02  0.45594000000E+02  0.51100000000E-03 0. -1.
    9900012    2    1    2    0    0  0.42564139128E+02 -0.11462755405E+02  0.92743058146E+01  0.46142318192E+02  0.10000003932E+02 0.  0.
         12    1    1    2    0    0 -0.42564139128E+02  0.11462755405E+02 -0.92743058146E+01  0.45045681808E+02  0.00000000000E+00 0. -1.
         11    1    3    3    0    0  0.36948594043E+01 -0.27889078956E+01 -0.13243846194E+01  0.48149754048E+01  0.51100000000E-03 0. -1.
        -11    1    3    3    0    0  0.15845972004E+02 -0.50801057190E+01  0.41788486701E+01  0.17157070826E+02  0.51100000000E-03 0.  1.
         12    1    3    3    0    0  0.23023307720E+02 -0.35937417900E+01  0.64198417638E+01  0.24170271962E+02  0.00000000000E+00 0. -1.
</event>
<event>
 7    1  0.1541902E-008  0.4614232E+02  0.7816164E-02  0.1320468E+00
        -11   -1    0    0    0    0  0.00000000000E+00  0.00000000000E+00  0.45593999997E+02  0.45594000000E+02  0.51100000000E-03 0.  1.
         11   -1    0    0    0    0 -0.00000000000E+00 -0.00000000000E+00 -0.45593999997E+02  0.45594000000E+02  0.51100000000E-03 0. -1.
    9900012    2    1    2    0    0 -0.42124702979E+02  0.13643936969E+02  0.82744160287E+01  0.46142316769E+02  0.99999909542E+01 0.  0.
         12    1    1    2    0    0  0.42124702979E+02 -0.13643936969E+02 -0.82744160287E+01  0.45045683231E+02  0.00000000000E+00 0. -1.
         11    1    3    3    0    0 -0.14489542847E+02  0.90503430887E+01  0.16915146291E+01  0.17167317319E+02  0.51100000000E-03 0. -1.
        -11    1    3    3    0    0 -0.13063338164E+02  0.78182858854E+00  0.40677055039E+01  0.13704316410E+02  0.51100000000E-03 0.  1.
        -12    1    3    3    0    0 -0.14571821969E+02  0.38117652921E+01  0.25151958957E+01  0.15270683041E+02  0.00000000000E+00 0.  1.
</event>
<event>
 7    1  0.1541902E-008  0.4614232E+02  0.7816164E-02  0.1320468E+00
        -11   -1    0    0    0    0  0.00000000000E+00  0.00000000000E+00  0.45593999997E+02  0.45594000000E+02  0.51100000000E-03 0.  1.
         11   -1    0    0    0    0 -0.00000000000E+00 -0.00000000000E+00 -0.45593999997E+02  0.45594000000E+02  0.51100000000E-03 0. -1.
    9900012    2    1    2    0    0 -0.38663762716E+02  0.30889860295E+01  0.22906006174E+02  0.46142317622E+02  0.99999987359E+01 0.  0.
         12    1    1    2    0    0  0.38663762716E+02 -0.30889860295E+01 -0.22906006174E+02  0.45045682378E+02  0.00000000000E+00 0. -1.
         11    1    3    3    0    0 -0.80403057762E+01  0.36673519959E+01  0.62143979764E+01  0.10803459173E+02  0.51100000000E-03 0. -1.
        -11    1    3    3    0    0 -0.19029589472E+02 -0.29390531075E+01  0.11408353754E+02  0.22381104626E+02  0.51100000000E-03 0.  1.
        -12    1    3    3    0    0 -0.11593867468E+02  0.23606871410E+01  0.52832544428E+01  0.12957753823E+02  0.00000000000E+00 0.  1.
</event>
<event>
 7    1  0.1541902E-008  0.4614232E+02  0.7816164E-02  0.1320468E+00
        -11   -1    0    0    0    0  0.00000000000E+00  0.00000000000E+00  0.45593999997E+02  0.45594000000E+02  0.51100000000E-03 0.  1.
         11   -1    0    0    0    0 -0.00000000000E+00 -0.00000000000E+00 -0.45593999997E+02  0.45594000000E+02  0.51100000000E-03 0. -1.
    9900012    2    1    2    0    0  0.41101586494E+02 -0.17942540168E+02 -0.42235449310E+01  0.46142317724E+02  0.99999996582E+01 0.  0.
         12    1    1    2    0    0 -0.41101586494E+02  0.17942540168E+02  0.42235449310E+01  0.45045682276E+02  0.00000000000E+00 0. -1.
         11    1    3    3    0    0  0.96546274600E+01 -0.75154623751E+01  0.11279872782E+01  0.12286836927E+02  0.51100000000E-03 0. -1.
        -11    1    3    3    0    0  0.30164425426E+02 -0.89924645990E+01 -0.47081925515E+01  0.31826467888E+02  0.51100000000E-03 0.  1.
        -12    1    3    3    0    0  0.12825336072E+01 -0.14346131937E+01 -0.64333965765E+00  0.20290129088E+01  0.00000000000E+00 0.  1.
</event>
<event>
 7    1  0.1541902E-008  0.4614232E+02  0.7816164E-02  0.1320468E+00
        -11   -1    0    0    0    0  0.00000000000E+00  0.00000000000E+00  0.45593999997E+02  0.45594000000E+02  0.51100000000E-03 0.  1.
         11   -1    0    0    0    0 -0.00000000000E+00 -0.00000000000E+00 -0.45593999997E+02  0.45594000000E+02  0.51100000000E-03 0. -1.
    9900012    2    1    2    0    0  0.42102993743E+02  0.14283186800E+02 -0.72416808744E+01  0.46142318196E+02  0.10000003964E+02 0.  0.
         12    1    1    2    0    0 -0.42102993743E+02 -0.14283186800E+02  0.72416808744E+01  0.45045681804E+02  0.00000000000E+00 0. -1.
         11    1    3    3    0    0  0.10737766622E+01  0.34110393070E+00  0.77937841363E+00  0.13699559061E+01  0.51100000000E-03 0. -1.
        -11    1    3    3    0    0  0.13981072014E+02  0.14558805591E+01 -0.59280399507E+00  0.14069164143E+02  0.51100000000E-03 0.  1.
        -12    1    3    3    0    0  0.27048145067E+02  0.12486202310E+02 -0.74282552930E+01  0.30703198146E+02  0.00000000000E+00 0.  1.
</event>
<event>
 7    1  0.1541902E-008  0.4614232E+02  0.7816164E-02  0.1320468E+00
        -11   -1    0    0    0    0  0.00000000000E+00  0.00000000000E+00  0.45593999997E+02  0.45594000000E+02  0.51100000000E-03 0. -1.
         11   -1    0    0    0    0 -0.00000000000E+00 -0.00000000000E+00 -0.45593999997E+02  0.45594000000E+02  0.51100000000E-03 0.  1.
    9900012    2    1    2    0    0  0.80268291950E+01 -0.22379302095E+02 -0.38260297255E+02  0.46142317685E+02  0.99999993029E+01 0.  0.
         12    1    1    2    0    0 -0.80268291950E+01  0.22379302095E+02  0.38260297255E+02  0.45045682315E+02  0.00000000000E+00 0. -1.
         11    1    3    3    0    0  0.66946802974E+01 -0.13097781765E+02 -0.29730015604E+02  0.33169933065E+02  0.51100000000E-03 0.  1.
        -11    1    3    3    0    0  0.19612556299E+01 -0.76574447795E+01 -0.61108505117E+01  0.99912701112E+01  0.51100000000E-03 0. -1.
         12    1    3    3    0    0 -0.62910673226E+00 -0.16240755507E+01 -0.24194311398E+01  0.29811145089E+01  0.00000000000E+00 0. -1.
</event>
<event>
 7    1  0.1541902E-008  0.4614232E+02  0.7816164E-02  0.1320468E+00
        -11   -1    0    0    0    0  0.00000000000E+00  0.00000000000E+00  0.45593999997E+02  0.45594000000E+02  0.51100000000E-03 0. -1.
         11   -1    0    0    0    0 -0.00000000000E+00 -0.00000000000E+00 -0.45593999997E+02  0.45594000000E+02  0.51100000000E-03 0.  1.
    9900012    2    1    2    0    0  0.34359681882E+02  0.29125020063E+02 -0.50881940110E+00  0.46142318410E+02  0.10000005917E+02 0.  0.
         12    1    1    2    0    0 -0.34359681882E+02 -0.29125020063E+02  0.50881940110E+00  0.45045681590E+02  0.00000000000E+00 0. -1.
         11    1    3    3    0    0  0.15303215991E+01  0.27009748018E+01 -0.62261615946E+00  0.31661964910E+01  0.51100000000E-03 0. -1.
        -11    1    3    3    0    0  0.19024321837E+02  0.10941161775E+02  0.25331466313E+01  0.22091868968E+02  0.51100000000E-03 0.  1.
        -12    1    3    3    0    0  0.13805038445E+02  0.15482883486E+02 -0.24193498729E+01  0.20884252951E+02  0.00000000000E+00 0.  1.
</event>
<event>
 7    1  0.1541902E-008  0.4614232E+02  0.7816164E-02  0.1320468E+00
        -11   -1    0    0    0    0  0.00000000000E+00  0.00000000000E+00  0.45593999997E+02  0.45594000000E+02  0.51100000000E-03 0.  1.
         11   -1    0    0    0    0 -0.00000000000E+00 -0.00000000000E+00 -0.45593999997E+02  0.45594000000E+02  0.51100000000E-03 0. -1.
    9900012    2    1    2    0    0  0.25446669035E+02  0.32839734645E+02  0.17410698610E+02  0.46142316937E+02  0.99999924831E+01 0.  0.
         12    1    1    2    0    0 -0.25446669035E+02 -0.32839734645E+02 -0.17410698610E+02  0.45045683063E+02  0.00000000000E+00 0. -1.
         11    1    3    3    0    0  0.18567877811E+01  0.12762709242E+01  0.14275261785E+01  0.26672756864E+01  0.51100000000E-03 0. -1.
        -11    1    3    3    0    0  0.92150069942E-01  0.47546106173E+01  0.13880685037E+01  0.49539426914E+01  0.51100000000E-03 0.  1.
        -12    1    3    3    0    0  0.23497731183E+02  0.26808853104E+02  0.14595103928E+02  0.38521098559E+02  0.00000000000E+00 0.  1.
</event>
<event>
 7    1  0.1541902E-008  0.4614232E+02  0.7816164E-02  0.1320468E+00
        -11   -1    0    0    0    0  0.00000000000E+00  0.00000000000E+00  0.45593999997E+02  0.45594000000E+02  0.51100000000E-03 0.  1.
         11   -1    0    0    0    0 -0.00000000000E+00 -0.00000000000E+00 -0.45593999997E+02  0.45594000000E+02  0.51100000000E-03 0. -1.
    9900012    2    1    2    0    0 -0.32437304592E+02  0.97819030838E+01  0.29685841099E+02  0.46142317423E+02  0.99999969138E+01 0.  0.
         12    1    1    2    0    0  0.32437304592E+02 -0.97819030838E+01 -0.29685841099E+02  0.45045682577E+02  0.00000000000E+00 0. -1.
         11    1    3    3    0    0 -0.12163564038E+02  0.48356614128E+01  0.99302286585E+01  0.16430013782E+02  0.51100000000E-03 0. -1.
        -11    1    3    3    0    0 -0.20081597542E+02  0.42401507881E+01  0.16383032402E+02  0.26261248818E+02  0.51100000000E-03 0.  1.
        -12    1    3    3    0    0 -0.19214301166E+00  0.70609088287E+00  0.33725800387E+01  0.34510548227E+01  0.00000000000E+00 0.  1.
</event>
<event>
 7    1  0.1541902E-008  0.4614232E+02  0.7816164E-02  0.1320468E+00
        -11   -1    0    0    0    0  0.00000000000E+00  0.00000000000E+00  0.45593999997E+02  0.45594000000E+02  0.51100000000E-03 0.  1.
         11   -1    0    0    0    0 -0.00000000000E+00 -0.00000000000E+00 -0.45593999997E+02  0.45594000000E+02  0.51100000000E-03 0. -1.
    9900012    2    1    2    0    0 -0.68407092568E+01  0.15292497894E+02  0.41814564075E+02  0.46142316924E+02  0.99999923695E+01 0.  0.
         12    1    1    2    0    0  0.68407092568E+01 -0.15292497894E+02 -0.41814564075E+02  0.45045683076E+02  0.00000000000E+00 0. -1.
         11    1    3    3    0    0  0.19347521013E+01  0.48914408156E+01  0.86750388734E+01  0.10145233298E+02  0.51100000000E-03 0. -1.
        -11    1    3    3    0    0 -0.53481164960E+01  0.79519341719E+01  0.25968907269E+02  0.27680674705E+02  0.51100000000E-03 0.  1.
         12    1    3    3    0    0 -0.34273448621E+01  0.24491229061E+01  0.71706179329E+01  0.83164089217E+01  0.00000000000E+00 0. -1.
</event>
<event>
 7    1  0.1541902E-008  0.4614232E+02  0.7816164E-02  0.1320468E+00
        -11   -1    0    0    0    0  0.00000000000E+00  0.00000000000E+00  0.45593999997E+02  0.45594000000E+02  0.51100000000E-03 0.  1.
         11   -1    0    0    0    0 -0.00000000000E+00 -0.00000000000E+00 -0.45593999997E+02  0.45594000000E+02  0.51100000000E-03 0. -1.
    9900012    2    1    2    0    0  0.38118488442E+02 -0.77275131279E+01  0.22723995330E+02  0.46142316699E+02  0.99999903179E+01 0.  0.
         12    1    1    2    0    0 -0.38118488442E+02  0.77275131279E+01 -0.22723995330E+02  0.45045683301E+02  0.00000000000E+00 0. -1.
         11    1    3    3    0    0  0.14639034720E+02 -0.57508036651E+01  0.10179028079E+02  0.18734612172E+02  0.51100000000E-03 0. -1.
        -11    1    3    3    0    0  0.22067509906E+02 -0.15170881653E+01  0.13228104120E+02  0.25773228142E+02  0.51100000000E-03 0.  1.
        -12    1    3    3    0    0  0.14119438157E+01 -0.45962129744E+00 -0.68313686848E+00  0.16344763862E+01  0.00000000000E+00 0.  1.
</event>
<event>
 7    1  0.1541902E-008  0.4614232E+02  0.7816164E-02  0.1320468E+00
        -11   -1    0    0    0    0  0.00000000000E+00  0.00000000000E+00  0.45593999997E+02  0.45594000000E+02  0.51100000000E-03 0. -1.
         11   -1    0    0    0    0 -0.00000000000E+00 -0.00000000000E+00 -0.45593999997E+02  0.45594000000E+02  0.51100000000E-03 0.  1.
    9900012    2    1    2    0    0 -0.43837721647E+02  0.15016921531E+01 -0.10252436156E+02  0.46142319123E+02  0.10000012418E+02 0.  0.
         12    1    1    2    0    0  0.43837721647E+02 -0.15016921531E+01  0.10252436156E+02  0.45045680877E+02  0.00000000000E+00 0. -1.
         11    1    3    3    0    0 -0.32847564700E+01  0.17419317434E+00 -0.22486772919E+01  0.39845348729E+01  0.51100000000E-03 0. -1.
        -11    1    3    3    0    0 -0.28232281874E+01  0.59622660648E+00  0.14865526864E+01  0.32459116924E+01  0.51100000000E-03 0.  1.
        -12    1    3    3    0    0 -0.37729736990E+02  0.73127237230E+00 -0.94903115507E+01  0.38911872558E+02  0.00000000000E+00 0.  1.
</event>
<event>
 7    1  0.1541902E-008  0.4614232E+02  0.7816164E-02  0.1320468E+00
        -11   -1    0    0    0    0  0.00000000000E+00  0.00000000000E+00  0.45593999997E+02  0.45594000000E+02  0.51100000000E-03 0.  1.
         11   -1    0    0    0    0 -0.00000000000E+00 -0.00000000000E+00 -0.45593999997E+02  0.45594000000E+02  0.51100000000E-03 0. -1.
    9900012    2    1    2    0    0 -0.73420819069E+01  0.59250882053E+01  0.44046573916E+02  0.46142317513E+02  0.99999977367E+01 0.  0.
         12    1    1    2    0    0  0.73420819069E+01 -0.59250882053E+01 -0.44046573916E+02  0.45045682487E+02  0.00000000000E+00 0. -1.
         11    1    3    3    0    0 -0.52685026910E+00  0.19370797683E+01  0.11229356674E+01  0.23001812991E+01  0.51100000000E-03 0. -1.
        -11    1    3    3    0    0 -0.17507964985E+01 -0.63192026006E+00  0.13664416634E+02  0.13790608899E+02  0.51100000000E-03 0.  1.
        -12    1    3    3    0    0 -0.50644351393E+01  0.46199286971E+01  0.29259221615E+02  0.30051527315E+02  0.00000000000E+00 0.  1.
</event>
<event>
 7    1  0.1541902E-008  0.4614232E+02  0.7816164E-02  0.1320468E+00
        -11   -1    0    0    0    0  0.00000000000E+00  0.00000000000E+00  0.45593999997E+02  0.45594000000E+02  0.51100000000E-03 0.  1.
         11   -1    0    0    0    0 -0.00000000000E+00 -0.00000000000E+00 -0.45593999997E+02  0.45594000000E+02  0.51100000000E-03 0. -1.
    9900012    2    1    2    0    0 -0.16119179709E+02  0.23473844755E+02  0.34903636402E+02  0.46142321227E+02  0.10000031601E+02 0.  0.
         12    1    1    2    0    0  0.16119179709E+02 -0.23473844755E+02 -0.34903636402E+02  0.45045678773E+02  0.00000000000E+00 0. -1.
         11    1    3    3    0    0 -0.38925404334E+00 -0.21013346067E+00 -0.30847379722E-01  0.44342598424E+00  0.51100000000E-03 0. -1.
        -11    1    3    3    0    0 -0.11739207569E+02  0.10778993237E+02  0.18152575215E+02  0.24155986354E+02  0.51100000000E-03 0.  1.
         12    1    3    3    0    0 -0.39907180975E+01  0.12904984979E+02  0.16781908567E+02  0.21542908888E+02  0.00000000000E+00 0. -1.
</event>
<event>
 7    1  0.1541902E-008  0.4614232E+02  0.7816164E-02  0.1320468E+00
        -11   -1    0    0    0    0  0.00000000000E+00  0.00000000000E+00  0.45593999997E+02  0.45594000000E+02  0.51100000000E-03 0.  1.
         11   -1    0    0    0    0 -0.00000000000E+00 -0.00000000000E+00 -0.45593999997E+02  0.45594000000E+02  0.51100000000E-03 0. -1.
    9900012    2    1    2    0    0  0.12934774359E+02 -0.16340220945E+02  0.39934975229E+02  0.46142318134E+02  0.10000003402E+02 0.  0.
         12    1    1    2    0    0 -0.12934774359E+02  0.16340220945E+02 -0.39934975229E+02  0.45045681866E+02  0.00000000000E+00 0. -1.
         11    1    3    3    0    0  0.96684539599E+01 -0.11736576470E+02  0.28617365150E+02  0.32406478019E+02  0.51100000000E-03 0. -1.
        -11    1    3    3    0    0  0.47502375849E+01 -0.31186052669E+01  0.81321039617E+01  0.99207646393E+01  0.51100000000E-03 0.  1.
         12    1    3    3    0    0 -0.14839171860E+01 -0.14850392087E+01  0.31855061169E+01  0.38150754760E+01  0.00000000000E+00 0. -1.
</event>
<event>
 7    1  0.1541902E-008  0.4614232E+02  0.7816164E-02  0.1320468E+00
        -11   -1    0    0    0    0  0.00000000000E+00  0.00000000000E+00  0.45593999997E+02  0.45594000000E+02  0.51100000000E-03 0. -1.
         11   -1    0    0    0    0 -0.00000000000E+00 -0.00000000000E+00 -0.45593999997E+02  0.45594000000E+02  0.51100000000E-03 0.  1.
    9900012    2    1    2    0    0  0.45523237242E+01 -0.44710904028E+02 -0.30536675096E+01  0.46142317903E+02  0.10000001293E+02 0.  0.
         12    1    1    2    0    0 -0.45523237242E+01  0.44710904028E+02  0.30536675096E+01  0.45045682097E+02  0.00000000000E+00 0. -1.
         11    1    3    3    0    0  0.93299534367E+00 -0.28255698946E+02 -0.20853544652E+00  0.28271867475E+02  0.51100000000E-03 0. -1.
        -11    1    3    3    0    0  0.42933952428E+01 -0.79716965636E+01 -0.23046942721E+01  0.93430618516E+01  0.51100000000E-03 0.  1.
        -12    1    3    3    0    0 -0.67406686231E+00 -0.84835085192E+01 -0.54043779091E+00  0.85273885766E+01  0.00000000000E+00 0.  1.
</event>
<event>
 7    1  0.1541902E-008  0.4614231E+02  0.7816164E-02  0.1320468E+00
        -11   -1    0    0    0    0  0.00000000000E+00  0.00000000000E+00  0.45593999997E+02  0.45594000000E+02  0.51100000000E-03 0.  1.
         11   -1    0    0    0    0 -0.00000000000E+00 -0.00000000000E+00 -0.45593999997E+02  0.45594000000E+02  0.51100000000E-03 0. -1.
    9900012    2    1    2    0    0 -0.21086040803E+02  0.59157742225E+01  0.39363643723E+02  0.46142312653E+02  0.99999534193E+01 0.  0.
         12    1    1    2    0    0  0.21086040803E+02 -0.59157742225E+01 -0.39363643723E+02  0.45045687347E+02  0.00000000000E+00 0. -1.
         11    1    3    3    0    0 -0.73497999121E+01  0.65713310465E+01  0.17540678264E+02  0.20121564171E+02  0.51100000000E-03 0. -1.
        -11    1    3    3    0    0 -0.59374804988E+01  0.12233870355E+01  0.10842379661E+02  0.12422058907E+02  0.51100000000E-03 0.  1.
         12    1    3    3    0    0 -0.77987603922E+01 -0.18789438595E+01  0.10980585798E+02  0.13598689575E+02  0.00000000000E+00 0. -1.
</event>
<event>
 7    1  0.1541902E-008  0.4614232E+02  0.7816164E-02  0.1320468E+00
        -11   -1    0    0    0    0  0.00000000000E+00  0.00000000000E+00  0.45593999997E+02  0.45594000000E+02  0.51100000000E-03 0. -1.
         11   -1    0    0    0    0 -0.00000000000E+00 -0.00000000000E+00 -0.45593999997E+02  0.45594000000E+02  0.51100000000E-03 0.  1.
    9900012    2    1    2    0    0  0.32288868564E+02 -0.10536201550E+02 -0.29589370925E+02  0.46142318210E+02  0.10000004089E+02 0.  0.
         12    1    1    2    0    0 -0.32288868564E+02  0.10536201550E+02  0.29589370925E+02  0.45045681790E+02  0.00000000000E+00 0. -1.
         11    1    3    3    0    0  0.91868762895E+01 -0.71350581539E+01 -0.12523902254E+02  0.17092567939E+02  0.51100000000E-03 0. -1.
        -11    1    3    3    0    0  0.16537605967E+02 -0.12154367068E+01 -0.12379214906E+02  0.20693348193E+02  0.51100000000E-03 0.  1.
        -12    1    3    3    0    0  0.65643863077E+01 -0.21857066889E+01 -0.46862537646E+01  0.83564020770E+01  0.00000000000E+00 0.  1.
</event>
<event>
 7    1  0.1541902E-008  0.4614232E+02  0.7816164E-02  0.1320468E+00
        -11   -1    0    0    0    0  0.00000000000E+00  0.00000000000E+00  0.45593999997E+02  0.45594000000E+02  0.51100000000E-03 0.  1.
         11   -1    0    0    0    0 -0.00000000000E+00 -0.00000000000E+00 -0.45593999997E+02  0.45594000000E+02  0.51100000000E-03 0. -1.
    9900012    2    1    2    0    0 -0.10806565637E+02  0.41130258332E+02  0.14853736125E+02  0.46142317763E+02  0.10000000019E+02 0.  0.
         12    1    1    2    0    0  0.10806565637E+02 -0.41130258332E+02 -0.14853736125E+02  0.45045682237E+02  0.00000000000E+00 0. -1.
         11    1    3    3    0    0 -0.14166868329E+00  0.80080159882E+01  0.62034859741E+01  0.10130726952E+02  0.51100000000E-03 0. -1.
        -11    1    3    3    0    0 -0.87148072138E+01  0.22335984327E+02  0.53664314345E+01  0.24569140140E+02  0.51100000000E-03 0.  1.
        -12    1    3    3    0    0 -0.19500897396E+01  0.10786258017E+02  0.32838187163E+01  0.11442450671E+02  0.00000000000E+00 0.  1.
</event>
<event>
 7    1  0.1541902E-008  0.4614232E+02  0.7816164E-02  0.1320468E+00
        -11   -1    0    0    0    0  0.00000000000E+00  0.00000000000E+00  0.45593999997E+02  0.45594000000E+02  0.51100000000E-03 0. -1.
         11   -1    0    0    0    0 -0.00000000000E+00 -0.00000000000E+00 -0.45593999997E+02  0.45594000000E+02  0.51100000000E-03 0.  1.
    9900012    2    1    2    0    0 -0.19640086049E+02 -0.39983234810E+02  0.66874085561E+01  0.46142317864E+02  0.10000000941E+02 0.  0.
         12    1    1    2    0    0  0.19640086049E+02  0.39983234810E+02 -0.66874085561E+01  0.45045682136E+02  0.00000000000E+00 0. -1.
         11    1    3    3    0    0 -0.51588241402E+00 -0.47805500118E+01  0.20420624190E+01  0.52239651860E+01  0.51100000000E-03 0. -1.
        -11    1    3    3    0    0 -0.14868283585E+02 -0.20833528886E+02  0.17472581626E+01  0.25654525799E+02  0.51100000000E-03 0.  1.
        -12    1    3    3    0    0 -0.42559200499E+01 -0.14369155912E+02  0.28980879745E+01  0.15263826880E+02  0.00000000000E+00 0.  1.
</event>
<event>
 7    1  0.1541902E-008  0.4614232E+02  0.7816164E-02  0.1320468E+00
        -11   -1    0    0    0    0  0.00000000000E+00  0.00000000000E+00  0.45593999997E+02  0.45594000000E+02  0.51100000000E-03 0.  1.
         11   -1    0    0    0    0 -0.00000000000E+00 -0.00000000000E+00 -0.45593999997E+02  0.45594000000E+02  0.51100000000E-03 0. -1.
    9900012    2    1    2    0    0  0.13699212527E+02  0.24954413842E+02  0.34910205981E+02  0.46142315682E+02  0.99999810408E+01 0.  0.
         12    1    1    2    0    0 -0.13699212527E+02 -0.24954413842E+02 -0.34910205981E+02  0.45045684318E+02  0.00000000000E+00 0. -1.
         11    1    3    3    0    0  0.17182292599E+01  0.30309567171E+01  0.78439914859E+01  0.85829606257E+01  0.51100000000E-03 0. -1.
        -11    1    3    3    0    0  0.11876465274E+02  0.22423196242E+02  0.26987302307E+02  0.37042740762E+02  0.51100000000E-03 0.  1.
        -12    1    3    3    0    0  0.10451799297E+00 -0.49973911671E+00  0.78912188067E-01  0.51661429428E+00  0.00000000000E+00 0.  1.
</event>
<event>
 7    1  0.1541902E-008  0.4614231E+02  0.7816164E-02  0.1320468E+00
        -11   -1    0    0    0    0  0.00000000000E+00  0.00000000000E+00  0.45593999997E+02  0.45594000000E+02  0.51100000000E-03 0. -1.
         11   -1    0    0    0    0 -0.00000000000E+00 -0.00000000000E+00 -0.45593999997E+02  0.45594000000E+02  0.51100000000E-03 0.  1.
    9900012    2    1    2    0    0 -0.28677358217E+02 -0.33464722489E+02 -0.93185413369E+01  0.46142314988E+02  0.99999747094E+01 0.  0.
         12    1    1    2    0    0  0.28677358217E+02  0.33464722489E+02  0.93185413369E+01  0.45045685012E+02  0.00000000000E+00 0. -1.
         11    1    3    3    0    0 -0.56497870639E+01 -0.29179835236E+01 -0.96905940362E+00  0.64322467382E+01  0.51100000000E-03 0. -1.
        -11    1    3    3    0    0 -0.14472697142E+02 -0.23857251806E+02 -0.69851863014E+01  0.28764913597E+02  0.51100000000E-03 0.  1.
        -12    1    3    3    0    0 -0.85548740111E+01 -0.66894871593E+01 -0.13642956320E+01  0.10945154653E+02  0.00000000000E+00 0.  1.
</event>
<event>
 7    1  0.1541902E-008  0.4614232E+02  0.7816164E-02  0.1320468E+00
        -11   -1    0    0    0    0  0.00000000000E+00  0.00000000000E+00  0.45593999997E+02  0.45594000000E+02  0.51100000000E-03 0.  1.
         11   -1    0    0    0    0 -0.00000000000E+00 -0.00000000000E+00 -0.45593999997E+02  0.45594000000E+02  0.51100000000E-03 0. -1.
    9900012    2    1    2    0    0  0.28571598754E+02 -0.28480487979E+02  0.20040933620E+02  0.46142317952E+02  0.10000001739E+02 0.  0.
         12    1    1    2    0    0 -0.28571598754E+02  0.28480487979E+02 -0.20040933620E+02  0.45045682048E+02  0.00000000000E+00 0. -1.
         11    1    3    3    0    0  0.54740131379E+01 -0.28525425964E+01  0.25475581981E+01  0.66777145889E+01  0.51100000000E-03 0. -1.
        -11    1    3    3    0    0  0.71799613333E+01 -0.31934963812E+01  0.42755803514E+01  0.89459963943E+01  0.51100000000E-03 0.  1.
        -12    1    3    3    0    0  0.15917624282E+02 -0.22434449001E+02  0.13217795070E+02  0.30518606969E+02  0.00000000000E+00 0.  1.
</event>
<event>
 7    1  0.1541902E-008  0.4614232E+02  0.7816164E-02  0.1320468E+00
        -11   -1    0    0    0    0  0.00000000000E+00  0.00000000000E+00  0.45593999997E+02  0.45594000000E+02  0.51100000000E-03 0.  1.
         11   -1    0    0    0    0 -0.00000000000E+00 -0.00000000000E+00 -0.45593999997E+02  0.45594000000E+02  0.51100000000E-03 0. -1.
    9900012    2    1    2    0    0 -0.18650981303E+02 -0.22349930693E+01  0.40942144760E+02  0.46142317464E+02  0.99999972910E+01 0.  0.
         12    1    1    2    0    0  0.18650981303E+02  0.22349930693E+01 -0.40942144760E+02  0.45045682536E+02  0.00000000000E+00 0. -1.
         11    1    3    3    0    0 -0.97917158740E+01  0.35647686533E+01  0.19792323988E+02  0.22367864548E+02  0.51100000000E-03 0. -1.
        -11    1    3    3    0    0 -0.82087148940E+01 -0.46064591722E+01  0.19360786276E+02  0.21527714969E+02  0.51100000000E-03 0.  1.
         12    1    3    3    0    0 -0.65055053531E+00 -0.11933025504E+01  0.17890344954E+01  0.22467379468E+01  0.00000000000E+00 0. -1.
</event>
<event>
 7    1  0.1541902E-008  0.4614232E+02  0.7816164E-02  0.1320468E+00
        -11   -1    0    0    0    0  0.00000000000E+00  0.00000000000E+00  0.45593999997E+02  0.45594000000E+02  0.51100000000E-03 0. -1.
         11   -1    0    0    0    0 -0.00000000000E+00 -0.00000000000E+00 -0.45593999997E+02  0.45594000000E+02  0.51100000000E-03 0.  1.
    9900012    2    1    2    0    0  0.15165276938E+02 -0.13363252757E+02 -0.40256070580E+02  0.46142319104E+02  0.10000012241E+02 0.  0.
         12    1    1    2    0    0 -0.15165276938E+02  0.13363252757E+02  0.40256070580E+02  0.45045680896E+02  0.00000000000E+00 0. -1.
         11    1    3    3    0    0  0.13151387508E+01 -0.60698895875E+01 -0.16319157754E+02  0.17461044058E+02  0.51100000000E-03 0. -1.
        -11    1    3    3    0    0  0.11807947740E+02 -0.54916089776E+01 -0.20642522374E+02  0.24406948380E+02  0.51100000000E-03 0.  1.
         12    1    3    3    0    0  0.20421904470E+01 -0.18017541917E+01 -0.32943904517E+01  0.42743266648E+01  0.00000000000E+00 0. -1.
</event>
<event>
 7    1  0.1541902E-008  0.4614232E+02  0.7816164E-02  0.1320468E+00
        -11   -1    0    0    0    0  0.00000000000E+00  0.00000000000E+00  0.45593999997E+02  0.45594000000E+02  0.51100000000E-03 0.  1.
         11   -1    0    0    0    0 -0.00000000000E+00 -0.00000000000E+00 -0.45593999997E+02  0.45594000000E+02  0.51100000000E-03 0. -1.
    9900012    2    1    2    0    0 -0.38891140635E+02  0.16825378096E+02  0.15280682001E+02  0.46142318627E+02  0.10000007894E+02 0.  0.
         12    1    1    2    0    0  0.38891140635E+02 -0.16825378096E+02 -0.15280682001E+02  0.45045681373E+02  0.00000000000E+00 0. -1.
         11    1    3    3    0    0 -0.10162584821E+02  0.44703359504E+01  0.75775952500E+01  0.13441799872E+02  0.51100000000E-03 0. -1.
        -11    1    3    3    0    0 -0.23008310045E+02  0.12109188913E+02  0.70413521013E+01  0.26936878568E+02  0.51100000000E-03 0.  1.
         12    1    3    3    0    0 -0.57202457687E+01  0.24585323203E+00  0.66173464932E+00  0.57636401876E+01  0.00000000000E+00 0. -1.
</event>
<event>
 7    1  0.1541902E-008  0.4614232E+02  0.7816164E-02  0.1320468E+00
        -11   -1    0    0    0    0  0.00000000000E+00  0.00000000000E+00  0.45593999997E+02  0.45594000000E+02  0.51100000000E-03 0.  1.
         11   -1    0    0    0    0 -0.00000000000E+00 -0.00000000000E+00 -0.45593999997E+02  0.45594000000E+02  0.51100000000E-03 0. -1.
    9900012    2    1    2    0    0 -0.41310958413E+02 -0.16405642320E+02 -0.73056909821E+01  0.46142317569E+02  0.99999982491E+01 0.  0.
         12    1    1    2    0    0  0.41310958413E+02  0.16405642320E+02  0.73056909821E+01  0.45045682431E+02  0.00000000000E+00 0. -1.
         11    1    3    3    0    0 -0.97483904334E+01 -0.28375071634E+01 -0.31601483490E+01  0.10633395544E+02  0.51100000000E-03 0. -1.
        -11    1    3    3    0    0 -0.77259371368E+01 -0.19312027075E+01 -0.41571423657E+01  0.89834003278E+01  0.51100000000E-03 0.  1.
         12    1    3    3    0    0 -0.23836630843E+02 -0.11636932449E+02  0.11599732595E-01  0.26525521697E+02  0.00000000000E+00 0. -1.
</event>
<event>
 7    1  0.1541902E-008  0.4614232E+02  0.7816164E-02  0.1320468E+00
        -11   -1    0    0    0    0  0.00000000000E+00  0.00000000000E+00  0.45593999997E+02  0.45594000000E+02  0.51100000000E-03 0.  1.
         11   -1    0    0    0    0 -0.00000000000E+00 -0.00000000000E+00 -0.45593999997E+02  0.45594000000E+02  0.51100000000E-03 0. -1.
    9900012    2    1    2    0    0  0.13483042722E+02  0.42566153296E+02 -0.59534556481E+01  0.46142317836E+02  0.10000000684E+02 0.  0.
         12    1    1    2    0    0 -0.13483042722E+02 -0.42566153296E+02  0.59534556481E+01  0.45045682164E+02  0.00000000000E+00 0. -1.
         11    1    3    3    0    0 -0.51671208018E+00  0.41979106452E+01 -0.13225010246E+01  0.44315295757E+01  0.51100000000E-03 0. -1.
        -11    1    3    3    0    0  0.33691848649E+00  0.91019905542E+01 -0.20485045187E+00  0.91105274317E+01  0.51100000000E-03 0.  1.
        -12    1    3    3    0    0  0.13662836315E+02  0.29266252097E+02 -0.44261041717E+01  0.32600260829E+02  0.00000000000E+00 0.  1.
</event>
<event>
 7    1  0.1541902E-008  0.4614232E+02  0.7816164E-02  0.1320468E+00
        -11   -1    0    0    0    0  0.00000000000E+00  0.00000000000E+00  0.45593999997E+02  0.45594000000E+02  0.51100000000E-03 0.  1.
         11   -1    0    0    0    0 -0.00000000000E+00 -0.00000000000E+00 -0.45593999997E+02  0.45594000000E+02  0.51100000000E-03 0. -1.
    9900012    2    1    2    0    0  0.16705189222E+02 -0.41001454300E+02 -0.83024405508E+01  0.46142321841E+02  0.10000037203E+02 0.  0.
         12    1    1    2    0    0 -0.16705189222E+02  0.41001454300E+02  0.83024405508E+01  0.45045678159E+02  0.00000000000E+00 0. -1.
         11    1    3    3    0    0  0.14937753663E+01 -0.80218369143E+00  0.26224977390E+00  0.17157035655E+01  0.51100000000E-03 0. -1.
        -11    1    3    3    0    0  0.11799499580E+02 -0.37121271808E+02 -0.70214045426E+01  0.39579251294E+02  0.51100000000E-03 0.  1.
        -12    1    3    3    0    0  0.34119142764E+01 -0.30779988012E+01 -0.15432857821E+01  0.48473669816E+01  0.00000000000E+00 0.  1.
</event>
<event>
 7    1  0.1541902E-008  0.4614232E+02  0.7816164E-02  0.1320468E+00
        -11   -1    0    0    0    0  0.00000000000E+00  0.00000000000E+00  0.45593999997E+02  0.45594000000E+02  0.51100000000E-03 0.  1.
         11   -1    0    0    0    0 -0.00000000000E+00 -0.00000000000E+00 -0.45593999997E+02  0.45594000000E+02  0.51100000000E-03 0. -1.
    9900012    2    1    2    0    0 -0.16131817759E+02  0.14557278653E+02  0.39458377525E+02  0.46142318044E+02  0.10000002580E+02 0.  0.
         12    1    1    2    0    0  0.16131817759E+02 -0.14557278653E+02 -0.39458377525E+02  0.45045681956E+02  0.00000000000E+00 0. -1.
         11    1    3    3    0    0 -0.30606155217E+01 -0.25155410884E+00  0.34722765043E+01  0.46354450946E+01  0.51100000000E-03 0. -1.
        -11    1    3    3    0    0 -0.11117099201E+02  0.10806761417E+02  0.31875972018E+02  0.35446488956E+02  0.51100000000E-03 0.  1.
         12    1    3    3    0    0 -0.19541030356E+01  0.40020713456E+01  0.41101290022E+01  0.60603839930E+01  0.00000000000E+00 0. -1.
</event>
<event>
 7    1  0.1541902E-008  0.4614232E+02  0.7816164E-02  0.1320468E+00
        -11   -1    0    0    0    0  0.00000000000E+00  0.00000000000E+00  0.45593999997E+02  0.45594000000E+02  0.51100000000E-03 0.  1.
         11   -1    0    0    0    0 -0.00000000000E+00 -0.00000000000E+00 -0.45593999997E+02  0.45594000000E+02  0.51100000000E-03 0. -1.
    9900012    2    1    2    0    0 -0.19956776958E+02  0.18258245692E+02  0.36020508584E+02  0.46142317400E+02  0.99999967045E+01 0.  0.
         12    1    1    2    0    0  0.19956776958E+02 -0.18258245692E+02 -0.36020508584E+02  0.45045682600E+02  0.00000000000E+00 0. -1.
         11    1    3    3    0    0 -0.19674674777E+02  0.16648859652E+02  0.35210516349E+02  0.43635510964E+02  0.51100000000E-03 0.  1.
        -11    1    3    3    0    0  0.43185567921E+00 -0.75701775315E-01  0.47479217636E+00  0.64626461941E+00  0.51100000000E-03 0. -1.
        -12    1    3    3    0    0 -0.71395786007E+00  0.16850878153E+01  0.33520005896E+00  0.18605418164E+01  0.00000000000E+00 0.  1.
</event>
<event>
 7    1  0.1541902E-008  0.4614232E+02  0.7816164E-02  0.1320468E+00
        -11   -1    0    0    0    0  0.00000000000E+00  0.00000000000E+00  0.45593999997E+02  0.45594000000E+02  0.51100000000E-03 0. -1.
         11   -1    0    0    0    0 -0.00000000000E+00 -0.00000000000E+00 -0.45593999997E+02  0.45594000000E+02  0.51100000000E-03 0.  1.
    9900012    2    1    2    0    0 -0.40450523846E+02  0.82202794198E+01 -0.18035957882E+02  0.46142315969E+02  0.99999836553E+01 0.  0.
         12    1    1    2    0    0  0.40450523846E+02 -0.82202794198E+01  0.18035957882E+02  0.45045684031E+02  0.00000000000E+00 0. -1.
         11    1    3    3    0    0 -0.57187255098E+01 -0.14395154237E+01 -0.76200723712E+00  0.59461484510E+01  0.51100000000E-03 0. -1.
        -11    1    3    3    0    0 -0.28638101295E+02  0.78752057813E+01 -0.12373861843E+02  0.32175645589E+02  0.51100000000E-03 0.  1.
         12    1    3    3    0    0 -0.60936970410E+01  0.17845890622E+01 -0.49000888018E+01  0.80205219291E+01  0.00000000000E+00 0. -1.
</event>
<event>
 7    1  0.1541902E-008  0.4614231E+02  0.7816164E-02  0.1320468E+00
        -11   -1    0    0    0    0  0.00000000000E+00  0.00000000000E+00  0.45593999997E+02  0.45594000000E+02  0.51100000000E-03 0.  1.
         11   -1    0    0    0    0 -0.00000000000E+00 -0.00000000000E+00 -0.45593999997E+02  0.45594000000E+02  0.51100000000E-03 0. -1.
    9900012    2    1    2    0    0  0.25811924780E+02 -0.18207577870E+02  0.32114523071E+02  0.46142312695E+02  0.99999538014E+01 0.  0.
         12    1    1    2    0    0 -0.25811924780E+02  0.18207577870E+02 -0.32114523071E+02  0.45045687305E+02  0.00000000000E+00 0. -1.
         11    1    3    3    0    0  0.11693736746E+02 -0.11117168169E+02  0.11477156830E+02  0.19800505962E+02  0.51100000000E-03 0. -1.
        -11    1    3    3    0    0  0.34633399804E+01  0.17598333294E+00  0.46649389042E+01  0.58126886373E+01  0.51100000000E-03 0.  1.
        -12    1    3    3    0    0  0.10654848053E+02 -0.72663930333E+01  0.15972427336E+02  0.20529118095E+02  0.00000000000E+00 0.  1.
</event>
<event>
 7    1  0.1541902E-008  0.4614232E+02  0.7816164E-02  0.1320468E+00
        -11   -1    0    0    0    0  0.00000000000E+00  0.00000000000E+00  0.45593999997E+02  0.45594000000E+02  0.51100000000E-03 0.  1.
         11   -1    0    0    0    0 -0.00000000000E+00 -0.00000000000E+00 -0.45593999997E+02  0.45594000000E+02  0.51100000000E-03 0. -1.
    9900012    2    1    2    0    0 -0.18293495017E+02  0.14546648468E+02  0.38507876829E+02  0.46142317416E+02  0.99999968524E+01 0.  0.
         12    1    1    2    0    0  0.18293495017E+02 -0.14546648468E+02 -0.38507876829E+02  0.45045682584E+02  0.00000000000E+00 0. -1.
         11    1    3    3    0    0 -0.43687933021E+01  0.67635890893E+01  0.15074419944E+02  0.17090073996E+02  0.51100000000E-03 0. -1.
        -11    1    3    3    0    0 -0.52942224379E+01  0.55311667454E+00  0.11351969419E+02  0.12538019749E+02  0.51100000000E-03 0.  1.
        -12    1    3    3    0    0 -0.86304792772E+01  0.72299427040E+01  0.12081487466E+02  0.16514223671E+02  0.00000000000E+00 0.  1.
</event>
<event>
 7    1  0.1541902E-008  0.4614232E+02  0.7816164E-02  0.1320468E+00
        -11   -1    0    0    0    0  0.00000000000E+00  0.00000000000E+00  0.45593999997E+02  0.45594000000E+02  0.51100000000E-03 0.  1.
         11   -1    0    0    0    0 -0.00000000000E+00 -0.00000000000E+00 -0.45593999997E+02  0.45594000000E+02  0.51100000000E-03 0. -1.
    9900012    2    1    2    0    0  0.38149027953E+02  0.18902762988E+01  0.23878694191E+02  0.46142317471E+02  0.99999973563E+01 0.  0.
         12    1    1    2    0    0 -0.38149027953E+02 -0.18902762988E+01 -0.23878694191E+02  0.45045682529E+02  0.00000000000E+00 0. -1.
         11    1    3    3    0    0  0.24119122990E+02 -0.24671281975E+01  0.17523716765E+02  0.29914870296E+02  0.51100000000E-03 0. -1.
        -11    1    3    3    0    0  0.10395939423E+02  0.31188071639E+01  0.33715876468E+01  0.11365303257E+02  0.51100000000E-03 0.  1.
         12    1    3    3    0    0  0.36339655401E+01  0.12385973325E+01  0.29833897797E+01  0.48621439177E+01  0.00000000000E+00 0. -1.
</event>
<event>
 7    1  0.1541902E-008  0.4614232E+02  0.7816164E-02  0.1320468E+00
        -11   -1    0    0    0    0  0.00000000000E+00  0.00000000000E+00  0.45593999997E+02  0.45594000000E+02  0.51100000000E-03 0.  1.
         11   -1    0    0    0    0 -0.00000000000E+00 -0.00000000000E+00 -0.45593999997E+02  0.45594000000E+02  0.51100000000E-03 0. -1.
    9900012    2    1    2    0    0  0.63707316296E+01  0.37697722304E+02  0.23820347716E+02  0.46142318146E+02  0.10000003510E+02 0.  0.
         12    1    1    2    0    0 -0.63707316296E+01 -0.37697722304E+02 -0.23820347716E+02  0.45045681854E+02  0.00000000000E+00 0. -1.
         11    1    3    3    0    0  0.19959298701E+01  0.19204640021E+02  0.10735232223E+02  0.22091789098E+02  0.51100000000E-03 0. -1.
        -11    1    3    3    0    0  0.46937829678E+01  0.60406650957E+01  0.59821137387E+01  0.97111749233E+01  0.51100000000E-03 0.  1.
        -12    1    3    3    0    0 -0.31898120836E+00  0.12452417187E+02  0.71030017536E+01  0.14339354125E+02  0.00000000000E+00 0.  1.
</event>
<event>
 7    1  0.1541902E-008  0.4614232E+02  0.7816164E-02  0.1320468E+00
        -11   -1    0    0    0    0  0.00000000000E+00  0.00000000000E+00  0.45593999997E+02  0.45594000000E+02  0.51100000000E-03 0. -1.
         11   -1    0    0    0    0 -0.00000000000E+00 -0.00000000000E+00 -0.45593999997E+02  0.45594000000E+02  0.51100000000E-03 0.  1.
    9900012    2    1    2    0    0 -0.33763424232E+02 -0.21667687340E+02  0.20485504759E+02  0.46142318789E+02  0.10000009377E+02 0.  0.
         12    1    1    2    0    0  0.33763424232E+02  0.21667687340E+02 -0.20485504759E+02  0.45045681211E+02  0.00000000000E+00 0. -1.
         11    1    3    3    0    0 -0.88343703212E+01 -0.40175570263E+01  0.74444251696E+00  0.97335018546E+01  0.51100000000E-03 0. -1.
        -11    1    3    3    0    0 -0.28761965666E+01 -0.25508169045E+01  0.29431800681E+01  0.48416405014E+01  0.51100000000E-03 0.  1.
         12    1    3    3    0    0 -0.22052857344E+02 -0.15099313409E+02  0.16797882174E+02  0.31567176433E+02  0.00000000000E+00 0. -1.
</event>
<event>
 7    1  0.1541902E-008  0.4614232E+02  0.7816164E-02  0.1320468E+00
        -11   -1    0    0    0    0  0.00000000000E+00  0.00000000000E+00  0.45593999997E+02  0.45594000000E+02  0.51100000000E-03 0. -1.
         11   -1    0    0    0    0 -0.00000000000E+00 -0.00000000000E+00 -0.45593999997E+02  0.45594000000E+02  0.51100000000E-03 0.  1.
    9900012    2    1    2    0    0 -0.33270506373E+02 -0.26123603409E+02 -0.15483674016E+02  0.46142318626E+02  0.10000007888E+02 0.  0.
         12    1    1    2    0    0  0.33270506373E+02  0.26123603409E+02  0.15483674016E+02  0.45045681374E+02  0.00000000000E+00 0. -1.
         11    1    3    3    0    0 -0.50439247206E+01 -0.29303693807E+01  0.91756380489E+00  0.59050965184E+01  0.51100000000E-03 0. -1.
        -11    1    3    3    0    0 -0.15952415994E+02 -0.14866063137E+02 -0.11244906801E+02  0.24534207517E+02  0.51100000000E-03 0.  1.
         12    1    3    3    0    0 -0.12274165658E+02 -0.83271708913E+01 -0.51563310202E+01  0.15703014591E+02  0.00000000000E+00 0. -1.
</event>
<event>
 7    1  0.1541902E-008  0.4614232E+02  0.7816164E-02  0.1320468E+00
        -11   -1    0    0    0    0  0.00000000000E+00  0.00000000000E+00  0.45593999997E+02  0.45594000000E+02  0.51100000000E-03 0.  1.
         11   -1    0    0    0    0 -0.00000000000E+00 -0.00000000000E+00 -0.45593999997E+02  0.45594000000E+02  0.51100000000E-03 0. -1.
    9900012    2    1    2    0    0 -0.15618686345E+02 -0.23786065250E+02  0.34919811172E+02  0.46142317904E+02  0.10000001300E+02 0.  0.
         12    1    1    2    0    0  0.15618686345E+02  0.23786065250E+02 -0.34919811172E+02  0.45045682096E+02  0.00000000000E+00 0. -1.
         11    1    3    3    0    0 -0.25139479704E+01 -0.41153613397E+00  0.93746367217E+00  0.27144308400E+01  0.51100000000E-03 0. -1.
        -11    1    3    3    0    0 -0.41913123734E+00 -0.21098659946E+01  0.40096385377E+01  0.45502095527E+01  0.51100000000E-03 0.  1.
         12    1    3    3    0    0 -0.12685607137E+02 -0.21264663122E+02  0.29972708962E+02  0.38877677511E+02  0.00000000000E+00 0. -1.
</event>
<event>
 7    1  0.1541902E-008  0.4614232E+02  0.7816164E-02  0.1320468E+00
        -11   -1    0    0    0    0  0.00000000000E+00  0.00000000000E+00  0.45593999997E+02  0.45594000000E+02  0.51100000000E-03 0.  1.
         11   -1    0    0    0    0 -0.00000000000E+00 -0.00000000000E+00 -0.45593999997E+02  0.45594000000E+02  0.51100000000E-03 0. -1.
    9900012    2    1    2    0    0 -0.13047403641E+02  0.30661897855E+02  0.30310505868E+02  0.46142317767E+02  0.10000000052E+02 0.  0.
         12    1    1    2    0    0  0.13047403641E+02 -0.30661897855E+02 -0.30310505868E+02  0.45045682233E+02  0.00000000000E+00 0. -1.
         11    1    3    3    0    0 -0.32836566010E+01  0.92997512521E+00  0.23376832145E+01  0.41366674364E+01  0.51100000000E-03 0. -1.
        -11    1    3    3    0    0 -0.46335511242E+01  0.15400626879E+02  0.13415940621E+02  0.20943652195E+02  0.51100000000E-03 0.  1.
         12    1    3    3    0    0 -0.51301959156E+01  0.14331295851E+02  0.14556882033E+02  0.21061998135E+02  0.00000000000E+00 0. -1.
</event>
<event>
 7    1  0.1541902E-008  0.4614232E+02  0.7816164E-02  0.1320468E+00
        -11   -1    0    0    0    0  0.00000000000E+00  0.00000000000E+00  0.45593999997E+02  0.45594000000E+02  0.51100000000E-03 0.  1.
         11   -1    0    0    0    0 -0.00000000000E+00 -0.00000000000E+00 -0.45593999997E+02  0.45594000000E+02  0.51100000000E-03 0. -1.
    9900012    2    1    2    0    0 -0.30365111228E+02  0.23046378426E+02  0.23998706816E+02  0.46142317995E+02  0.10000002137E+02 0.  0.
         12    1    1    2    0    0  0.30365111228E+02 -0.23046378426E+02 -0.23998706816E+02  0.45045682005E+02  0.00000000000E+00 0. -1.
         11    1    3    3    0    0 -0.41329301099E+01  0.40108959782E-01  0.20611752031E+01  0.46185672563E+01  0.51100000000E-03 0. -1.
        -11    1    3    3    0    0 -0.24577123348E+02  0.21613215217E+02  0.18897592436E+02  0.37792658867E+02  0.51100000000E-03 0.  1.
        -12    1    3    3    0    0 -0.16550577702E+01  0.13930542487E+01  0.30399391763E+01  0.37310918722E+01  0.00000000000E+00 0.  1.
</event>
<event>
 7    1  0.1541902E-008  0.4614231E+02  0.7816164E-02  0.1320468E+00
        -11   -1    0    0    0    0  0.00000000000E+00  0.00000000000E+00  0.45593999997E+02  0.45594000000E+02  0.51100000000E-03 0. -1.
         11   -1    0    0    0    0 -0.00000000000E+00 -0.00000000000E+00 -0.45593999997E+02  0.45594000000E+02  0.51100000000E-03 0.  1.
    9900012    2    1    2    0    0 -0.54715472878E+01  0.44260679865E+02  0.63378682899E+01  0.46142310014E+02  0.99999293586E+01 0.  0.
         12    1    1    2    0    0  0.54715472878E+01 -0.44260679865E+02 -0.63378682899E+01  0.45045689986E+02  0.00000000000E+00 0. -1.
         11    1    3    3    0    0 -0.45541352672E+01  0.19464189468E+02  0.65042046915E+01  0.21021405724E+02  0.51100000000E-03 0.  1.
        -11    1    3    3    0    0 -0.60194488256E+00  0.27572329509E+01  0.11330302825E+01  0.30411229948E+01  0.51100000000E-03 0. -1.
         12    1    3    3    0    0 -0.31546713803E+00  0.22039257446E+02 -0.12993666840E+01  0.22079781296E+02  0.00000000000E+00 0. -1.
</event>
<event>
 7    1  0.1541902E-008  0.4614232E+02  0.7816164E-02  0.1320468E+00
        -11   -1    0    0    0    0  0.00000000000E+00  0.00000000000E+00  0.45593999997E+02  0.45594000000E+02  0.51100000000E-03 0.  1.
         11   -1    0    0    0    0 -0.00000000000E+00 -0.00000000000E+00 -0.45593999997E+02  0.45594000000E+02  0.51100000000E-03 0. -1.
    9900012    2    1    2    0    0 -0.81672270432E+01  0.10833955601E+02  0.42953874761E+02  0.46142317093E+02  0.99999939089E+01 0.  0.
         12    1    1    2    0    0  0.81672270432E+01 -0.10833955601E+02 -0.42953874761E+02  0.45045682907E+02  0.00000000000E+00 0. -1.
         11    1    3    3    0    0 -0.63471352625E+01  0.43812626487E+01  0.15954177092E+02  0.17720534850E+02  0.51100000000E-03 0. -1.
        -11    1    3    3    0    0  0.96238332708E+00  0.58027943586E+01  0.20376820373E+02  0.21208805077E+02  0.51100000000E-03 0.  1.
        -12    1    3    3    0    0 -0.27824751078E+01  0.64989859386E+00  0.66228772966E+01  0.72129771658E+01  0.00000000000E+00 0.  1.
</event>
<event>
 7    1  0.1541902E-008  0.4614232E+02  0.7816164E-02  0.1320468E+00
        -11   -1    0    0    0    0  0.00000000000E+00  0.00000000000E+00  0.45593999997E+02  0.45594000000E+02  0.51100000000E-03 0.  1.
         11   -1    0    0    0    0 -0.00000000000E+00 -0.00000000000E+00 -0.45593999997E+02  0.45594000000E+02  0.51100000000E-03 0. -1.
    9900012    2    1    2    0    0  0.11811661384E+02 -0.19309681294E+01  0.43426597872E+02  0.46142318905E+02  0.10000010428E+02 0.  0.
         12    1    1    2    0    0 -0.11811661384E+02  0.19309681294E+01 -0.43426597872E+02  0.45045681095E+02  0.00000000000E+00 0. -1.
         11    1    3    3    0    0  0.58069391410E+00  0.41637435025E+00  0.29136381029E+00  0.77166453364E+00  0.51100000000E-03 0. -1.
        -11    1    3    3    0    0  0.89225452717E+01  0.17578612215E+01  0.24023594725E+02  0.25687253531E+02  0.51100000000E-03 0.  1.
        -12    1    3    3    0    0  0.23084221979E+01 -0.41052037011E+01  0.19111639338E+02  0.19683400840E+02  0.00000000000E+00 0.  1.
</event>
<event>
 7    1  0.1541902E-008  0.4614232E+02  0.7816164E-02  0.1320468E+00
        -11   -1    0    0    0    0  0.00000000000E+00  0.00000000000E+00  0.45593999997E+02  0.45594000000E+02  0.51100000000E-03 0. -1.
         11   -1    0    0    0    0 -0.00000000000E+00 -0.00000000000E+00 -0.45593999997E+02  0.45594000000E+02  0.51100000000E-03 0.  1.
    9900012    2    1    2    0    0 -0.30190911787E+02 -0.32571566822E+02 -0.75309559251E+01  0.46142318554E+02  0.10000007229E+02 0.  0.
         12    1    1    2    0    0  0.30190911787E+02  0.32571566822E+02  0.75309559251E+01  0.45045681446E+02  0.00000000000E+00 0. -1.
         11    1    3    3    0    0 -0.24687023724E+00 -0.24946531191E+01 -0.16521991029E+01  0.30023326324E+01  0.51100000000E-03 0. -1.
        -11    1    3    3    0    0 -0.27718896474E+02 -0.28527987240E+02 -0.43146556170E+01  0.40009992890E+02  0.51100000000E-03 0.  1.
        -12    1    3    3    0    0 -0.22251450763E+01 -0.15489264633E+01 -0.15641012052E+01  0.31299930318E+01  0.00000000000E+00 0.  1.
</event>
<event>
 7    1  0.1541902E-008  0.4614232E+02  0.7816164E-02  0.1320468E+00
        -11   -1    0    0    0    0  0.00000000000E+00  0.00000000000E+00  0.45593999997E+02  0.45594000000E+02  0.51100000000E-03 0. -1.
         11   -1    0    0    0    0 -0.00000000000E+00 -0.00000000000E+00 -0.45593999997E+02  0.45594000000E+02  0.51100000000E-03 0.  1.
    9900012    2    1    2    0    0  0.42499868256E+02  0.75466583440E+01 -0.12881095247E+02  0.46142317980E+02  0.10000001993E+02 0.  0.
         12    1    1    2    0    0 -0.42499868256E+02 -0.75466583440E+01  0.12881095247E+02  0.45045682020E+02  0.00000000000E+00 0. -1.
         11    1    3    3    0    0  0.23540984733E+02  0.52649904007E+01 -0.28821889441E+01  0.24294137143E+02  0.51100000000E-03 0. -1.
        -11    1    3    3    0    0  0.18498809319E+02  0.28254985927E+01 -0.96507685924E+01  0.21055325293E+02  0.51100000000E-03 0.  1.
         12    1    3    3    0    0  0.46007420356E+00 -0.54383064947E+00 -0.34813771025E+00  0.79285554383E+00  0.00000000000E+00 0. -1.
</event>
<event>
 7    1  0.1541902E-008  0.4614231E+02  0.7816164E-02  0.1320468E+00
        -11   -1    0    0    0    0  0.00000000000E+00  0.00000000000E+00  0.45593999997E+02  0.45594000000E+02  0.51100000000E-03 0.  1.
         11   -1    0    0    0    0 -0.00000000000E+00 -0.00000000000E+00 -0.45593999997E+02  0.45594000000E+02  0.51100000000E-03 0. -1.
    9900012    2    1    2    0    0 -0.44792737358E+01 -0.19452631869E+02  0.40381246462E+02  0.46142313795E+02  0.99999638347E+01 0.  0.
         12    1    1    2    0    0  0.44792737358E+01  0.19452631869E+02 -0.40381246462E+02  0.45045686205E+02  0.00000000000E+00 0. -1.
         11    1    3    3    0    0 -0.11252958963E+01 -0.72248316182E+01  0.80936152493E+01  0.10907386985E+02  0.51100000000E-03 0. -1.
        -11    1    3    3    0    0 -0.70255482052E+00 -0.80651938573E+01  0.26061580280E+02  0.27290051341E+02  0.51100000000E-03 0.  1.
        -12    1    3    3    0    0 -0.26514230190E+01 -0.41626063931E+01  0.62260509332E+01  0.79448754699E+01  0.00000000000E+00 0.  1.
</event>
<event>
 7    1  0.1541902E-008  0.4614232E+02  0.7816164E-02  0.1320468E+00
        -11   -1    0    0    0    0  0.00000000000E+00  0.00000000000E+00  0.45593999997E+02  0.45594000000E+02  0.51100000000E-03 0.  1.
         11   -1    0    0    0    0 -0.00000000000E+00 -0.00000000000E+00 -0.45593999997E+02  0.45594000000E+02  0.51100000000E-03 0. -1.
    9900012    2    1    2    0    0 -0.10854856578E+02  0.37534494989E+01  0.43556827224E+02  0.46142317717E+02  0.99999995975E+01 0.  0.
         12    1    1    2    0    0  0.10854856578E+02 -0.37534494989E+01 -0.43556827224E+02  0.45045682283E+02  0.00000000000E+00 0. -1.
         11    1    3    3    0    0  0.18106360968E+00  0.46281057742E+00  0.16676930212E+01  0.17401660655E+01  0.51100000000E-03 0. -1.
        -11    1    3    3    0    0 -0.14549735225E+01  0.43546724826E+01  0.86448658881E+01  0.97884537526E+01  0.51100000000E-03 0.  1.
        -12    1    3    3    0    0 -0.95809466656E+01 -0.10640335610E+01  0.33244268315E+02  0.34613697899E+02  0.00000000000E+00 0.  1.
</event>
<event>
 7    1  0.1541902E-008  0.4614232E+02  0.7816164E-02  0.1320468E+00
        -11   -1    0    0    0    0  0.00000000000E+00  0.00000000000E+00  0.45593999997E+02  0.45594000000E+02  0.51100000000E-03 0.  1.
         11   -1    0    0    0    0 -0.00000000000E+00 -0.00000000000E+00 -0.45593999997E+02  0.45594000000E+02  0.51100000000E-03 0. -1.
    9900012    2    1    2    0    0 -0.25829486861E+02  0.27889333943E+02  0.24168909736E+02  0.46142317220E+02  0.99999950652E+01 0.  0.
         12    1    1    2    0    0  0.25829486861E+02 -0.27889333943E+02 -0.24168909736E+02  0.45045682780E+02  0.00000000000E+00 0. -1.
         11    1    3    3    0    0 -0.60137813977E+01  0.86824652982E+01  0.54339631222E+01  0.11877656580E+02  0.51100000000E-03 0. -1.
        -11    1    3    3    0    0 -0.14186222525E+02  0.87061075000E+01  0.12511294147E+02  0.20822528636E+02  0.51100000000E-03 0.  1.
        -12    1    3    3    0    0 -0.56294829389E+01  0.10500761145E+02  0.62236524672E+01  0.13442132004E+02  0.00000000000E+00 0.  1.
</event>
<event>
 7    1  0.1541902E-008  0.4614232E+02  0.7816164E-02  0.1320468E+00
        -11   -1    0    0    0    0  0.00000000000E+00  0.00000000000E+00  0.45593999997E+02  0.45594000000E+02  0.51100000000E-03 0.  1.
         11   -1    0    0    0    0 -0.00000000000E+00 -0.00000000000E+00 -0.45593999997E+02  0.45594000000E+02  0.51100000000E-03 0. -1.
    9900012    2    1    2    0    0 -0.29821577606E+02 -0.33729218369E+02 -0.14583585169E+01  0.46142317940E+02  0.10000001634E+02 0.  0.
         12    1    1    2    0    0  0.29821577606E+02  0.33729218369E+02  0.14583585169E+01  0.45045682060E+02  0.00000000000E+00 0. -1.
         11    1    3    3    0    0 -0.13104822995E+02 -0.12266800355E+02 -0.36601352590E+01  0.18319589708E+02  0.51100000000E-03 0. -1.
        -11    1    3    3    0    0 -0.67470683656E+01 -0.10890184803E+02  0.33626176590E+01  0.13244857657E+02  0.51100000000E-03 0.  1.
        -12    1    3    3    0    0 -0.99696862455E+01 -0.10572233211E+02 -0.11608409170E+01  0.14577870576E+02  0.00000000000E+00 0.  1.
</event>
<event>
 7    1  0.1541902E-008  0.4614232E+02  0.7816164E-02  0.1320468E+00
        -11   -1    0    0    0    0  0.00000000000E+00  0.00000000000E+00  0.45593999997E+02  0.45594000000E+02  0.51100000000E-03 0. -1.
         11   -1    0    0    0    0 -0.00000000000E+00 -0.00000000000E+00 -0.45593999997E+02  0.45594000000E+02  0.51100000000E-03 0.  1.
    9900012    2    1    2    0    0 -0.31775283523E+02 -0.18091312660E+02 -0.26308727008E+02  0.46142319258E+02  0.10000013650E+02 0.  0.
         12    1    1    2    0    0  0.31775283523E+02  0.18091312660E+02  0.26308727008E+02  0.45045680742E+02  0.00000000000E+00 0. -1.
         11    1    3    3    0    0 -0.49764337050E+01 -0.11816749258E+01 -0.25691002605E+01  0.57237683794E+01  0.51100000000E-03 0. -1.
        -11    1    3    3    0    0 -0.39516926264E+01  0.37300642146E+00 -0.39536909131E+01  0.56023816811E+01  0.51100000000E-03 0.  1.
        -12    1    3    3    0    0 -0.22847157191E+02 -0.17282644156E+02 -0.19785935835E+02  0.34816169198E+02  0.00000000000E+00 0.  1.
</event>
<event>
 7    1  0.1541902E-008  0.4614232E+02  0.7816164E-02  0.1320468E+00
        -11   -1    0    0    0    0  0.00000000000E+00  0.00000000000E+00  0.45593999997E+02  0.45594000000E+02  0.51100000000E-03 0.  1.
         11   -1    0    0    0    0 -0.00000000000E+00 -0.00000000000E+00 -0.45593999997E+02  0.45594000000E+02  0.51100000000E-03 0. -1.
    9900012    2    1    2    0    0  0.36358135678E+02 -0.83378448856E+01  0.25252322533E+02  0.46142317847E+02  0.10000000779E+02 0.  0.
         12    1    1    2    0    0 -0.36358135678E+02  0.83378448856E+01 -0.25252322533E+02  0.45045682153E+02  0.00000000000E+00 0. -1.
         11    1    3    3    0    0  0.67982841580E+01  0.10548059954E+01  0.66864173847E+01  0.95936156314E+01  0.51100000000E-03 0. -1.
        -11    1    3    3    0    0  0.24393050517E+02 -0.59067447253E+01  0.16251027306E+02  0.29899940393E+02  0.51100000000E-03 0.  1.
        -12    1    3    3    0    0  0.51668010033E+01 -0.34859061557E+01  0.23148778430E+01  0.66487618217E+01  0.00000000000E+00 0.  1.
</event>
<event>
 7    1  0.1541902E-008  0.4614232E+02  0.7816164E-02  0.1320468E+00
        -11   -1    0    0    0    0  0.00000000000E+00  0.00000000000E+00  0.45593999997E+02  0.45594000000E+02  0.51100000000E-03 0.  1.
         11   -1    0    0    0    0 -0.00000000000E+00 -0.00000000000E+00 -0.45593999997E+02  0.45594000000E+02  0.51100000000E-03 0. -1.
    9900012    2    1    2    0    0  0.14831825746E+02  0.12870359940E+02  0.40539909449E+02  0.46142317876E+02  0.10000001043E+02 0.  0.
         12    1    1    2    0    0 -0.14831825746E+02 -0.12870359940E+02 -0.40539909449E+02  0.45045682124E+02  0.00000000000E+00 0. -1.
         11    1    3    3    0    0 -0.99538549506E+00 -0.58058199003E+00  0.32325734520E+01  0.34318215447E+01  0.51100000000E-03 0. -1.
        -11    1    3    3    0    0  0.14336723266E+02  0.11832846936E+02  0.33100412304E+02  0.37963076740E+02  0.51100000000E-03 0.  1.
         12    1    3    3    0    0  0.14904879747E+01  0.16180949941E+01  0.42069236926E+01  0.47474195905E+01  0.00000000000E+00 0. -1.
</event>
<event>
 7    1  0.1541902E-008  0.4614232E+02  0.7816164E-02  0.1320468E+00
        -11   -1    0    0    0    0  0.00000000000E+00  0.00000000000E+00  0.45593999997E+02  0.45594000000E+02  0.51100000000E-03 0.  1.
         11   -1    0    0    0    0 -0.00000000000E+00 -0.00000000000E+00 -0.45593999997E+02  0.45594000000E+02  0.51100000000E-03 0. -1.
    9900012    2    1    2    0    0 -0.22986105561E+02  0.30121847438E+02  0.24360355646E+02  0.46142315754E+02  0.99999817009E+01 0.  0.
         12    1    1    2    0    0  0.22986105561E+02 -0.30121847438E+02 -0.24360355646E+02  0.45045684246E+02  0.00000000000E+00 0. -1.
         11    1    3    3    0    0 -0.37482724602E+01  0.23502397789E+01  0.51238815512E+01  0.67695890471E+01  0.51100000000E-03 0. -1.
        -11    1    3    3    0    0 -0.12234712850E+02  0.21297721572E+02  0.11641465071E+02  0.27180964882E+02  0.51100000000E-03 0.  1.
        -12    1    3    3    0    0 -0.70031202511E+01  0.64738860871E+01  0.75950090240E+01  0.12191761825E+02  0.00000000000E+00 0.  1.
</event>
<event>
 7    1  0.1541902E-008  0.4614231E+02  0.7816164E-02  0.1320468E+00
        -11   -1    0    0    0    0  0.00000000000E+00  0.00000000000E+00  0.45593999997E+02  0.45594000000E+02  0.51100000000E-03 0.  1.
         11   -1    0    0    0    0 -0.00000000000E+00 -0.00000000000E+00 -0.45593999997E+02  0.45594000000E+02  0.51100000000E-03 0. -1.
    9900012    2    1    2    0    0  0.24279113671E+02  0.31500191081E+02  0.21151292684E+02  0.46142305633E+02  0.99998894098E+01 0.  0.
         12    1    1    2    0    0 -0.24279113671E+02 -0.31500191081E+02 -0.21151292684E+02  0.45045694367E+02  0.00000000000E+00 0. -1.
         11    1    3    3    0    0  0.41173551289E+00  0.28084534397E+00 -0.67641368546E+00  0.84019996120E+00  0.51100000000E-03 0. -1.
        -11    1    3    3    0    0  0.19941100033E+02  0.28716134671E+02  0.18303338036E+02  0.39462337038E+02  0.51100000000E-03 0.  1.
         12    1    3    3    0    0  0.39262781253E+01  0.25032110659E+01  0.35243683332E+01  0.58397686346E+01  0.00000000000E+00 0. -1.
</event>
<event>
 7    1  0.1541902E-008  0.4614232E+02  0.7816164E-02  0.1320468E+00
        -11   -1    0    0    0    0  0.00000000000E+00  0.00000000000E+00  0.45593999997E+02  0.45594000000E+02  0.51100000000E-03 0.  1.
         11   -1    0    0    0    0 -0.00000000000E+00 -0.00000000000E+00 -0.45593999997E+02  0.45594000000E+02  0.51100000000E-03 0. -1.
    9900012    2    1    2    0    0  0.77331461709E+01  0.37945453328E+01  0.44214402955E+02  0.46142317047E+02  0.99999934898E+01 0.  0.
         12    1    1    2    0    0 -0.77331461709E+01 -0.37945453328E+01 -0.44214402955E+02  0.45045682953E+02  0.00000000000E+00 0. -1.
         11    1    3    3    0    0  0.50581846463E+00  0.12953250854E+01  0.17703706293E+02  0.17758235727E+02  0.51100000000E-03 0. -1.
        -11    1    3    3    0    0  0.36415559374E+01 -0.19238224530E+01  0.14802284847E+02  0.15364558550E+02  0.51100000000E-03 0.  1.
        -12    1    3    3    0    0  0.35857717689E+01  0.44230427004E+01  0.11708411815E+02  0.13019522770E+02  0.00000000000E+00 0.  1.
</event>
<event>
 7    1  0.1541902E-008  0.4614231E+02  0.7816164E-02  0.1320468E+00
        -11   -1    0    0    0    0  0.00000000000E+00  0.00000000000E+00  0.45593999997E+02  0.45594000000E+02  0.51100000000E-03 0. -1.
         11   -1    0    0    0    0 -0.00000000000E+00 -0.00000000000E+00 -0.45593999997E+02  0.45594000000E+02  0.51100000000E-03 0.  1.
    9900012    2    1    2    0    0 -0.25768422717E+02  0.35546837952E+02  0.10075946039E+02  0.46142312234E+02  0.99999495999E+01 0.  0.
         12    1    1    2    0    0  0.25768422717E+02 -0.35546837952E+02 -0.10075946039E+02  0.45045687766E+02  0.00000000000E+00 0. -1.
         11    1    3    3    0    0 -0.77320986726E+01  0.10312580124E+02  0.75668991829E+01  0.14946324705E+02  0.51100000000E-03 0. -1.
        -11    1    3    3    0    0 -0.12689080365E+02  0.18623418930E+02  0.97868768097E+00  0.22556646980E+02  0.51100000000E-03 0.  1.
         12    1    3    3    0    0 -0.53472436793E+01  0.66108388987E+01  0.15303591749E+01  0.86393405487E+01  0.00000000000E+00 0. -1.
</event>
<event>
 7    1  0.1541902E-008  0.4614232E+02  0.7816164E-02  0.1320468E+00
        -11   -1    0    0    0    0  0.00000000000E+00  0.00000000000E+00  0.45593999997E+02  0.45594000000E+02  0.51100000000E-03 0.  1.
         11   -1    0    0    0    0 -0.00000000000E+00 -0.00000000000E+00 -0.45593999997E+02  0.45594000000E+02  0.51100000000E-03 0. -1.
    9900012    2    1    2    0    0  0.22412713559E+02  0.50139830050E+01  0.38751048655E+02  0.46142317338E+02  0.99999961391E+01 0.  0.
         12    1    1    2    0    0 -0.22412713559E+02 -0.50139830050E+01 -0.38751048655E+02  0.45045682662E+02  0.00000000000E+00 0. -1.
         11    1    3    3    0    0  0.41717925703E+01  0.35506618635E+01  0.58427543318E+01  0.80092965585E+01  0.51100000000E-03 0. -1.
        -11    1    3    3    0    0  0.93348951902E+01 -0.10995951867E+01  0.21280324346E+02  0.23263739646E+02  0.51100000000E-03 0.  1.
        -12    1    3    3    0    0  0.89060257985E+01  0.25629163282E+01  0.11627969977E+02  0.14869281133E+02  0.00000000000E+00 0.  1.
</event>
<event>
 7    1  0.1541902E-008  0.4614232E+02  0.7816164E-02  0.1320468E+00
        -11   -1    0    0    0    0  0.00000000000E+00  0.00000000000E+00  0.45593999997E+02  0.45594000000E+02  0.51100000000E-03 0. -1.
         11   -1    0    0    0    0 -0.00000000000E+00 -0.00000000000E+00 -0.45593999997E+02  0.45594000000E+02  0.51100000000E-03 0.  1.
    9900012    2    1    2    0    0  0.23831517116E+02  0.23737795578E+02 -0.29961464496E+02  0.46142317614E+02  0.99999986547E+01 0.  0.
         12    1    1    2    0    0 -0.23831517116E+02 -0.23737795578E+02  0.29961464496E+02  0.45045682386E+02  0.00000000000E+00 0. -1.
         11    1    3    3    0    0  0.28739468572E-01  0.19034626081E+01 -0.34536063476E+01  0.39435254434E+01  0.51100000000E-03 0. -1.
        -11    1    3    3    0    0  0.16555087971E+02  0.17999057465E+02 -0.17866364888E+02  0.30286036418E+02  0.51100000000E-03 0.  1.
         12    1    3    3    0    0  0.72476896767E+01  0.38352755047E+01 -0.86414932603E+01  0.11912755752E+02  0.00000000000E+00 0. -1.
</event>
<event>
 7    1  0.1541902E-008  0.4614231E+02  0.7816164E-02  0.1320468E+00
        -11   -1    0    0    0    0  0.00000000000E+00  0.00000000000E+00  0.45593999997E+02  0.45594000000E+02  0.51100000000E-03 0.  1.
         11   -1    0    0    0    0 -0.00000000000E+00 -0.00000000000E+00 -0.45593999997E+02  0.45594000000E+02  0.51100000000E-03 0. -1.
    9900012    2    1    2    0    0 -0.13775080150E+02 -0.40201931010E+02  0.14938746734E+02  0.46142309373E+02  0.99999235088E+01 0.  0.
         12    1    1    2    0    0  0.13775080150E+02  0.40201931010E+02 -0.14938746734E+02  0.45045690627E+02  0.00000000000E+00 0. -1.
         11    1    3    3    0    0 -0.20807895165E+01 -0.52684693726E+01 -0.11446172175E+01  0.57789794408E+01  0.51100000000E-03 0. -1.
        -11    1    3    3    0    0 -0.67365726576E+01 -0.25293640862E+02  0.11681578187E+02  0.28663721817E+02  0.51100000000E-03 0.  1.
        -12    1    3    3    0    0 -0.49577179762E+01 -0.96398207755E+01  0.44017857648E+01  0.11699608115E+02  0.00000000000E+00 0.  1.
</event>
<event>
 7    1  0.1541902E-008  0.4614232E+02  0.7816164E-02  0.1320468E+00
        -11   -1    0    0    0    0  0.00000000000E+00  0.00000000000E+00  0.45593999997E+02  0.45594000000E+02  0.51100000000E-03 0.  1.
         11   -1    0    0    0    0 -0.00000000000E+00 -0.00000000000E+00 -0.45593999997E+02  0.45594000000E+02  0.51100000000E-03 0. -1.
    9900012    2    1    2    0    0  0.64740401707E+01  0.16569214647E+02  0.41384313918E+02  0.46142317537E+02  0.99999979528E+01 0.  0.
         12    1    1    2    0    0 -0.64740401707E+01 -0.16569214647E+02 -0.41384313918E+02  0.45045682463E+02  0.00000000000E+00 0. -1.
         11    1    3    3    0    0  0.17048024145E+01  0.54993967215E+01  0.50211488815E+01  0.76394798203E+01  0.51100000000E-03 0. -1.
        -11    1    3    3    0    0 -0.33286114187E+00  0.16800601098E+01  0.28284683451E+01  0.33066042933E+01  0.51100000000E-03 0.  1.
         12    1    3    3    0    0  0.51020988981E+01  0.93897578160E+01  0.33534696691E+02  0.35196233423E+02  0.00000000000E+00 0. -1.
</event>
<event>
 7    1  0.1541902E-008  0.4614232E+02  0.7816164E-02  0.1320468E+00
        -11   -1    0    0    0    0  0.00000000000E+00  0.00000000000E+00  0.45593999997E+02  0.45594000000E+02  0.51100000000E-03 0.  1.
         11   -1    0    0    0    0 -0.00000000000E+00 -0.00000000000E+00 -0.45593999997E+02  0.45594000000E+02  0.51100000000E-03 0. -1.
    9900012    2    1    2    0    0  0.42001475613E+02 -0.10257639806E+02  0.12640034995E+02  0.46142316381E+02  0.99999874144E+01 0.  0.
         12    1    1    2    0    0 -0.42001475613E+02  0.10257639806E+02 -0.12640034995E+02  0.45045683619E+02  0.00000000000E+00 0. -1.
         11    1    3    3    0    0  0.14918953448E+02 -0.51082177011E+01  0.56501485865E+00  0.15779363172E+02  0.51100000000E-03 0. -1.
        -11    1    3    3    0    0  0.18519089709E+02 -0.26776699965E+01  0.99810584638E+01  0.21207265938E+02  0.51100000000E-03 0.  1.
         12    1    3    3    0    0  0.85634324566E+01 -0.24717521084E+01  0.20939616727E+01  0.91556872713E+01  0.00000000000E+00 0. -1.
</event>
<event>
 7    1  0.1541902E-008  0.4614232E+02  0.7816164E-02  0.1320468E+00
        -11   -1    0    0    0    0  0.00000000000E+00  0.00000000000E+00  0.45593999997E+02  0.45594000000E+02  0.51100000000E-03 0. -1.
         11   -1    0    0    0    0 -0.00000000000E+00 -0.00000000000E+00 -0.45593999997E+02  0.45594000000E+02  0.51100000000E-03 0.  1.
    9900012    2    1    2    0    0  0.15900824912E+02  0.41027123472E+02 -0.96463664616E+01  0.46142317863E+02  0.10000000928E+02 0.  0.
         12    1    1    2    0    0 -0.15900824912E+02 -0.41027123472E+02  0.96463664616E+01  0.45045682137E+02  0.00000000000E+00 0. -1.
         11    1    3    3    0    0  0.82758584937E+00  0.11988851967E+02 -0.42664118038E-01  0.12017457731E+02  0.51100000000E-03 0. -1.
        -11    1    3    3    0    0  0.99199180813E+01  0.20266298447E+02 -0.69685092599E+01  0.23615413379E+02  0.51100000000E-03 0.  1.
         12    1    3    3    0    0  0.51533209813E+01  0.87719730578E+01 -0.26351930837E+01  0.10509446753E+02  0.00000000000E+00 0. -1.
</event>
<event>
 7    1  0.1541902E-008  0.4614232E+02  0.7816164E-02  0.1320468E+00
        -11   -1    0    0    0    0  0.00000000000E+00  0.00000000000E+00  0.45593999997E+02  0.45594000000E+02  0.51100000000E-03 0. -1.
         11   -1    0    0    0    0 -0.00000000000E+00 -0.00000000000E+00 -0.45593999997E+02  0.45594000000E+02  0.51100000000E-03 0.  1.
    9900012    2    1    2    0    0 -0.14883340640E+02  0.37901324870E+02 -0.19263679347E+02  0.46142316550E+02  0.99999889568E+01 0.  0.
         12    1    1    2    0    0  0.14883340640E+02 -0.37901324870E+02  0.19263679347E+02  0.45045683450E+02  0.00000000000E+00 0. -1.
         11    1    3    3    0    0 -0.18090914960E+01  0.33350631906E+01 -0.44918402279E+00  0.38206315019E+01  0.51100000000E-03 0. -1.
        -11    1    3    3    0    0 -0.23536389512E+01  0.11830228932E+02 -0.23954896095E+01  0.12297654395E+02  0.51100000000E-03 0.  1.
        -12    1    3    3    0    0 -0.10720610193E+02  0.22736032747E+02 -0.16419005714E+02  0.30024030653E+02  0.00000000000E+00 0.  1.
</event>
<event>
 7    1  0.1541902E-008  0.4614232E+02  0.7816164E-02  0.1320468E+00
        -11   -1    0    0    0    0  0.00000000000E+00  0.00000000000E+00  0.45593999997E+02  0.45594000000E+02  0.51100000000E-03 0.  1.
         11   -1    0    0    0    0 -0.00000000000E+00 -0.00000000000E+00 -0.45593999997E+02  0.45594000000E+02  0.51100000000E-03 0. -1.
    9900012    2    1    2    0    0 -0.33187076950E+02 -0.28886153024E+02  0.96603052921E+01  0.46142318616E+02  0.10000007793E+02 0.  0.
         12    1    1    2    0    0  0.33187076950E+02  0.28886153024E+02 -0.96603052921E+01  0.45045681384E+02  0.00000000000E+00 0. -1.
         11    1    3    3    0    0 -0.44370136602E+01 -0.57477255122E+01  0.71266747231E+00  0.72959806723E+01  0.51100000000E-03 0. -1.
        -11    1    3    3    0    0 -0.27432797656E+02 -0.23601820769E+02  0.77552359403E+01  0.37010106938E+02  0.51100000000E-03 0.  1.
        -12    1    3    3    0    0 -0.13172656344E+01  0.46339325690E+00  0.11924018795E+01  0.18362310052E+01  0.00000000000E+00 0.  1.
</event>
<event>
 7    1  0.1541902E-008  0.4614232E+02  0.7816164E-02  0.1320468E+00
        -11   -1    0    0    0    0  0.00000000000E+00  0.00000000000E+00  0.45593999997E+02  0.45594000000E+02  0.51100000000E-03 0.  1.
         11   -1    0    0    0    0 -0.00000000000E+00 -0.00000000000E+00 -0.45593999997E+02  0.45594000000E+02  0.51100000000E-03 0. -1.
    9900012    2    1    2    0    0  0.20526387013E+01  0.13953634649E+02  0.42780790603E+02  0.46142319961E+02  0.10000020060E+02 0.  0.
         12    1    1    2    0    0 -0.20526387013E+01 -0.13953634649E+02 -0.42780790603E+02  0.45045680039E+02  0.00000000000E+00 0. -1.
         11    1    3    3    0    0 -0.21352622125E+01  0.12279319752E+00  0.64388718568E+01  0.67847987394E+01  0.51100000000E-03 0. -1.
        -11    1    3    3    0    0  0.23533004870E+01  0.27461028784E+01  0.12283894164E+02  0.12805200517E+02  0.51100000000E-03 0.  1.
         12    1    3    3    0    0  0.18346004268E+01  0.11084738573E+02  0.24058024582E+02  0.26552320704E+02  0.00000000000E+00 0. -1.
</event>
<event>
 7    1  0.1541902E-008  0.4614232E+02  0.7816164E-02  0.1320468E+00
        -11   -1    0    0    0    0  0.00000000000E+00  0.00000000000E+00  0.45593999997E+02  0.45594000000E+02  0.51100000000E-03 0. -1.
         11   -1    0    0    0    0 -0.00000000000E+00 -0.00000000000E+00 -0.45593999997E+02  0.45594000000E+02  0.51100000000E-03 0.  1.
    9900012    2    1    2    0    0  0.20303546509E+02 -0.23112798305E+02 -0.32904074809E+02  0.46142316684E+02  0.99999901767E+01 0.  0.
         12    1    1    2    0    0 -0.20303546509E+02  0.23112798305E+02  0.32904074809E+02  0.45045683316E+02  0.00000000000E+00 0. -1.
         11    1    3    3    0    0 -0.13918271018E-02 -0.22153145496E+01 -0.29467944687E+01  0.36866269668E+01  0.51100000000E-03 0. -1.
        -11    1    3    3    0    0  0.74532872149E+01 -0.10435894588E+02 -0.17635883125E+02  0.21805590109E+02  0.51100000000E-03 0.  1.
         12    1    3    3    0    0  0.12851651121E+02 -0.10461589168E+02 -0.12321397216E+02  0.20650099608E+02  0.00000000000E+00 0. -1.
</event>
<event>
 7    1  0.1541902E-008  0.4614232E+02  0.7816164E-02  0.1320468E+00
        -11   -1    0    0    0    0  0.00000000000E+00  0.00000000000E+00  0.45593999997E+02  0.45594000000E+02  0.51100000000E-03 0. -1.
         11   -1    0    0    0    0 -0.00000000000E+00 -0.00000000000E+00 -0.45593999997E+02  0.45594000000E+02  0.51100000000E-03 0.  1.
    9900012    2    1    2    0    0  0.38891026835E+02 -0.16701645028E+02  0.15416120847E+02  0.46142315446E+02  0.99999788916E+01 0.  0.
         12    1    1    2    0    0 -0.38891026835E+02  0.16701645028E+02 -0.15416120847E+02  0.45045684554E+02  0.00000000000E+00 0. -1.
         11    1    3    3    0    0  0.14929291543E+02 -0.74030772766E+01  0.94987562460E+01  0.19181127955E+02  0.51100000000E-03 0.  1.
        -11    1    3    3    0    0  0.13896935041E+02 -0.81292869703E+01  0.45942150348E+01  0.16742667716E+02  0.51100000000E-03 0. -1.
        -12    1    3    3    0    0  0.10064800251E+02 -0.11692807816E+01  0.13231495660E+01  0.10218519776E+02  0.00000000000E+00 0.  1.
</event>
<event>
 7    1  0.1541902E-008  0.4614232E+02  0.7816164E-02  0.1320468E+00
        -11   -1    0    0    0    0  0.00000000000E+00  0.00000000000E+00  0.45593999997E+02  0.45594000000E+02  0.51100000000E-03 0.  1.
         11   -1    0    0    0    0 -0.00000000000E+00 -0.00000000000E+00 -0.45593999997E+02  0.45594000000E+02  0.51100000000E-03 0. -1.
    9900012    2    1    2    0    0 -0.32683216004E+02 -0.14661561408E+02  0.27312253394E+02  0.46142321220E+02  0.10000031543E+02 0.  0.
         12    1    1    2    0    0  0.32683216004E+02  0.14661561408E+02 -0.27312253394E+02  0.45045678780E+02  0.00000000000E+00 0. -1.
         11    1    3    3    0    0 -0.47023629213E+01 -0.44973559958E+01  0.66418231728E+01  0.92979698492E+01  0.51100000000E-03 0. -1.
        -11    1    3    3    0    0 -0.23077391714E+02 -0.10155969555E+02  0.14959564870E+02  0.29317201560E+02  0.51100000000E-03 0.  1.
        -12    1    3    3    0    0 -0.49034613685E+01 -0.82358567105E-02  0.57108653512E+01  0.75271498112E+01  0.00000000000E+00 0.  1.
</event>
<event>
 7    1  0.1541902E-008  0.4614232E+02  0.7816164E-02  0.1320468E+00
        -11   -1    0    0    0    0  0.00000000000E+00  0.00000000000E+00  0.45593999997E+02  0.45594000000E+02  0.51100000000E-03 0. -1.
         11   -1    0    0    0    0 -0.00000000000E+00 -0.00000000000E+00 -0.45593999997E+02  0.45594000000E+02  0.51100000000E-03 0.  1.
    9900012    2    1    2    0    0  0.23179562118E+02  0.11831751099E+02 -0.36767255140E+02  0.46142317803E+02  0.10000000385E+02 0.  0.
         12    1    1    2    0    0 -0.23179562118E+02 -0.11831751099E+02  0.36767255140E+02  0.45045682197E+02  0.00000000000E+00 0. -1.
         11    1    3    3    0    0  0.12154118695E+02  0.80186451812E+01 -0.15162203018E+02  0.21021742849E+02  0.51100000000E-03 0. -1.
        -11    1    3    3    0    0  0.11359758280E+02  0.28683644869E+01 -0.18912440967E+02  0.22247517763E+02  0.51100000000E-03 0.  1.
        -12    1    3    3    0    0 -0.33431485703E+00  0.94474143078E+00 -0.26926111545E+01  0.28730571912E+01  0.00000000000E+00 0.  1.
</event>
<event>
 7    1  0.1541902E-008  0.4614232E+02  0.7816164E-02  0.1320468E+00
        -11   -1    0    0    0    0  0.00000000000E+00  0.00000000000E+00  0.45593999997E+02  0.45594000000E+02  0.51100000000E-03 0.  1.
         11   -1    0    0    0    0 -0.00000000000E+00 -0.00000000000E+00 -0.45593999997E+02  0.45594000000E+02  0.51100000000E-03 0. -1.
    9900012    2    1    2    0    0  0.21399939482E+02 -0.26140155670E+02  0.29796783174E+02  0.46142318345E+02  0.10000005321E+02 0.  0.
         12    1    1    2    0    0 -0.21399939482E+02  0.26140155670E+02 -0.29796783174E+02  0.45045681655E+02  0.00000000000E+00 0. -1.
         11    1    3    3    0    0  0.17137517521E+01 -0.63895158095E+01  0.39365143584E+01  0.76979869383E+01  0.51100000000E-03 0. -1.
        -11    1    3    3    0    0  0.44913969214E+01 -0.80614456294E+01  0.73759451283E+01  0.11813725862E+02  0.51100000000E-03 0.  1.
        -12    1    3    3    0    0  0.15194790809E+02 -0.11689194231E+02  0.18484323687E+02  0.26630605545E+02  0.00000000000E+00 0.  1.
</event>
<event>
 7    1  0.1541902E-008  0.4614232E+02  0.7816164E-02  0.1320468E+00
        -11   -1    0    0    0    0  0.00000000000E+00  0.00000000000E+00  0.45593999997E+02  0.45594000000E+02  0.51100000000E-03 0.  1.
         11   -1    0    0    0    0 -0.00000000000E+00 -0.00000000000E+00 -0.45593999997E+02  0.45594000000E+02  0.51100000000E-03 0. -1.
    9900012    2    1    2    0    0  0.35717672616E+02  0.73802697490E+01  0.26436584164E+02  0.46142317622E+02  0.99999987276E+01 0.  0.
         12    1    1    2    0    0 -0.35717672616E+02 -0.73802697490E+01 -0.26436584164E+02  0.45045682378E+02  0.00000000000E+00 0. -1.
         11    1    3    3    0    0  0.18574766399E+01 -0.17562082923E+01  0.16657406646E+01  0.30510947636E+01  0.51100000000E-03 0. -1.
        -11    1    3    3    0    0  0.24455907793E+02  0.62579252987E+01  0.15808937350E+02  0.29785492365E+02  0.51100000000E-03 0.  1.
        -12    1    3    3    0    0  0.94042881832E+01  0.28785527426E+01  0.89619061485E+01  0.13305730493E+02  0.00000000000E+00 0.  1.
</event>
<event>
 7    1  0.1541902E-008  0.4614232E+02  0.7816164E-02  0.1320468E+00
        -11   -1    0    0    0    0  0.00000000000E+00  0.00000000000E+00  0.45593999997E+02  0.45594000000E+02  0.51100000000E-03 0. -1.
         11   -1    0    0    0    0 -0.00000000000E+00 -0.00000000000E+00 -0.45593999997E+02  0.45594000000E+02  0.51100000000E-03 0.  1.
    9900012    2    1    2    0    0  0.34730550453E+02  0.19803343773E+02 -0.20754036531E+02  0.46142316614E+02  0.99999895406E+01 0.  0.
         12    1    1    2    0    0 -0.34730550453E+02 -0.19803343773E+02  0.20754036531E+02  0.45045683386E+02  0.00000000000E+00 0. -1.
         11    1    3    3    0    0  0.18423551164E+02  0.12069787424E+02 -0.93878139162E+01  0.23942390364E+02  0.51100000000E-03 0.  1.
        -11    1    3    3    0    0  0.67251389154E+01  0.64959000625E+01 -0.47260649879E+01  0.10476635986E+02  0.51100000000E-03 0. -1.
         12    1    3    3    0    0  0.95818603736E+01  0.12376562866E+01 -0.66401576274E+01  0.11723290264E+02  0.00000000000E+00 0. -1.
</event>
<event>
 7    1  0.1963268E-008  0.4614232E+02  0.7816164E-02  0.1320468E+00
        -11   -1    0    0    0    0  0.00000000000E+00  0.00000000000E+00  0.45593999997E+02  0.45594000000E+02  0.51100000000E-03 0. -1.
         11   -1    0    0    0    0 -0.00000000000E+00 -0.00000000000E+00 -0.45593999997E+02  0.45594000000E+02  0.51100000000E-03 0.  1.
    9900012    2    1    2    0    0 -0.18427819639E+01 -0.24625868208E+02 -0.37673390104E+02  0.46142317051E+02  0.99999935259E+01 0.  0.
         12    1    1    2    0    0  0.18427819639E+01  0.24625868208E+02  0.37673390104E+02  0.45045682949E+02  0.00000000000E+00 0. -1.
         11    1    3    3    0    0 -0.20271062535E+01 -0.22131186937E+01 -0.11862452682E+01  0.32271089558E+01  0.51100000000E-03 0. -1.
        -11    1    3    3    0    0  0.13735777413E+01 -0.16574011323E+02 -0.27150425193E+02  0.31839129316E+02  0.51100000000E-03 0.  1.
         12    1    3    3    0    0 -0.11892534516E+01 -0.58387381911E+01 -0.93367196430E+01  0.11076078779E+02  0.00000000000E+00 0. -1.
</event>
<event>
 7    1  0.1541902E-008  0.4614232E+02  0.7816164E-02  0.1320468E+00
        -11   -1    0    0    0    0  0.00000000000E+00  0.00000000000E+00  0.45593999997E+02  0.45594000000E+02  0.51100000000E-03 0.  1.
         11   -1    0    0    0    0 -0.00000000000E+00 -0.00000000000E+00 -0.45593999997E+02  0.45594000000E+02  0.51100000000E-03 0. -1.
    9900012    2    1    2    0    0 -0.36405972221E+02 -0.26045719865E+02  0.50338047559E+01  0.46142317333E+02  0.99999960938E+01 0.  0.
         12    1    1    2    0    0  0.36405972221E+02  0.26045719865E+02 -0.50338047559E+01  0.45045682667E+02  0.00000000000E+00 0. -1.
         11    1    3    3    0    0 -0.32816215831E+01 -0.21222166095E+01 -0.20900437964E+01  0.44318310983E+01  0.51100000000E-03 0. -1.
        -11    1    3    3    0    0 -0.24006438303E+02 -0.15393022792E+02  0.62449443464E+01  0.29193382141E+02  0.51100000000E-03 0.  1.
         12    1    3    3    0    0 -0.91179123343E+01 -0.85304804634E+01  0.87890420586E+00  0.12517104093E+02  0.00000000000E+00 0. -1.
</event>
<event>
 7    1  0.1541902E-008  0.4614232E+02  0.7816164E-02  0.1320468E+00
        -11   -1    0    0    0    0  0.00000000000E+00  0.00000000000E+00  0.45593999997E+02  0.45594000000E+02  0.51100000000E-03 0. -1.
         11   -1    0    0    0    0 -0.00000000000E+00 -0.00000000000E+00 -0.45593999997E+02  0.45594000000E+02  0.51100000000E-03 0.  1.
    9900012    2    1    2    0    0 -0.17214518966E+02  0.12959275793E+02 -0.39557944205E+02  0.46142318276E+02  0.10000004693E+02 0.  0.
         12    1    1    2    0    0  0.17214518966E+02 -0.12959275793E+02  0.39557944205E+02  0.45045681724E+02  0.00000000000E+00 0. -1.
         11    1    3    3    0    0 -0.20045145284E+01  0.48358832111E+01 -0.60650049378E+01  0.80117495020E+01  0.51100000000E-03 0. -1.
        -11    1    3    3    0    0 -0.13758039494E+02  0.90094895368E+01 -0.31277261522E+02  0.35337255708E+02  0.51100000000E-03 0.  1.
         12    1    3    3    0    0 -0.14519649434E+01 -0.88609695514E+00 -0.22156777454E+01  0.27933130656E+01  0.00000000000E+00 0. -1.
</event>
<event>
 7    1  0.1541902E-008  0.4614232E+02  0.7816164E-02  0.1320468E+00
        -11   -1    0    0    0    0  0.00000000000E+00  0.00000000000E+00  0.45593999997E+02  0.45594000000E+02  0.51100000000E-03 0.  1.
         11   -1    0    0    0    0 -0.00000000000E+00 -0.00000000000E+00 -0.45593999997E+02  0.45594000000E+02  0.51100000000E-03 0. -1.
    9900012    2    1    2    0    0 -0.13090609137E+02 -0.18390100211E+01  0.43062367128E+02  0.46142317986E+02  0.10000002048E+02 0.  0.
         12    1    1    2    0    0  0.13090609137E+02  0.18390100211E+01 -0.43062367128E+02  0.45045682014E+02  0.00000000000E+00 0. -1.
         11    1    3    3    0    0 -0.37417232018E+01 -0.14468001721E+01  0.35767650945E+01  0.53746601808E+01  0.51100000000E-03 0. -1.
        -11    1    3    3    0    0 -0.83467932160E+01  0.82764387332E+00  0.35574729284E+02  0.36550175311E+02  0.51100000000E-03 0.  1.
        -12    1    3    3    0    0 -0.10020927193E+01 -0.12198537224E+01  0.39108727498E+01  0.42174824940E+01  0.00000000000E+00 0.  1.
</event>
<event>
 7    1  0.1541902E-008  0.4614233E+02  0.7816164E-02  0.1320468E+00
        -11   -1    0    0    0    0  0.00000000000E+00  0.00000000000E+00  0.45593999997E+02  0.45594000000E+02  0.51100000000E-03 0.  1.
         11   -1    0    0    0    0 -0.00000000000E+00 -0.00000000000E+00 -0.45593999997E+02  0.45594000000E+02  0.51100000000E-03 0. -1.
    9900012    2    1    2    0    0 -0.31320482425E+02 -0.78535936586E+01  0.31407969120E+02  0.46142333428E+02  0.10000142863E+02 0.  0.
         12    1    1    2    0    0  0.31320482425E+02  0.78535936586E+01 -0.31407969120E+02  0.45045666572E+02  0.00000000000E+00 0. -1.
         11    1    3    3    0    0 -0.14891665757E+02  0.34779190524E+00  0.14120093403E+02  0.20524612206E+02  0.51100000000E-03 0. -1.
        -11    1    3    3    0    0 -0.15223921283E+02 -0.61395378881E+01  0.15912090114E+02  0.22861677908E+02  0.51100000000E-03 0.  1.
         12    1    3    3    0    0 -0.12048953851E+01 -0.20618476757E+01  0.13757856026E+01  0.27560433145E+01  0.00000000000E+00 0. -1.
</event>
<event>
 7    1  0.1541902E-008  0.4614232E+02  0.7816164E-02  0.1320468E+00
        -11   -1    0    0    0    0  0.00000000000E+00  0.00000000000E+00  0.45593999997E+02  0.45594000000E+02  0.51100000000E-03 0. -1.
         11   -1    0    0    0    0 -0.00000000000E+00 -0.00000000000E+00 -0.45593999997E+02  0.45594000000E+02  0.51100000000E-03 0.  1.
    9900012    2    1    2    0    0  0.44672831309E+02 -0.33738533484E+01 -0.46977317471E+01  0.46142318440E+02  0.10000006192E+02 0.  0.
         12    1    1    2    0    0 -0.44672831309E+02  0.33738533484E+01  0.46977317471E+01  0.45045681560E+02  0.00000000000E+00 0. -1.
         11    1    3    3    0    0  0.94230075803E+01  0.49848306995E+00 -0.37499783339E+01  0.10154008814E+02  0.51100000000E-03 0. -1.
        -11    1    3    3    0    0  0.23735287408E+02  0.11411911109E+00  0.31769540848E+00  0.23737687801E+02  0.51100000000E-03 0.  1.
        -12    1    3    3    0    0  0.11514536321E+02 -0.39864555294E+01 -0.12654488217E+01  0.12250621825E+02  0.00000000000E+00 0.  1.
</event>
<event>
 7    1  0.1541902E-008  0.4614232E+02  0.7816164E-02  0.1320468E+00
        -11   -1    0    0    0    0  0.00000000000E+00  0.00000000000E+00  0.45593999997E+02  0.45594000000E+02  0.51100000000E-03 0.  1.
         11   -1    0    0    0    0 -0.00000000000E+00 -0.00000000000E+00 -0.45593999997E+02  0.45594000000E+02  0.51100000000E-03 0. -1.
    9900012    2    1    2    0    0 -0.11529411975E+02 -0.25834502072E+02  0.35053738953E+02  0.46142318160E+02  0.10000003637E+02 0.  0.
         12    1    1    2    0    0  0.11529411975E+02  0.25834502072E+02 -0.35053738953E+02  0.45045681840E+02  0.00000000000E+00 0. -1.
         11    1    3    3    0    0 -0.71844004954E+01 -0.16347911757E+02  0.25260023119E+02  0.30934424151E+02  0.51100000000E-03 0. -1.
        -11    1    3    3    0    0 -0.46141382760E+01 -0.90723009336E+01  0.10313926260E+02  0.14490479337E+02  0.51100000000E-03 0.  1.
         12    1    3    3    0    0  0.26912679618E+00 -0.41428938196E+00 -0.52021042605E+00  0.71741467214E+00  0.00000000000E+00 0. -1.
</event>
<event>
 7    1  0.1541902E-008  0.4614232E+02  0.7816164E-02  0.1320468E+00
        -11   -1    0    0    0    0  0.00000000000E+00  0.00000000000E+00  0.45593999997E+02  0.45594000000E+02  0.51100000000E-03 0.  1.
         11   -1    0    0    0    0 -0.00000000000E+00 -0.00000000000E+00 -0.45593999997E+02  0.45594000000E+02  0.51100000000E-03 0. -1.
    9900012    2    1    2    0    0 -0.33042063491E+02  0.25515775823E+02  0.16919833348E+02  0.46142317231E+02  0.99999951687E+01 0.  0.
         12    1    1    2    0    0  0.33042063491E+02 -0.25515775823E+02 -0.16919833348E+02  0.45045682769E+02  0.00000000000E+00 0. -1.
         11    1    3    3    0    0 -0.88857206651E+01  0.81186086007E+01  0.72690530097E+00  0.12058035865E+02  0.51100000000E-03 0. -1.
        -11    1    3    3    0    0 -0.19872956839E+02  0.14385306458E+02  0.11679854090E+02  0.27171500644E+02  0.51100000000E-03 0.  1.
        -12    1    3    3    0    0 -0.42833859870E+01  0.30118607642E+01  0.45130739564E+01  0.69127807221E+01  0.00000000000E+00 0.  1.
</event>
<event>
 7    1  0.1541902E-008  0.4614232E+02  0.7816164E-02  0.1320468E+00
        -11   -1    0    0    0    0  0.00000000000E+00  0.00000000000E+00  0.45593999997E+02  0.45594000000E+02  0.51100000000E-03 0.  1.
         11   -1    0    0    0    0 -0.00000000000E+00 -0.00000000000E+00 -0.45593999997E+02  0.45594000000E+02  0.51100000000E-03 0. -1.
    9900012    2    1    2    0    0 -0.36720844125E+02 -0.18813488125E+02  0.18076110117E+02  0.46142317791E+02  0.10000000273E+02 0.  0.
         12    1    1    2    0    0  0.36720844125E+02  0.18813488125E+02 -0.18076110117E+02  0.45045682209E+02  0.00000000000E+00 0. -1.
         11    1    3    3    0    0 -0.53612679027E+01 -0.45779310277E+01  0.89503828079E+00  0.71064576129E+01  0.51100000000E-03 0. -1.
        -11    1    3    3    0    0 -0.25799115462E+02 -0.94609457580E+01  0.11616374604E+02  0.29833605422E+02  0.51100000000E-03 0.  1.
         12    1    3    3    0    0 -0.55604607605E+01 -0.47746113392E+01  0.55646972326E+01  0.92022547563E+01  0.00000000000E+00 0. -1.
</event>
<event>
 7    1  0.1541902E-008  0.4614232E+02  0.7816164E-02  0.1320468E+00
        -11   -1    0    0    0    0  0.00000000000E+00  0.00000000000E+00  0.45593999997E+02  0.45594000000E+02  0.51100000000E-03 0.  1.
         11   -1    0    0    0    0 -0.00000000000E+00 -0.00000000000E+00 -0.45593999997E+02  0.45594000000E+02  0.51100000000E-03 0. -1.
    9900012    2    1    2    0    0  0.58179658171E+01  0.44361324446E+02  0.52285475375E+01  0.46142317163E+02  0.99999945485E+01 0.  0.
         12    1    1    2    0    0 -0.58179658171E+01 -0.44361324446E+02 -0.52285475375E+01  0.45045682837E+02  0.00000000000E+00 0. -1.
         11    1    3    3    0    0  0.74021424036E+00  0.90845241797E+00 -0.51052168229E+00  0.12782157746E+01  0.51100000000E-03 0. -1.
        -11    1    3    3    0    0  0.34890224605E+01  0.27485695019E+02 -0.33125656306E+00  0.27708237756E+02  0.51100000000E-03 0.  1.
        -12    1    3    3    0    0  0.15887291162E+01  0.15967177010E+02  0.60703257828E+01  0.17155863632E+02  0.00000000000E+00 0.  1.
</event>
<event>
 7    1  0.1541902E-008  0.4614232E+02  0.7816164E-02  0.1320468E+00
        -11   -1    0    0    0    0  0.00000000000E+00  0.00000000000E+00  0.45593999997E+02  0.45594000000E+02  0.51100000000E-03 0.  1.
         11   -1    0    0    0    0 -0.00000000000E+00 -0.00000000000E+00 -0.45593999997E+02  0.45594000000E+02  0.51100000000E-03 0. -1.
    9900012    2    1    2    0    0 -0.16165794515E+02  0.39228455117E+02 -0.15129736579E+02  0.46142317275E+02  0.99999955713E+01 0.  0.
         12    1    1    2    0    0  0.16165794515E+02 -0.39228455117E+02  0.15129736579E+02  0.45045682725E+02  0.00000000000E+00 0. -1.
         11    1    3    3    0    0 -0.65091234498E+01  0.21061524028E+02 -0.11593948023E+02  0.24907350592E+02  0.51100000000E-03 0. -1.
        -11    1    3    3    0    0 -0.89937288217E+01  0.18099532502E+02 -0.31220474196E+01  0.20450609166E+02  0.51100000000E-03 0.  1.
         12    1    3    3    0    0 -0.66294224333E+00  0.67398586681E-01 -0.41374113607E+00  0.78435751743E+00  0.00000000000E+00 0. -1.
</event>
<event>
 7    1  0.1541902E-008  0.4614231E+02  0.7816164E-02  0.1320468E+00
        -11   -1    0    0    0    0  0.00000000000E+00  0.00000000000E+00  0.45593999997E+02  0.45594000000E+02  0.51100000000E-03 0.  1.
         11   -1    0    0    0    0 -0.00000000000E+00 -0.00000000000E+00 -0.45593999997E+02  0.45594000000E+02  0.51100000000E-03 0. -1.
    9900012    2    1    2    0    0  0.21298419444E+02  0.23228886372E+02  0.32185557710E+02  0.46142312548E+02  0.99999524635E+01 0.  0.
         12    1    1    2    0    0 -0.21298419444E+02 -0.23228886372E+02 -0.32185557710E+02  0.45045687452E+02  0.00000000000E+00 0. -1.
         11    1    3    3    0    0 -0.19101397543E+00  0.98902484051E+00  0.16548661768E+01  0.19373277467E+01  0.51100000000E-03 0. -1.
        -11    1    3    3    0    0  0.22114457304E+02  0.22132795083E+02  0.30219567335E+02  0.43498644694E+02  0.51100000000E-03 0.  1.
        -12    1    3    3    0    0 -0.62502388441E+00  0.10706644831E+00  0.31112419825E+00  0.70634010729E+00  0.00000000000E+00 0.  1.
</event>
<event>
 7    1  0.1541902E-008  0.4614232E+02  0.7816164E-02  0.1320468E+00
        -11   -1    0    0    0    0  0.00000000000E+00  0.00000000000E+00  0.45593999997E+02  0.45594000000E+02  0.51100000000E-03 0.  1.
         11   -1    0    0    0    0 -0.00000000000E+00 -0.00000000000E+00 -0.45593999997E+02  0.45594000000E+02  0.51100000000E-03 0. -1.
    9900012    2    1    2    0    0 -0.32503832391E+02 -0.80230709167E+01  0.30137097582E+02  0.46142318323E+02  0.10000005127E+02 0.  0.
         12    1    1    2    0    0  0.32503832391E+02  0.80230709167E+01 -0.30137097582E+02  0.45045681677E+02  0.00000000000E+00 0. -1.
         11    1    3    3    0    0 -0.16379540917E+02 -0.61152433964E+00  0.14158957509E+02  0.21659626051E+02  0.51100000000E-03 0. -1.
        -11    1    3    3    0    0 -0.14235778788E+02 -0.78408170185E+01  0.12506070446E+02  0.20507013617E+02  0.51100000000E-03 0.  1.
         12    1    3    3    0    0 -0.18885126863E+01  0.42927044145E+00  0.34720696263E+01  0.39756786550E+01  0.00000000000E+00 0. -1.
</event>
<event>
 7    1  0.1541902E-008  0.4614232E+02  0.7816164E-02  0.1320468E+00
        -11   -1    0    0    0    0  0.00000000000E+00  0.00000000000E+00  0.45593999997E+02  0.45594000000E+02  0.51100000000E-03 0.  1.
         11   -1    0    0    0    0 -0.00000000000E+00 -0.00000000000E+00 -0.45593999997E+02  0.45594000000E+02  0.51100000000E-03 0. -1.
    9900012    2    1    2    0    0  0.12787077440E+01  0.14550195380E+02  0.42611855730E+02  0.46142317323E+02  0.99999960059E+01 0.  0.
         12    1    1    2    0    0 -0.12787077440E+01 -0.14550195380E+02 -0.42611855730E+02  0.45045682677E+02  0.00000000000E+00 0. -1.
         11    1    3    3    0    0  0.25817582968E+00  0.47909341513E+00  0.75575641848E+01  0.75771341500E+01  0.51100000000E-03 0. -1.
        -11    1    3    3    0    0 -0.50883940795E+00  0.14239912941E+02  0.33364629052E+02  0.36279918828E+02  0.51100000000E-03 0.  1.
        -12    1    3    3    0    0  0.15293713223E+01 -0.16881097648E+00  0.16896624930E+01  0.22852643452E+01  0.00000000000E+00 0.  1.
</event>
<event>
 7    1  0.1541902E-008  0.4614232E+02  0.7816164E-02  0.1320468E+00
        -11   -1    0    0    0    0  0.00000000000E+00  0.00000000000E+00  0.45593999997E+02  0.45594000000E+02  0.51100000000E-03 0. -1.
         11   -1    0    0    0    0 -0.00000000000E+00 -0.00000000000E+00 -0.45593999997E+02  0.45594000000E+02  0.51100000000E-03 0.  1.
    9900012    2    1    2    0    0 -0.26864398410E+02  0.44117709456E+01 -0.35888073725E+02  0.46142318071E+02  0.10000002826E+02 0.  0.
         12    1    1    2    0    0  0.26864398410E+02 -0.44117709456E+01  0.35888073725E+02  0.45045681929E+02  0.00000000000E+00 0. -1.
         11    1    3    3    0    0 -0.97451249774E+00  0.12496332985E+01 -0.10849341890E+00  0.15884045681E+01  0.51100000000E-03 0. -1.
        -11    1    3    3    0    0 -0.14605277085E+02  0.24974723416E+01 -0.24167744858E+02  0.28348392875E+02  0.51100000000E-03 0.  1.
        -12    1    3    3    0    0 -0.11284608827E+02  0.66466530550E+00 -0.11611835447E+02  0.16205520627E+02  0.00000000000E+00 0.  1.
</event>
<event>
 7    1  0.1541902E-008  0.4614232E+02  0.7816164E-02  0.1320468E+00
        -11   -1    0    0    0    0  0.00000000000E+00  0.00000000000E+00  0.45593999997E+02  0.45594000000E+02  0.51100000000E-03 0. -1.
         11   -1    0    0    0    0 -0.00000000000E+00 -0.00000000000E+00 -0.45593999997E+02  0.45594000000E+02  0.51100000000E-03 0.  1.
    9900012    2    1    2    0    0 -0.39710493373E+02  0.38141802106E+01  0.20919900050E+02  0.46142317935E+02  0.10000001586E+02 0.  0.
         12    1    1    2    0    0  0.39710493373E+02 -0.38141802106E+01 -0.20919900050E+02  0.45045682065E+02  0.00000000000E+00 0. -1.
         11    1    3    3    0    0 -0.13378186862E+02  0.30833166870E+01  0.30576395913E+01  0.14065272327E+02  0.51100000000E-03 0. -1.
        -11    1    3    3    0    0 -0.20185052358E+02 -0.40110395450E+00  0.15255320988E+02  0.25304585390E+02  0.51100000000E-03 0.  1.
        -12    1    3    3    0    0 -0.61472541531E+01  0.11319674781E+01  0.26069394712E+01  0.67724602178E+01  0.00000000000E+00 0.  1.
</event>
<event>
 7    1  0.1541902E-008  0.4614232E+02  0.7816164E-02  0.1320468E+00
        -11   -1    0    0    0    0  0.00000000000E+00  0.00000000000E+00  0.45593999997E+02  0.45594000000E+02  0.51100000000E-03 0.  1.
         11   -1    0    0    0    0 -0.00000000000E+00 -0.00000000000E+00 -0.45593999997E+02  0.45594000000E+02  0.51100000000E-03 0. -1.
    9900012    2    1    2    0    0  0.14670985269E+02 -0.41281184802E+02  0.10475661487E+02  0.46142317510E+02  0.99999977073E+01 0.  0.
         12    1    1    2    0    0 -0.14670985269E+02  0.41281184802E+02 -0.10475661487E+02  0.45045682490E+02  0.00000000000E+00 0. -1.
         11    1    3    3    0    0  0.20359668921E+01 -0.71268301902E+01 -0.15800620775E+01  0.75784870638E+01  0.51100000000E-03 0. -1.
        -11    1    3    3    0    0  0.12301289175E+02 -0.32334876110E+02  0.12257497757E+02  0.36703026850E+02  0.51100000000E-03 0.  1.
        -12    1    3    3    0    0  0.33372920119E+00 -0.18194785019E+01 -0.20177419180E+00  0.18608035961E+01  0.00000000000E+00 0.  1.
</event>
<event>
 7    1  0.1541902E-008  0.4614232E+02  0.7816164E-02  0.1320468E+00
        -11   -1    0    0    0    0  0.00000000000E+00  0.00000000000E+00  0.45593999997E+02  0.45594000000E+02  0.51100000000E-03 0.  1.
         11   -1    0    0    0    0 -0.00000000000E+00 -0.00000000000E+00 -0.45593999997E+02  0.45594000000E+02  0.51100000000E-03 0. -1.
    9900012    2    1    2    0    0  0.14705923430E+01  0.32603315227E+02  0.31047940620E+02  0.46142318494E+02  0.10000006683E+02 0.  0.
         12    1    1    2    0    0 -0.14705923430E+01 -0.32603315227E+02 -0.31047940620E+02  0.45045681506E+02  0.00000000000E+00 0. -1.
         11    1    3    3    0    0 -0.32307672080E+00  0.14423709082E+02  0.95892212436E+01  0.17323421329E+02  0.51100000000E-03 0. -1.
        -11    1    3    3    0    0 -0.43102301999E+00  0.70282230388E+01  0.12483449945E+02  0.14332418592E+02  0.51100000000E-03 0.  1.
        -12    1    3    3    0    0  0.22246920838E+01  0.11151383106E+02  0.89752694318E+01  0.14486478572E+02  0.00000000000E+00 0.  1.
</event>
<event>
 7    1  0.1541902E-008  0.4614232E+02  0.7816164E-02  0.1320468E+00
        -11   -1    0    0    0    0  0.00000000000E+00  0.00000000000E+00  0.45593999997E+02  0.45594000000E+02  0.51100000000E-03 0.  1.
         11   -1    0    0    0    0 -0.00000000000E+00 -0.00000000000E+00 -0.45593999997E+02  0.45594000000E+02  0.51100000000E-03 0. -1.
    9900012    2    1    2    0    0 -0.19541391196E+02  0.39736638811E+02  0.82611782987E+01  0.46142317624E+02  0.99999987469E+01 0.  0.
         12    1    1    2    0    0  0.19541391196E+02 -0.39736638811E+02 -0.82611782987E+01  0.45045682376E+02  0.00000000000E+00 0. -1.
         11    1    3    3    0    0 -0.19241593966E+01  0.59345123313E+00 -0.56124689711E+00  0.20903521451E+01  0.51100000000E-03 0. -1.
        -11    1    3    3    0    0 -0.17476673717E+02  0.38543168402E+02  0.92273276641E+01  0.43314587967E+02  0.51100000000E-03 0.  1.
         12    1    3    3    0    0 -0.14055808252E+00  0.60001917630E+00 -0.40490246828E+00  0.73737751207E+00  0.00000000000E+00 0. -1.
</event>
<event>
 7    1  0.1541902E-008  0.4614232E+02  0.7816164E-02  0.1320468E+00
        -11   -1    0    0    0    0  0.00000000000E+00  0.00000000000E+00  0.45593999997E+02  0.45594000000E+02  0.51100000000E-03 0.  1.
         11   -1    0    0    0    0 -0.00000000000E+00 -0.00000000000E+00 -0.45593999997E+02  0.45594000000E+02  0.51100000000E-03 0. -1.
    9900012    2    1    2    0    0 -0.16812238441E+02  0.96860320849E+01  0.40652710471E+02  0.46142318214E+02  0.10000004126E+02 0.  0.
         12    1    1    2    0    0  0.16812238441E+02 -0.96860320849E+01 -0.40652710471E+02  0.45045681786E+02  0.00000000000E+00 0. -1.
         11    1    3    3    0    0 -0.71705344530E-01 -0.77852749355E+00  0.14612873493E+01  0.16572892605E+01  0.51100000000E-03 0. -1.
        -11    1    3    3    0    0 -0.17458701049E+02  0.10094821140E+02  0.36840624313E+02  0.41999324473E+02  0.51100000000E-03 0.  1.
        -12    1    3    3    0    0  0.71816795279E+00  0.36973843895E+00  0.23507988089E+01  0.24857044799E+01  0.00000000000E+00 0.  1.
</event>
<event>
 7    1  0.1541902E-008  0.4614231E+02  0.7816164E-02  0.1320468E+00
        -11   -1    0    0    0    0  0.00000000000E+00  0.00000000000E+00  0.45593999997E+02  0.45594000000E+02  0.51100000000E-03 0.  1.
         11   -1    0    0    0    0 -0.00000000000E+00 -0.00000000000E+00 -0.45593999997E+02  0.45594000000E+02  0.51100000000E-03 0. -1.
    9900012    2    1    2    0    0 -0.22328692309E+02  0.16383117447E+02  0.35526565653E+02  0.46142313140E+02  0.99999578624E+01 0.  0.
         12    1    1    2    0    0  0.22328692309E+02 -0.16383117447E+02 -0.35526565653E+02  0.45045686860E+02  0.00000000000E+00 0. -1.
         11    1    3    3    0    0 -0.48402375674E+01  0.15680872119E+01  0.24945477650E+01  0.56665303340E+01  0.51100000000E-03 0. -1.
        -11    1    3    3    0    0 -0.13221691530E+02  0.12487760782E+02  0.28632042501E+02  0.33919775269E+02  0.51100000000E-03 0.  1.
        -12    1    3    3    0    0 -0.42667632120E+01  0.23272694536E+01  0.43999753875E+01  0.65560075371E+01  0.00000000000E+00 0.  1.
</event>
<event>
 7    1  0.1541902E-008  0.4614232E+02  0.7816164E-02  0.1320468E+00
        -11   -1    0    0    0    0  0.00000000000E+00  0.00000000000E+00  0.45593999997E+02  0.45594000000E+02  0.51100000000E-03 0.  1.
         11   -1    0    0    0    0 -0.00000000000E+00 -0.00000000000E+00 -0.45593999997E+02  0.45594000000E+02  0.51100000000E-03 0. -1.
    9900012    2    1    2    0    0  0.32053355393E+02  0.26097358903E+02  0.17905969349E+02  0.46142317943E+02  0.10000001658E+02 0.  0.
         12    1    1    2    0    0 -0.32053355393E+02 -0.26097358903E+02 -0.17905969349E+02  0.45045682057E+02  0.00000000000E+00 0. -1.
         11    1    3    3    0    0  0.22461797555E+01  0.32634273423E+01  0.24933924219E+00  0.39695656980E+01  0.51100000000E-03 0. -1.
        -11    1    3    3    0    0  0.21075137247E+02  0.15013975504E+02  0.15761912724E+02  0.30298824456E+02  0.51100000000E-03 0.  1.
        -12    1    3    3    0    0  0.87320383904E+01  0.78199560569E+01  0.18947173824E+01  0.11873927789E+02  0.00000000000E+00 0.  1.
</event>
<event>
 7    1  0.1541902E-008  0.4614232E+02  0.7816164E-02  0.1320468E+00
        -11   -1    0    0    0    0  0.00000000000E+00  0.00000000000E+00  0.45593999997E+02  0.45594000000E+02  0.51100000000E-03 0.  1.
         11   -1    0    0    0    0 -0.00000000000E+00 -0.00000000000E+00 -0.45593999997E+02  0.45594000000E+02  0.51100000000E-03 0. -1.
    9900012    2    1    2    0    0 -0.18123840750E-01 -0.34011061705E+02  0.29535757555E+02  0.46142316288E+02  0.99999865660E+01 0.  0.
         12    1    1    2    0    0  0.18123840750E-01  0.34011061705E+02 -0.29535757555E+02  0.45045683712E+02  0.00000000000E+00 0. -1.
         11    1    3    3    0    0 -0.22822192871E+01 -0.10260146474E+02  0.54225591241E+01  0.11827226144E+02  0.51100000000E-03 0. -1.
        -11    1    3    3    0    0  0.74330005461E+00 -0.11420576021E+02  0.15190031126E+02  0.19018914204E+02  0.51100000000E-03 0.  1.
         12    1    3    3    0    0  0.15207953917E+01 -0.12330339209E+02  0.89231673053E+01  0.15296175940E+02  0.00000000000E+00 0. -1.
</event>
<event>
 7    1  0.1541902E-008  0.4614232E+02  0.7816164E-02  0.1320468E+00
        -11   -1    0    0    0    0  0.00000000000E+00  0.00000000000E+00  0.45593999997E+02  0.45594000000E+02  0.51100000000E-03 0.  1.
         11   -1    0    0    0    0 -0.00000000000E+00 -0.00000000000E+00 -0.45593999997E+02  0.45594000000E+02  0.51100000000E-03 0. -1.
    9900012    2    1    2    0    0  0.39476717890E+02  0.20996345738E+02  0.54640436421E+01  0.46142316937E+02  0.99999924820E+01 0.  0.
         12    1    1    2    0    0 -0.39476717890E+02 -0.20996345738E+02 -0.54640436421E+01  0.45045683063E+02  0.00000000000E+00 0. -1.
         11    1    3    3    0    0  0.24171749203E+02  0.84092923487E+01  0.44026521559E+01  0.25968692759E+02  0.51100000000E-03 0. -1.
        -11    1    3    3    0    0  0.46760080876E+01  0.60519661551E+01  0.84477460992E+00  0.76944779147E+01  0.51100000000E-03 0.  1.
         12    1    3    3    0    0  0.10628960600E+02  0.65350872341E+01  0.21661687634E+00  0.12479146263E+02  0.00000000000E+00 0. -1.
</event>
<event>
 7    1  0.1541902E-008  0.4614232E+02  0.7816164E-02  0.1320468E+00
        -11   -1    0    0    0    0  0.00000000000E+00  0.00000000000E+00  0.45593999997E+02  0.45594000000E+02  0.51100000000E-03 0.  1.
         11   -1    0    0    0    0 -0.00000000000E+00 -0.00000000000E+00 -0.45593999997E+02  0.45594000000E+02  0.51100000000E-03 0. -1.
    9900012    2    1    2    0    0 -0.46708202403E+01 -0.29627499206E+02  0.33608156716E+02  0.46142317979E+02  0.10000001984E+02 0.  0.
         12    1    1    2    0    0  0.46708202403E+01  0.29627499206E+02 -0.33608156716E+02  0.45045682021E+02  0.00000000000E+00 0. -1.
         11    1    3    3    0    0 -0.11200274247E+01 -0.21327772693E+02  0.27456696517E+02  0.34785033180E+02  0.51100000000E-03 0. -1.
        -11    1    3    3    0    0 -0.34705986233E+01 -0.64785506362E+01  0.60706604807E+01  0.95325543314E+01  0.51100000000E-03 0.  1.
         12    1    3    3    0    0 -0.80194192313E-01 -0.18211758765E+01  0.80799718601E-01  0.18247304667E+01  0.00000000000E+00 0. -1.
</event>
<event>
 7    1  0.1541902E-008  0.4614232E+02  0.7816164E-02  0.1320468E+00
        -11   -1    0    0    0    0  0.00000000000E+00  0.00000000000E+00  0.45593999997E+02  0.45594000000E+02  0.51100000000E-03 0. -1.
         11   -1    0    0    0    0 -0.00000000000E+00 -0.00000000000E+00 -0.45593999997E+02  0.45594000000E+02  0.51100000000E-03 0.  1.
    9900012    2    1    2    0    0  0.33089250126E+02 -0.26903843421E+02 -0.14505107260E+02  0.46142318727E+02  0.10000008810E+02 0.  0.
         12    1    1    2    0    0 -0.33089250126E+02  0.26903843421E+02  0.14505107260E+02  0.45045681273E+02  0.00000000000E+00 0. -1.
         11    1    3    3    0    0  0.64879656335E+01 -0.77070694181E+01 -0.55465397142E+01  0.11500292176E+02  0.51100000000E-03 0. -1.
        -11    1    3    3    0    0  0.13862585165E+02 -0.60325691160E+01 -0.47402175885E+01  0.15844015294E+02  0.51100000000E-03 0.  1.
        -12    1    3    3    0    0  0.12738699327E+02 -0.13164204887E+02 -0.42183499575E+01  0.18798011257E+02  0.00000000000E+00 0.  1.
</event>
<event>
 7    1  0.1541902E-008  0.4614232E+02  0.7816164E-02  0.1320468E+00
        -11   -1    0    0    0    0  0.00000000000E+00  0.00000000000E+00  0.45593999997E+02  0.45594000000E+02  0.51100000000E-03 0. -1.
         11   -1    0    0    0    0 -0.00000000000E+00 -0.00000000000E+00 -0.45593999997E+02  0.45594000000E+02  0.51100000000E-03 0.  1.
    9900012    2    1    2    0    0  0.40252793591E+02  0.64045611729E+01 -0.19178312308E+02  0.46142318091E+02  0.10000003007E+02 0.  0.
         12    1    1    2    0    0 -0.40252793591E+02 -0.64045611729E+01  0.19178312308E+02  0.45045681909E+02  0.00000000000E+00 0. -1.
         11    1    3    3    0    0  0.24413683623E+01  0.13049716917E+01  0.69110988060E+00  0.28532198872E+01  0.51100000000E-03 0. -1.
        -11    1    3    3    0    0  0.21177316625E+02  0.48528497678E+01 -0.97189438326E+01  0.23800982328E+02  0.51100000000E-03 0.  1.
         12    1    3    3    0    0  0.16634108604E+02  0.24673971341E+00 -0.10150478356E+02  0.19488115876E+02  0.00000000000E+00 0. -1.
</event>
<event>
 7    1  0.1541902E-008  0.4614232E+02  0.7816164E-02  0.1320468E+00
        -11   -1    0    0    0    0  0.00000000000E+00  0.00000000000E+00  0.45593999997E+02  0.45594000000E+02  0.51100000000E-03 0.  1.
         11   -1    0    0    0    0 -0.00000000000E+00 -0.00000000000E+00 -0.45593999997E+02  0.45594000000E+02  0.51100000000E-03 0. -1.
    9900012    2    1    2    0    0 -0.28475045405E+01 -0.11423365965E+02  0.43480017578E+02  0.46142317625E+02  0.99999987570E+01 0.  0.
         12    1    1    2    0    0  0.28475045405E+01  0.11423365965E+02 -0.43480017578E+02  0.45045682375E+02  0.00000000000E+00 0. -1.
         11    1    3    3    0    0 -0.47778554764E+00  0.52872637797E+00  0.77133047015E+01  0.77461539031E+01  0.51100000000E-03 0. -1.
        -11    1    3    3    0    0  0.19897801215E+01 -0.73737433174E+01  0.20084631044E+02  0.21487757442E+02  0.51100000000E-03 0.  1.
         12    1    3    3    0    0 -0.43594991144E+01 -0.45783490254E+01  0.15682081832E+02  0.16908406280E+02  0.00000000000E+00 0. -1.
</event>
<event>
 7    1  0.1541902E-008  0.4614232E+02  0.7816164E-02  0.1320468E+00
        -11   -1    0    0    0    0  0.00000000000E+00  0.00000000000E+00  0.45593999997E+02  0.45594000000E+02  0.51100000000E-03 0.  1.
         11   -1    0    0    0    0 -0.00000000000E+00 -0.00000000000E+00 -0.45593999997E+02  0.45594000000E+02  0.51100000000E-03 0. -1.
    9900012    2    1    2    0    0  0.33248980819E+02  0.13932609748E+02  0.27009279499E+02  0.46142317421E+02  0.99999969032E+01 0.  0.
         12    1    1    2    0    0 -0.33248980819E+02 -0.13932609748E+02 -0.27009279499E+02  0.45045682579E+02  0.00000000000E+00 0. -1.
         11    1    3    3    0    0  0.12161122977E+02  0.23301115567E+01  0.64608840270E+01  0.13966579918E+02  0.51100000000E-03 0. -1.
        -11    1    3    3    0    0  0.26618217401E+01  0.29971999614E+01  0.14081058276E+01  0.42486780141E+01  0.51100000000E-03 0.  1.
        -12    1    3    3    0    0  0.18426036102E+02  0.86052982303E+01  0.19140289645E+02  0.27927059490E+02  0.00000000000E+00 0.  1.
</event>
<event>
 7    1  0.1541902E-008  0.4614232E+02  0.7816164E-02  0.1320468E+00
        -11   -1    0    0    0    0  0.00000000000E+00  0.00000000000E+00  0.45593999997E+02  0.45594000000E+02  0.51100000000E-03 0.  1.
         11   -1    0    0    0    0 -0.00000000000E+00 -0.00000000000E+00 -0.45593999997E+02  0.45594000000E+02  0.51100000000E-03 0. -1.
    9900012    2    1    2    0    0  0.23649433430E+01  0.85452364090E+01  0.44164460519E+02  0.46142316575E+02  0.99999891839E+01 0.  0.
         12    1    1    2    0    0 -0.23649433430E+01 -0.85452364090E+01 -0.44164460519E+02  0.45045683425E+02  0.00000000000E+00 0. -1.
         11    1    3    3    0    0  0.46056992768E+01  0.43533935285E+01  0.30092531124E+02  0.30752641037E+02  0.51100000000E-03 0. -1.
        -11    1    3    3    0    0 -0.30249288657E+01  0.34139780105E+01  0.13249266203E+02  0.14012440747E+02  0.51100000000E-03 0.  1.
         12    1    3    3    0    0  0.78417293185E+00  0.77786486997E+00  0.82266319180E+00  0.13772347912E+01  0.00000000000E+00 0. -1.
</event>
<event>
 7    1  0.1541902E-008  0.4614232E+02  0.7816164E-02  0.1320468E+00
        -11   -1    0    0    0    0  0.00000000000E+00  0.00000000000E+00  0.45593999997E+02  0.45594000000E+02  0.51100000000E-03 0. -1.
         11   -1    0    0    0    0 -0.00000000000E+00 -0.00000000000E+00 -0.45593999997E+02  0.45594000000E+02  0.51100000000E-03 0.  1.
    9900012    2    1    2    0    0  0.13090777796E+02  0.38494536257E+02 -0.19388548233E+02  0.46142316661E+02  0.99999899639E+01 0.  0.
         12    1    1    2    0    0 -0.13090777796E+02 -0.38494536257E+02  0.19388548233E+02  0.45045683339E+02  0.00000000000E+00 0. -1.
         11    1    3    3    0    0 -0.96215047672E+00  0.94169458463E+01 -0.49468141786E+01  0.10680616714E+02  0.51100000000E-03 0. -1.
        -11    1    3    3    0    0  0.96884729732E+01  0.22426040063E+02 -0.10691985016E+02  0.26666689432E+02  0.51100000000E-03 0.  1.
         12    1    3    3    0    0  0.43644552993E+01  0.66515503481E+01 -0.37497490383E+01  0.87950105141E+01  0.00000000000E+00 0. -1.
</event>
<event>
 7    1  0.1541902E-008  0.4614232E+02  0.7816164E-02  0.1320468E+00
        -11   -1    0    0    0    0  0.00000000000E+00  0.00000000000E+00  0.45593999997E+02  0.45594000000E+02  0.51100000000E-03 0.  1.
         11   -1    0    0    0    0 -0.00000000000E+00 -0.00000000000E+00 -0.45593999997E+02  0.45594000000E+02  0.51100000000E-03 0. -1.
    9900012    2    1    2    0    0  0.15613234098E+01 -0.48957076843E+01  0.44751622976E+02  0.46142318259E+02  0.10000004542E+02 0.  0.
         12    1    1    2    0    0 -0.15613234098E+01  0.48957076843E+01 -0.44751622976E+02  0.45045681741E+02  0.00000000000E+00 0. -1.
         11    1    3    3    0    0 -0.73628142375E+00 -0.24671705447E+01  0.48297248091E+01  0.54731419518E+01  0.51100000000E-03 0. -1.
        -11    1    3    3    0    0  0.43009786473E+01  0.34310853026E+00  0.23903448595E+02  0.24289730253E+02  0.51100000000E-03 0.  1.
        -12    1    3    3    0    0 -0.20033738137E+01 -0.27716456699E+01  0.16018449572E+02  0.16379446054E+02  0.00000000000E+00 0.  1.
</event>
<event>
 7    1  0.1541902E-008  0.4614232E+02  0.7816164E-02  0.1320468E+00
        -11   -1    0    0    0    0  0.00000000000E+00  0.00000000000E+00  0.45593999997E+02  0.45594000000E+02  0.51100000000E-03 0.  1.
         11   -1    0    0    0    0 -0.00000000000E+00 -0.00000000000E+00 -0.45593999997E+02  0.45594000000E+02  0.51100000000E-03 0. -1.
    9900012    2    1    2    0    0 -0.21239300020E+02 -0.11693581899E+02  0.37964005206E+02  0.46142318583E+02  0.10000007498E+02 0.  0.
         12    1    1    2    0    0  0.21239300020E+02  0.11693581899E+02 -0.37964005206E+02  0.45045681417E+02  0.00000000000E+00 0. -1.
         11    1    3    3    0    0 -0.14134120555E+02 -0.36053440345E+01  0.25258439093E+02  0.29167800999E+02  0.51100000000E-03 0. -1.
        -11    1    3    3    0    0 -0.53454774602E+01 -0.40389252911E+01  0.89387259996E+01  0.11170849097E+02  0.51100000000E-03 0.  1.
         12    1    3    3    0    0 -0.17597020047E+01 -0.40493125737E+01  0.37668401140E+01  0.58036684871E+01  0.00000000000E+00 0. -1.
</event>
<event>
 7    1  0.1541902E-008  0.4614232E+02  0.7816164E-02  0.1320468E+00
        -11   -1    0    0    0    0  0.00000000000E+00  0.00000000000E+00  0.45593999997E+02  0.45594000000E+02  0.51100000000E-03 0.  1.
         11   -1    0    0    0    0 -0.00000000000E+00 -0.00000000000E+00 -0.45593999997E+02  0.45594000000E+02  0.51100000000E-03 0. -1.
    9900012    2    1    2    0    0  0.13599044413E+02 -0.23066895843E+01  0.42881915100E+02  0.46142317982E+02  0.10000002013E+02 0.  0.
         12    1    1    2    0    0 -0.13599044413E+02  0.23066895843E+01 -0.42881915100E+02  0.45045682018E+02  0.00000000000E+00 0. -1.
         11    1    3    3    0    0  0.42636975700E+01 -0.37238803457E+01  0.19179929493E+02  0.19997902326E+02  0.51100000000E-03 0. -1.
        -11    1    3    3    0    0  0.73875771494E+01  0.18701608421E+01  0.11606204619E+02  0.13884443944E+02  0.51100000000E-03 0.  1.
        -12    1    3    3    0    0  0.19477696939E+01 -0.45297008063E+00  0.12095780988E+02  0.12259971712E+02  0.00000000000E+00 0.  1.
</event>
<event>
 7    1  0.1541902E-008  0.4614232E+02  0.7816164E-02  0.1320468E+00
        -11   -1    0    0    0    0  0.00000000000E+00  0.00000000000E+00  0.45593999997E+02  0.45594000000E+02  0.51100000000E-03 0.  1.
         11   -1    0    0    0    0 -0.00000000000E+00 -0.00000000000E+00 -0.45593999997E+02  0.45594000000E+02  0.51100000000E-03 0. -1.
    9900012    2    1    2    0    0 -0.27243147917E+02  0.18245640510E+02  0.30887231811E+02  0.46142316577E+02  0.99999892067E+01 0.  0.
         12    1    1    2    0    0  0.27243147917E+02 -0.18245640510E+02 -0.30887231811E+02  0.45045683423E+02  0.00000000000E+00 0. -1.
         11    1    3    3    0    0 -0.18665174443E+01 -0.32482983917E+00  0.13724023757E+01  0.23394209404E+01  0.51100000000E-03 0. -1.
        -11    1    3    3    0    0 -0.32389371925E+01  0.19804727194E+01  0.76540882389E+01  0.85438898260E+01  0.51100000000E-03 0.  1.
        -12    1    3    3    0    0 -0.22137693280E+02  0.16589997630E+02  0.21860741196E+02  0.35259005811E+02  0.00000000000E+00 0.  1.
</event>
<event>
 7    1  0.1541902E-008  0.4614232E+02  0.7816164E-02  0.1320468E+00
        -11   -1    0    0    0    0  0.00000000000E+00  0.00000000000E+00  0.45593999997E+02  0.45594000000E+02  0.51100000000E-03 0.  1.
         11   -1    0    0    0    0 -0.00000000000E+00 -0.00000000000E+00 -0.45593999997E+02  0.45594000000E+02  0.51100000000E-03 0. -1.
    9900012    2    1    2    0    0  0.17500191878E+02 -0.19129437017E+02  0.36836414517E+02  0.46142317512E+02  0.99999977299E+01 0.  0.
         12    1    1    2    0    0 -0.17500191878E+02  0.19129437017E+02 -0.36836414517E+02  0.45045682488E+02  0.00000000000E+00 0. -1.
         11    1    3    3    0    0  0.63385961754E+01 -0.31780257292E+01  0.65505231020E+01  0.96533415034E+01  0.51100000000E-03 0. -1.
        -11    1    3    3    0    0  0.53494197227E+01 -0.36977005843E+01  0.12827558547E+02  0.14381778037E+02  0.51100000000E-03 0.  1.
        -12    1    3    3    0    0  0.58121759799E+01 -0.12253710704E+02  0.17458332868E+02  0.22107197972E+02  0.00000000000E+00 0.  1.
</event>
<event>
 7    1  0.1541902E-008  0.4614232E+02  0.7816164E-02  0.1320468E+00
        -11   -1    0    0    0    0  0.00000000000E+00  0.00000000000E+00  0.45593999997E+02  0.45594000000E+02  0.51100000000E-03 0. -1.
         11   -1    0    0    0    0 -0.00000000000E+00 -0.00000000000E+00 -0.45593999997E+02  0.45594000000E+02  0.51100000000E-03 0.  1.
    9900012    2    1    2    0    0  0.24395125952E+02  0.57396712712E+01 -0.37430568503E+02  0.46142318132E+02  0.10000003385E+02 0.  0.
         12    1    1    2    0    0 -0.24395125952E+02 -0.57396712712E+01  0.37430568503E+02  0.45045681868E+02  0.00000000000E+00 0. -1.
         11    1    3    3    0    0  0.12127606579E+01  0.20189442414E+00 -0.65286165193E+01  0.66433714099E+01  0.51100000000E-03 0. -1.
        -11    1    3    3    0    0  0.18086582314E+02  0.66386139337E+01 -0.25844209334E+02  0.32235365844E+02  0.51100000000E-03 0.  1.
         12    1    3    3    0    0  0.50957829796E+01 -0.11008370867E+01 -0.50577426496E+01  0.72635808783E+01  0.00000000000E+00 0. -1.
</event>
<event>
 7    1  0.1541902E-008  0.4614231E+02  0.7816164E-02  0.1320468E+00
        -11   -1    0    0    0    0  0.00000000000E+00  0.00000000000E+00  0.45593999997E+02  0.45594000000E+02  0.51100000000E-03 0.  1.
         11   -1    0    0    0    0 -0.00000000000E+00 -0.00000000000E+00 -0.45593999997E+02  0.45594000000E+02  0.51100000000E-03 0. -1.
    9900012    2    1    2    0    0 -0.15376052835E+02  0.41415832632E+02  0.87988631566E+01  0.46142310015E+02  0.99999293661E+01 0.  0.
         12    1    1    2    0    0  0.15376052835E+02 -0.41415832632E+02 -0.87988631566E+01  0.45045689985E+02  0.00000000000E+00 0. -1.
         11    1    3    3    0    0 -0.13072943106E+01  0.11528064156E+02 -0.21224164512E+00  0.11603892812E+02  0.51100000000E-03 0. -1.
        -11    1    3    3    0    0 -0.11377208945E+02  0.27327958017E+02  0.75704167271E+01  0.30554367650E+02  0.51100000000E-03 0.  1.
         12    1    3    3    0    0 -0.26915495797E+01  0.25598104577E+01  0.14406880746E+01  0.39840495539E+01  0.00000000000E+00 0. -1.
</event>
<event>
 7    1  0.1541902E-008  0.4614232E+02  0.7816164E-02  0.1320468E+00
        -11   -1    0    0    0    0  0.00000000000E+00  0.00000000000E+00  0.45593999997E+02  0.45594000000E+02  0.51100000000E-03 0. -1.
         11   -1    0    0    0    0 -0.00000000000E+00 -0.00000000000E+00 -0.45593999997E+02  0.45594000000E+02  0.51100000000E-03 0.  1.
    9900012    2    1    2    0    0  0.36558653587E+02  0.24981074962E+02 -0.82779409847E+01  0.46142316907E+02  0.99999922151E+01 0.  0.
         12    1    1    2    0    0 -0.36558653587E+02 -0.24981074962E+02  0.82779409847E+01  0.45045683093E+02  0.00000000000E+00 0. -1.
         11    1    3    3    0    0  0.67454557015E+01  0.38861111946E+01 -0.42813734014E+01  0.88844353395E+01  0.51100000000E-03 0. -1.
        -11    1    3    3    0    0  0.29160930938E+02  0.21534802610E+02 -0.40044891975E+01  0.36471133114E+02  0.51100000000E-03 0.  1.
        -12    1    3    3    0    0  0.65226694728E+00 -0.43983884254E+00  0.79216142576E-02  0.78674845401E+00  0.00000000000E+00 0.  1.
</event>
<event>
 7    1  0.1541902E-008  0.4614232E+02  0.7816164E-02  0.1320468E+00
        -11   -1    0    0    0    0  0.00000000000E+00  0.00000000000E+00  0.45593999997E+02  0.45594000000E+02  0.51100000000E-03 0. -1.
         11   -1    0    0    0    0 -0.00000000000E+00 -0.00000000000E+00 -0.45593999997E+02  0.45594000000E+02  0.51100000000E-03 0.  1.
    9900012    2    1    2    0    0 -0.66267318818E+01 -0.24209054759E+02 -0.37404835001E+02  0.46142316642E+02  0.99999897944E+01 0.  0.
         12    1    1    2    0    0  0.66267318818E+01  0.24209054759E+02  0.37404835001E+02  0.45045683358E+02  0.00000000000E+00 0. -1.
         11    1    3    3    0    0 -0.33397440867E+01 -0.57606670557E+01 -0.38555419421E+01  0.76944382134E+01  0.51100000000E-03 0. -1.
        -11    1    3    3    0    0 -0.18532409374E+01 -0.10145635962E+02 -0.19716575497E+02  0.22251107402E+02  0.51100000000E-03 0.  1.
         12    1    3    3    0    0 -0.14337468577E+01 -0.83027517417E+01 -0.13832717562E+02  0.16196771026E+02  0.00000000000E+00 0. -1.
</event>
<event>
 7    1  0.1541902E-008  0.4614232E+02  0.7816164E-02  0.1320468E+00
        -11   -1    0    0    0    0  0.00000000000E+00  0.00000000000E+00  0.45593999997E+02  0.45594000000E+02  0.51100000000E-03 0.  1.
         11   -1    0    0    0    0 -0.00000000000E+00 -0.00000000000E+00 -0.45593999997E+02  0.45594000000E+02  0.51100000000E-03 0. -1.
    9900012    2    1    2    0    0 -0.83706684961E+01 -0.16040079846E+02  0.41252408747E+02  0.46142317854E+02  0.10000000849E+02 0.  0.
         12    1    1    2    0    0  0.83706684961E+01  0.16040079846E+02 -0.41252408747E+02  0.45045682146E+02  0.00000000000E+00 0. -1.
         11    1    3    3    0    0 -0.10077253029E+01 -0.10988315453E+02  0.27292920191E+02  0.29439124980E+02  0.51100000000E-03 0. -1.
        -11    1    3    3    0    0 -0.28190881308E+01 -0.78888677768E+00  0.49057528796E+01  0.57127936961E+01  0.51100000000E-03 0.  1.
         12    1    3    3    0    0 -0.45438550624E+01 -0.42628776148E+01  0.90537356764E+01  0.10990399178E+02  0.00000000000E+00 0. -1.
</event>
<event>
 7    1  0.1541902E-008  0.4614232E+02  0.7816164E-02  0.1320468E+00
        -11   -1    0    0    0    0  0.00000000000E+00  0.00000000000E+00  0.45593999997E+02  0.45594000000E+02  0.51100000000E-03 0.  1.
         11   -1    0    0    0    0 -0.00000000000E+00 -0.00000000000E+00 -0.45593999997E+02  0.45594000000E+02  0.51100000000E-03 0. -1.
    9900012    2    1    2    0    0 -0.59088153305E+01 -0.38175574214E+02  0.23169481769E+02  0.46142318181E+02  0.10000003826E+02 0.  0.
         12    1    1    2    0    0  0.59088153305E+01  0.38175574214E+02 -0.23169481769E+02  0.45045681819E+02  0.00000000000E+00 0. -1.
         11    1    3    3    0    0 -0.30757800297E+01 -0.64387908731E+01  0.11004123561E+01  0.72200663649E+01  0.51100000000E-03 0. -1.
        -11    1    3    3    0    0 -0.35778017506E+01 -0.29055553449E+02  0.19999271910E+02  0.35454149669E+02  0.51100000000E-03 0.  1.
        -12    1    3    3    0    0  0.74476644976E+00 -0.26812298914E+01  0.20697975030E+01  0.34681021465E+01  0.00000000000E+00 0.  1.
</event>
<event>
 7    1  0.1541902E-008  0.4614232E+02  0.7816164E-02  0.1320468E+00
        -11   -1    0    0    0    0  0.00000000000E+00  0.00000000000E+00  0.45593999997E+02  0.45594000000E+02  0.51100000000E-03 0.  1.
         11   -1    0    0    0    0 -0.00000000000E+00 -0.00000000000E+00 -0.45593999997E+02  0.45594000000E+02  0.51100000000E-03 0. -1.
    9900012    2    1    2    0    0 -0.15137634781E+02 -0.85288472157E+01  0.41559888937E+02  0.46142316633E+02  0.99999897114E+01 0.  0.
         12    1    1    2    0    0  0.15137634781E+02  0.85288472157E+01 -0.41559888937E+02  0.45045683367E+02  0.00000000000E+00 0. -1.
         11    1    3    3    0    0 -0.11614625410E+02 -0.33494134404E+01  0.23164611097E+02  0.26128859549E+02  0.51100000000E-03 0.  1.
        -11    1    3    3    0    0 -0.15269217430E+01 -0.24199199133E+01  0.14749032495E+02  0.15024029493E+02  0.51100000000E-03 0. -1.
         12    1    3    3    0    0 -0.19960876275E+01 -0.27595138620E+01  0.36462453452E+01  0.49894275913E+01  0.00000000000E+00 0. -1.
</event>
<event>
 7    1  0.1541902E-008  0.4614232E+02  0.7816164E-02  0.1320468E+00
        -11   -1    0    0    0    0  0.00000000000E+00  0.00000000000E+00  0.45593999997E+02  0.45594000000E+02  0.51100000000E-03 0.  1.
         11   -1    0    0    0    0 -0.00000000000E+00 -0.00000000000E+00 -0.45593999997E+02  0.45594000000E+02  0.51100000000E-03 0. -1.
    9900012    2    1    2    0    0  0.24641227118E+02  0.14465733632E+01  0.37680642964E+02  0.46142317604E+02  0.99999985634E+01 0.  0.
         12    1    1    2    0    0 -0.24641227118E+02 -0.14465733632E+01 -0.37680642964E+02  0.45045682396E+02  0.00000000000E+00 0. -1.
         11    1    3    3    0    0  0.16797049675E+02 -0.19595971591E+01  0.19762839861E+02  0.26010588968E+02  0.51100000000E-03 0.  1.
        -11    1    3    3    0    0  0.68503258406E+01  0.40309816723E+01  0.14782651462E+02  0.16783997196E+02  0.51100000000E-03 0. -1.
         12    1    3    3    0    0  0.99385160203E+00 -0.62481115000E+00  0.31351516413E+01  0.33477314399E+01  0.00000000000E+00 0. -1.
</event>
<event>
 7    1  0.1541902E-008  0.4614232E+02  0.7816164E-02  0.1320468E+00
        -11   -1    0    0    0    0  0.00000000000E+00  0.00000000000E+00  0.45593999997E+02  0.45594000000E+02  0.51100000000E-03 0.  1.
         11   -1    0    0    0    0 -0.00000000000E+00 -0.00000000000E+00 -0.45593999997E+02  0.45594000000E+02  0.51100000000E-03 0. -1.
    9900012    2    1    2    0    0 -0.34117258234E+02  0.13113380978E+02  0.26328033772E+02  0.46142318383E+02  0.10000005667E+02 0.  0.
         12    1    1    2    0    0  0.34117258234E+02 -0.13113380978E+02 -0.26328033772E+02  0.45045681617E+02  0.00000000000E+00 0. -1.
         11    1    3    3    0    0 -0.13329868799E+00 -0.47861987899E+00  0.19524882190E+01  0.20147099135E+01  0.51100000000E-03 0. -1.
        -11    1    3    3    0    0 -0.18294375845E+02  0.53511769737E+01  0.12457626942E+02  0.22770853121E+02  0.51100000000E-03 0.  1.
         12    1    3    3    0    0 -0.15689583701E+02  0.82408238835E+01  0.11917918611E+02  0.21356755348E+02  0.00000000000E+00 0. -1.
</event>
<event>
 7    1  0.1541902E-008  0.4614232E+02  0.7816164E-02  0.1320468E+00
        -11   -1    0    0    0    0  0.00000000000E+00  0.00000000000E+00  0.45593999997E+02  0.45594000000E+02  0.51100000000E-03 0.  1.
         11   -1    0    0    0    0 -0.00000000000E+00 -0.00000000000E+00 -0.45593999997E+02  0.45594000000E+02  0.51100000000E-03 0. -1.
    9900012    2    1    2    0    0  0.28798695409E+01 -0.30049530971E+01  0.44852983476E+02  0.46142317428E+02  0.99999969645E+01 0.  0.
         12    1    1    2    0    0 -0.28798695409E+01  0.30049530971E+01 -0.44852983476E+02  0.45045682572E+02  0.00000000000E+00 0. -1.
         11    1    3    3    0    0  0.38589264157E+01 -0.44738312380E+01  0.34517067758E+02  0.35019058324E+02  0.51100000000E-03 0. -1.
        -11    1    3    3    0    0 -0.15513810933E+01  0.24148239372E+00  0.92640015077E+01  0.93961067064E+01  0.51100000000E-03 0.  1.
         12    1    3    3    0    0  0.57232421852E+00  0.12273957472E+01  0.10719142098E+01  0.17271523977E+01  0.00000000000E+00 0. -1.
</event>
<event>
 7    1  0.1541902E-008  0.4614232E+02  0.7816164E-02  0.1320468E+00
        -11   -1    0    0    0    0  0.00000000000E+00  0.00000000000E+00  0.45593999997E+02  0.45594000000E+02  0.51100000000E-03 0.  1.
         11   -1    0    0    0    0 -0.00000000000E+00 -0.00000000000E+00 -0.45593999997E+02  0.45594000000E+02  0.51100000000E-03 0. -1.
    9900012    2    1    2    0    0 -0.43289064329E+02  0.65005694345E+01  0.10626052177E+02  0.46142317873E+02  0.10000001017E+02 0.  0.
         12    1    1    2    0    0  0.43289064329E+02 -0.65005694345E+01 -0.10626052177E+02  0.45045682127E+02  0.00000000000E+00 0. -1.
         11    1    3    3    0    0 -0.43958743847E+00  0.15288158179E+01 -0.26939963524E+00  0.16134098505E+01  0.51100000000E-03 0. -1.
        -11    1    3    3    0    0 -0.37885153537E+02  0.41971074116E+01  0.90522009236E+01  0.39177071240E+02  0.51100000000E-03 0.  1.
         12    1    3    3    0    0 -0.49643233537E+01  0.77464620509E+00  0.18432508884E+01  0.53518367820E+01  0.00000000000E+00 0. -1.
</event>
<event>
 7    1  0.1541902E-008  0.4614232E+02  0.7816164E-02  0.1320468E+00
        -11   -1    0    0    0    0  0.00000000000E+00  0.00000000000E+00  0.45593999997E+02  0.45594000000E+02  0.51100000000E-03 0.  1.
         11   -1    0    0    0    0 -0.00000000000E+00 -0.00000000000E+00 -0.45593999997E+02  0.45594000000E+02  0.51100000000E-03 0. -1.
    9900012    2    1    2    0    0  0.44273237216E+02 -0.48040738612E+01  0.67760442879E+01  0.46142318348E+02  0.10000005353E+02 0.  0.
         12    1    1    2    0    0 -0.44273237216E+02  0.48040738612E+01 -0.67760442879E+01  0.45045681652E+02  0.00000000000E+00 0. -1.
         11    1    3    3    0    0  0.19171208499E+02  0.21007899692E+01  0.51526242912E+01  0.19962416967E+02  0.51100000000E-03 0. -1.
        -11    1    3    3    0    0  0.13222768019E+02 -0.26721636524E+01  0.22669555733E+00  0.13491977016E+02  0.51100000000E-03 0.  1.
         12    1    3    3    0    0  0.11879260698E+02 -0.42327001781E+01  0.13967244394E+01  0.12687924365E+02  0.00000000000E+00 0. -1.
</event>
<event>
 7    1  0.1541902E-008  0.4614232E+02  0.7816164E-02  0.1320468E+00
        -11   -1    0    0    0    0  0.00000000000E+00  0.00000000000E+00  0.45593999997E+02  0.45594000000E+02  0.51100000000E-03 0.  1.
         11   -1    0    0    0    0 -0.00000000000E+00 -0.00000000000E+00 -0.45593999997E+02  0.45594000000E+02  0.51100000000E-03 0. -1.
    9900012    2    1    2    0    0  0.24536309513E+02  0.52062551346E+01  0.37416278820E+02  0.46142317657E+02  0.99999990503E+01 0.  0.
         12    1    1    2    0    0 -0.24536309513E+02 -0.52062551346E+01 -0.37416278820E+02  0.45045682343E+02  0.00000000000E+00 0. -1.
         11    1    3    3    0    0  0.13193447936E+02  0.19444804469E+01  0.19046401070E+02  0.23251096030E+02  0.51100000000E-03 0. -1.
        -11    1    3    3    0    0  0.94389114466E+01  0.28862648988E+01  0.18476503915E+02  0.20947667449E+02  0.51100000000E-03 0.  1.
         12    1    3    3    0    0  0.19039501306E+01  0.37550978887E+00 -0.10662616557E+00  0.19435541775E+01  0.00000000000E+00 0. -1.
</event>
<event>
 7    1  0.1541902E-008  0.4614232E+02  0.7816164E-02  0.1320468E+00
        -11   -1    0    0    0    0  0.00000000000E+00  0.00000000000E+00  0.45593999997E+02  0.45594000000E+02  0.51100000000E-03 0.  1.
         11   -1    0    0    0    0 -0.00000000000E+00 -0.00000000000E+00 -0.45593999997E+02  0.45594000000E+02  0.51100000000E-03 0. -1.
    9900012    2    1    2    0    0  0.97389428060E+01 -0.32817477273E+02  0.29279338236E+02  0.46142317975E+02  0.10000001952E+02 0.  0.
         12    1    1    2    0    0 -0.97389428060E+01  0.32817477273E+02 -0.29279338236E+02  0.45045682025E+02  0.00000000000E+00 0. -1.
         11    1    3    3    0    0  0.20554143401E+01 -0.55498189897E+01  0.24561714097E+01  0.64076514561E+01  0.51100000000E-03 0. -1.
        -11    1    3    3    0    0 -0.25994541053E+00 -0.71650341229E+01  0.10194693283E+02  0.12463428781E+02  0.51100000000E-03 0.  1.
        -12    1    3    3    0    0  0.79434738764E+01 -0.20102624160E+02  0.16628473544E+02  0.27271237738E+02  0.00000000000E+00 0.  1.
</event>
<event>
 7    1  0.1541902E-008  0.4614232E+02  0.7816164E-02  0.1320468E+00
        -11   -1    0    0    0    0  0.00000000000E+00  0.00000000000E+00  0.45593999997E+02  0.45594000000E+02  0.51100000000E-03 0.  1.
         11   -1    0    0    0    0 -0.00000000000E+00 -0.00000000000E+00 -0.45593999997E+02  0.45594000000E+02  0.51100000000E-03 0. -1.
    9900012    2    1    2    0    0 -0.11227057379E+02 -0.83902292009E+01  0.42809705981E+02  0.46142315527E+02  0.99999796255E+01 0.  0.
         12    1    1    2    0    0  0.11227057379E+02  0.83902292009E+01 -0.42809705981E+02  0.45045684473E+02  0.00000000000E+00 0. -1.
         11    1    3    3    0    0 -0.81106238828E+01 -0.43344783590E+01  0.17519402638E+02  0.19786343560E+02  0.51100000000E-03 0. -1.
        -11    1    3    3    0    0 -0.30901657650E+01  0.84919775066E-01  0.13809387083E+02  0.14151166301E+02  0.51100000000E-03 0.  1.
         12    1    3    3    0    0 -0.26267731487E-01 -0.41406706170E+01  0.11480916261E+02  0.12204805666E+02  0.00000000000E+00 0. -1.
</event>
<event>
 7    1  0.1541902E-008  0.4614232E+02  0.7816164E-02  0.1320468E+00
        -11   -1    0    0    0    0  0.00000000000E+00  0.00000000000E+00  0.45593999997E+02  0.45594000000E+02  0.51100000000E-03 0.  1.
         11   -1    0    0    0    0 -0.00000000000E+00 -0.00000000000E+00 -0.45593999997E+02  0.45594000000E+02  0.51100000000E-03 0. -1.
    9900012    2    1    2    0    0 -0.47602322435E+01  0.75438525563E+01  0.44153640717E+02  0.46142317510E+02  0.99999977142E+01 0.  0.
         12    1    1    2    0    0  0.47602322435E+01 -0.75438525563E+01 -0.44153640717E+02  0.45045682490E+02  0.00000000000E+00 0. -1.
         11    1    3    3    0    0  0.78684103656E+00  0.42486215155E+01  0.91948078577E+01  0.10159448578E+02  0.51100000000E-03 0. -1.
        -11    1    3    3    0    0 -0.58218014923E+01  0.16257822041E+01  0.19090101723E+02  0.20024198472E+02  0.51100000000E-03 0.  1.
         12    1    3    3    0    0  0.27472821222E+00  0.16694488367E+01  0.15868731136E+02  0.15958670461E+02  0.00000000000E+00 0. -1.
</event>
<event>
 7    1  0.1541902E-008  0.4614232E+02  0.7816164E-02  0.1320468E+00
        -11   -1    0    0    0    0  0.00000000000E+00  0.00000000000E+00  0.45593999997E+02  0.45594000000E+02  0.51100000000E-03 0. -1.
         11   -1    0    0    0    0 -0.00000000000E+00 -0.00000000000E+00 -0.45593999997E+02  0.45594000000E+02  0.51100000000E-03 0.  1.
    9900012    2    1    2    0    0  0.42351273163E+02 -0.12656498131E+02 -0.86773383431E+01  0.46142317808E+02  0.10000000425E+02 0.  0.
         12    1    1    2    0    0 -0.42351273163E+02  0.12656498131E+02  0.86773383431E+01  0.45045682192E+02  0.00000000000E+00 0. -1.
         11    1    3    3    0    0  0.20342865025E+02 -0.31756192882E+01 -0.68053080363E+01  0.21684762692E+02  0.51100000000E-03 0. -1.
        -11    1    3    3    0    0  0.26825410769E+01 -0.25848561633E+01  0.65761468620E+00  0.37828514841E+01  0.51100000000E-03 0.  1.
         12    1    3    3    0    0  0.19325867061E+02 -0.68960226793E+01 -0.25296449930E+01  0.20674703631E+02  0.00000000000E+00 0. -1.
</event>
<event>
 7    1  0.1541902E-008  0.4614232E+02  0.7816164E-02  0.1320468E+00
        -11   -1    0    0    0    0  0.00000000000E+00  0.00000000000E+00  0.45593999997E+02  0.45594000000E+02  0.51100000000E-03 0. -1.
         11   -1    0    0    0    0 -0.00000000000E+00 -0.00000000000E+00 -0.45593999997E+02  0.45594000000E+02  0.51100000000E-03 0.  1.
    9900012    2    1    2    0    0  0.29560209225E+02  0.28906079849E+02 -0.17881446190E+02  0.46142317194E+02  0.99999948284E+01 0.  0.
         12    1    1    2    0    0 -0.29560209225E+02 -0.28906079849E+02  0.17881446190E+02  0.45045682806E+02  0.00000000000E+00 0. -1.
         11    1    3    3    0    0  0.42537524791E+01  0.29343094298E+01  0.16468551967E+00  0.51702711307E+01  0.51100000000E-03 0. -1.
        -11    1    3    3    0    0  0.48155231511E+01  0.88189703083E+01 -0.44466296225E+01  0.10987994165E+02  0.51100000000E-03 0.  1.
        -12    1    3    3    0    0  0.20490933595E+02  0.17152800111E+02 -0.13599502087E+02  0.29984051898E+02  0.00000000000E+00 0.  1.
</event>
<event>
 7    1  0.1541902E-008  0.4614232E+02  0.7816164E-02  0.1320468E+00
        -11   -1    0    0    0    0  0.00000000000E+00  0.00000000000E+00  0.45593999997E+02  0.45594000000E+02  0.51100000000E-03 0. -1.
         11   -1    0    0    0    0 -0.00000000000E+00 -0.00000000000E+00 -0.45593999997E+02  0.45594000000E+02  0.51100000000E-03 0.  1.
    9900012    2    1    2    0    0 -0.39342011517E+02  0.13864989519E+01 -0.21895140141E+02  0.46142318616E+02  0.10000007791E+02 0.  0.
         12    1    1    2    0    0  0.39342011517E+02 -0.13864989519E+01  0.21895140141E+02  0.45045681384E+02  0.00000000000E+00 0. -1.
         11    1    3    3    0    0 -0.37229183571E+01 -0.11599889010E+01 -0.79161077796E+00  0.39789877140E+01  0.51100000000E-03 0. -1.
        -11    1    3    3    0    0 -0.32335001886E+02  0.36663067673E+01 -0.16761460338E+02  0.36605200521E+02  0.51100000000E-03 0.  1.
         12    1    3    3    0    0 -0.32840912742E+01 -0.11198189145E+01 -0.43420690259E+01  0.55581303803E+01  0.00000000000E+00 0. -1.
</event>
<event>
 7    1  0.1541902E-008  0.4614232E+02  0.7816164E-02  0.1320468E+00
        -11   -1    0    0    0    0  0.00000000000E+00  0.00000000000E+00  0.45593999997E+02  0.45594000000E+02  0.51100000000E-03 0.  1.
         11   -1    0    0    0    0 -0.00000000000E+00 -0.00000000000E+00 -0.45593999997E+02  0.45594000000E+02  0.51100000000E-03 0. -1.
    9900012    2    1    2    0    0 -0.40604175583E+02  0.52738387888E+01  0.18777672915E+02  0.46142318182E+02  0.10000003838E+02 0.  0.
         12    1    1    2    0    0  0.40604175583E+02 -0.52738387888E+01 -0.18777672915E+02  0.45045681818E+02  0.00000000000E+00 0. -1.
         11    1    3    3    0    0 -0.15219285014E+02  0.54699729309E+01  0.39397071640E+01  0.16645375724E+02  0.51100000000E-03 0. -1.
        -11    1    3    3    0    0 -0.25114669704E+02 -0.19673350999E+00  0.14922080351E+02  0.29213931962E+02  0.51100000000E-03 0.  1.
        -12    1    3    3    0    0 -0.27022086443E+00  0.59936781219E-03 -0.84114599283E-01  0.28301049562E+00  0.00000000000E+00 0.  1.
</event>
<event>
 7    1  0.1541902E-008  0.4614232E+02  0.7816164E-02  0.1320468E+00
        -11   -1    0    0    0    0  0.00000000000E+00  0.00000000000E+00  0.45593999997E+02  0.45594000000E+02  0.51100000000E-03 0.  1.
         11   -1    0    0    0    0 -0.00000000000E+00 -0.00000000000E+00 -0.45593999997E+02  0.45594000000E+02  0.51100000000E-03 0. -1.
    9900012    2    1    2    0    0  0.26847325463E+02  0.33811604910E+02  0.12849508635E+02  0.46142318927E+02  0.10000010635E+02 0.  0.
         12    1    1    2    0    0 -0.26847325463E+02 -0.33811604910E+02 -0.12849508635E+02  0.45045681073E+02  0.00000000000E+00 0. -1.
         11    1    3    3    0    0  0.18864084526E+02  0.20654949131E+02  0.37093828432E+01  0.28217727228E+02  0.51100000000E-03 0. -1.
        -11    1    3    3    0    0  0.64726252906E+01  0.10171297339E+02  0.67996621027E+01  0.13841444024E+02  0.51100000000E-03 0.  1.
         12    1    3    3    0    0  0.15106156463E+01  0.29853584410E+01  0.23404636893E+01  0.40831476747E+01  0.00000000000E+00 0. -1.
</event>
<event>
 7    1  0.1541902E-008  0.4614232E+02  0.7816164E-02  0.1320468E+00
        -11   -1    0    0    0    0  0.00000000000E+00  0.00000000000E+00  0.45593999997E+02  0.45594000000E+02  0.51100000000E-03 0.  1.
         11   -1    0    0    0    0 -0.00000000000E+00 -0.00000000000E+00 -0.45593999997E+02  0.45594000000E+02  0.51100000000E-03 0. -1.
    9900012    2    1    2    0    0 -0.18946720814E+02  0.42904138419E+01  0.40641453164E+02  0.46142316568E+02  0.99999891239E+01 0.  0.
         12    1    1    2    0    0  0.18946720814E+02 -0.42904138419E+01 -0.40641453164E+02  0.45045683432E+02  0.00000000000E+00 0. -1.
         11    1    3    3    0    0 -0.59695982014E+01  0.79333410129E+00  0.52318999386E+01  0.79773591439E+01  0.51100000000E-03 0. -1.
        -11    1    3    3    0    0 -0.85642585502E+01  0.45518933408E+01  0.23803388027E+02  0.25703453841E+02  0.51100000000E-03 0.  1.
        -12    1    3    3    0    0 -0.44128640627E+01 -0.10548136002E+01  0.11606165198E+02  0.12461503584E+02  0.00000000000E+00 0.  1.
</event>
<event>
 7    1  0.1541902E-008  0.4614232E+02  0.7816164E-02  0.1320468E+00
        -11   -1    0    0    0    0  0.00000000000E+00  0.00000000000E+00  0.45593999997E+02  0.45594000000E+02  0.51100000000E-03 0. -1.
         11   -1    0    0    0    0 -0.00000000000E+00 -0.00000000000E+00 -0.45593999997E+02  0.45594000000E+02  0.51100000000E-03 0.  1.
    9900012    2    1    2    0    0  0.34217754243E+02 -0.27019904591E+02 -0.11321813188E+02  0.46142318704E+02  0.10000008599E+02 0.  0.
         12    1    1    2    0    0 -0.34217754243E+02  0.27019904591E+02  0.11321813188E+02  0.45045681296E+02  0.00000000000E+00 0. -1.
         11    1    3    3    0    0  0.41205149911E+01 -0.15956680234E+01 -0.12193213592E+01  0.45838351924E+01  0.51100000000E-03 0. -1.
        -11    1    3    3    0    0  0.18779525155E+02 -0.11312472345E+02 -0.80417051744E+01  0.23351908230E+02  0.51100000000E-03 0.  1.
        -12    1    3    3    0    0  0.11317714097E+02 -0.14111764223E+02 -0.20607866546E+01  0.18206575282E+02  0.00000000000E+00 0.  1.
</event>
<event>
 7    1  0.1541902E-008  0.4614232E+02  0.7816164E-02  0.1320468E+00
        -11   -1    0    0    0    0  0.00000000000E+00  0.00000000000E+00  0.45593999997E+02  0.45594000000E+02  0.51100000000E-03 0.  1.
         11   -1    0    0    0    0 -0.00000000000E+00 -0.00000000000E+00 -0.45593999997E+02  0.45594000000E+02  0.51100000000E-03 0. -1.
    9900012    2    1    2    0    0 -0.31646938827E+02  0.82081385684E+01  0.30987274321E+02  0.46142318235E+02  0.10000004320E+02 0.  0.
         12    1    1    2    0    0  0.31646938827E+02 -0.82081385684E+01 -0.30987274321E+02  0.45045681765E+02  0.00000000000E+00 0. -1.
         11    1    3    3    0    0 -0.52997999493E+01 -0.57515413036E+00  0.77265391462E+01  0.93871235858E+01  0.51100000000E-03 0. -1.
        -11    1    3    3    0    0 -0.22749923559E+02  0.87859154776E+01  0.17705352483E+02  0.30136868443E+02  0.51100000000E-03 0.  1.
        -12    1    3    3    0    0 -0.35972153183E+01 -0.26227787744E-02  0.55553826914E+01  0.66183262063E+01  0.00000000000E+00 0.  1.
</event>
<event>
 7    1  0.1541902E-008  0.4614232E+02  0.7816164E-02  0.1320468E+00
        -11   -1    0    0    0    0  0.00000000000E+00  0.00000000000E+00  0.45593999997E+02  0.45594000000E+02  0.51100000000E-03 0.  1.
         11   -1    0    0    0    0 -0.00000000000E+00 -0.00000000000E+00 -0.45593999997E+02  0.45594000000E+02  0.51100000000E-03 0. -1.
    9900012    2    1    2    0    0  0.27701087908E+02 -0.19558541533E+01  0.35467418522E+02  0.46142318594E+02  0.10000007591E+02 0.  0.
         12    1    1    2    0    0 -0.27701087908E+02  0.19558541533E+01 -0.35467418522E+02  0.45045681406E+02  0.00000000000E+00 0. -1.
         11    1    3    3    0    0  0.11441666033E+02 -0.35534098572E+01  0.13029752734E+02  0.17700646875E+02  0.51100000000E-03 0. -1.
        -11    1    3    3    0    0  0.64721982834E+00  0.12307530787E+01  0.42859487395E+00  0.14551084063E+01  0.51100000000E-03 0.  1.
        -12    1    3    3    0    0  0.15612202046E+02  0.36680262518E+00  0.22009070914E+02  0.26986563312E+02  0.00000000000E+00 0.  1.
</event>
<event>
 7    1  0.1541902E-008  0.4614232E+02  0.7816164E-02  0.1320468E+00
        -11   -1    0    0    0    0  0.00000000000E+00  0.00000000000E+00  0.45593999997E+02  0.45594000000E+02  0.51100000000E-03 0. -1.
         11   -1    0    0    0    0 -0.00000000000E+00 -0.00000000000E+00 -0.45593999997E+02  0.45594000000E+02  0.51100000000E-03 0.  1.
    9900012    2    1    2    0    0  0.36328399604E+02 -0.14347489801E+02  0.22439036254E+02  0.46142318416E+02  0.10000005968E+02 0.  0.
         12    1    1    2    0    0 -0.36328399604E+02  0.14347489801E+02 -0.22439036254E+02  0.45045681584E+02  0.00000000000E+00 0. -1.
         11    1    3    3    0    0  0.52704329263E+01 -0.35163258206E+01  0.66696913700E+01  0.91992822405E+01  0.51100000000E-03 0. -1.
        -11    1    3    3    0    0  0.22050419219E+02 -0.67530988867E+01  0.13756047126E+02  0.26852451752E+02  0.51100000000E-03 0.  1.
         12    1    3    3    0    0  0.90075474590E+01 -0.40780650941E+01  0.20132977578E+01  0.10090584423E+02  0.00000000000E+00 0. -1.
</event>
<event>
 7    1  0.1541902E-008  0.4614232E+02  0.7816164E-02  0.1320468E+00
        -11   -1    0    0    0    0  0.00000000000E+00  0.00000000000E+00  0.45593999997E+02  0.45594000000E+02  0.51100000000E-03 0. -1.
         11   -1    0    0    0    0 -0.00000000000E+00 -0.00000000000E+00 -0.45593999997E+02  0.45594000000E+02  0.51100000000E-03 0.  1.
    9900012    2    1    2    0    0 -0.13801486720E+02  0.42245512596E+02 -0.73450106870E+01  0.46142317053E+02  0.99999935443E+01 0.  0.
         12    1    1    2    0    0  0.13801486720E+02 -0.42245512596E+02  0.73450106870E+01  0.45045682947E+02  0.00000000000E+00 0. -1.
         11    1    3    3    0    0 -0.10303483652E+02  0.21147770145E+02 -0.18566314158E+01  0.23597394728E+02  0.51100000000E-03 0. -1.
        -11    1    3    3    0    0  0.22566975408E+00  0.97780490843E+01 -0.38727353505E+01  0.10519470048E+02  0.51100000000E-03 0.  1.
        -12    1    3    3    0    0 -0.37236728224E+01  0.11319693367E+02 -0.16156439208E+01  0.12025452278E+02  0.00000000000E+00 0.  1.
</event>
<event>
 7    1  0.1541902E-008  0.4614232E+02  0.7816164E-02  0.1320468E+00
        -11   -1    0    0    0    0  0.00000000000E+00  0.00000000000E+00  0.45593999997E+02  0.45594000000E+02  0.51100000000E-03 0.  1.
         11   -1    0    0    0    0 -0.00000000000E+00 -0.00000000000E+00 -0.45593999997E+02  0.45594000000E+02  0.51100000000E-03 0. -1.
    9900012    2    1    2    0    0  0.26605611810E+02  0.31120653321E+02  0.18781901541E+02  0.46142317983E+02  0.10000002019E+02 0.  0.
         12    1    1    2    0    0 -0.26605611810E+02 -0.31120653321E+02 -0.18781901541E+02  0.45045682017E+02  0.00000000000E+00 0. -1.
         11    1    3    3    0    0  0.67600215396E+01  0.40972823993E+01  0.61973938554E+01  0.10044565951E+02  0.51100000000E-03 0. -1.
        -11    1    3    3    0    0  0.18772756297E+02  0.24697733017E+02  0.10363624749E+02  0.32707783681E+02  0.51100000000E-03 0.  1.
        -12    1    3    3    0    0  0.10728339742E+01  0.23256379051E+01  0.22208829366E+01  0.33899683509E+01  0.00000000000E+00 0.  1.
</event>
<event>
 7    1  0.1541902E-008  0.4614232E+02  0.7816164E-02  0.1320468E+00
        -11   -1    0    0    0    0  0.00000000000E+00  0.00000000000E+00  0.45593999997E+02  0.45594000000E+02  0.51100000000E-03 0.  1.
         11   -1    0    0    0    0 -0.00000000000E+00 -0.00000000000E+00 -0.45593999997E+02  0.45594000000E+02  0.51100000000E-03 0. -1.
    9900012    2    1    2    0    0 -0.39041285680E+01  0.11875378053E+02  0.43276398177E+02  0.46142318043E+02  0.10000002568E+02 0.  0.
         12    1    1    2    0    0  0.39041285680E+01 -0.11875378053E+02 -0.43276398177E+02  0.45045681957E+02  0.00000000000E+00 0. -1.
         11    1    3    3    0    0 -0.46706147060E+01  0.56352484980E+01  0.11491374606E+02  0.13624329633E+02  0.51100000000E-03 0. -1.
        -11    1    3    3    0    0 -0.10367941998E+00  0.59182427188E+01  0.26601262890E+02  0.27251853770E+02  0.51100000000E-03 0.  1.
         12    1    3    3    0    0  0.87016555803E+00  0.32188683650E+00  0.51837606823E+01  0.52661346398E+01  0.00000000000E+00 0. -1.
</event>
<event>
 7    1  0.1541902E-008  0.4614232E+02  0.7816164E-02  0.1320468E+00
        -11   -1    0    0    0    0  0.00000000000E+00  0.00000000000E+00  0.45593999997E+02  0.45594000000E+02  0.51100000000E-03 0.  1.
         11   -1    0    0    0    0 -0.00000000000E+00 -0.00000000000E+00 -0.45593999997E+02  0.45594000000E+02  0.51100000000E-03 0. -1.
    9900012    2    1    2    0    0 -0.15091044345E+02 -0.16712977318E+02  0.39013462394E+02  0.46142317874E+02  0.10000001027E+02 0.  0.
         12    1    1    2    0    0  0.15091044345E+02  0.16712977318E+02 -0.39013462394E+02  0.45045682126E+02  0.00000000000E+00 0. -1.
         11    1    3    3    0    0 -0.13430897545E+00 -0.38420152792E+01  0.36920595180E+01  0.53301429674E+01  0.51100000000E-03 0. -1.
        -11    1    3    3    0    0 -0.13278466403E+02 -0.12851394273E+02  0.33914431496E+02  0.38622074889E+02  0.51100000000E-03 0.  1.
        -12    1    3    3    0    0 -0.16782689666E+01 -0.19567765971E-01  0.14069713795E+01  0.21901000169E+01  0.00000000000E+00 0.  1.
</event>
<event>
 7    1  0.1541902E-008  0.4614232E+02  0.7816164E-02  0.1320468E+00
        -11   -1    0    0    0    0  0.00000000000E+00  0.00000000000E+00  0.45593999997E+02  0.45594000000E+02  0.51100000000E-03 0.  1.
         11   -1    0    0    0    0 -0.00000000000E+00 -0.00000000000E+00 -0.45593999997E+02  0.45594000000E+02  0.51100000000E-03 0. -1.
    9900012    2    1    2    0    0 -0.36597995619E+02 -0.26085143639E+02 -0.30439412095E+01  0.46142316743E+02  0.99999907154E+01 0.  0.
         12    1    1    2    0    0  0.36597995619E+02  0.26085143639E+02  0.30439412095E+01  0.45045683257E+02  0.00000000000E+00 0. -1.
         11    1    3    3    0    0 -0.14744891532E+01 -0.31873453556E+01 -0.21102207128E+01  0.40971112258E+01  0.51100000000E-03 0. -1.
        -11    1    3    3    0    0 -0.16026874121E+02 -0.10082697150E+02  0.10361478203E+01  0.18962992340E+02  0.51100000000E-03 0.  1.
         12    1    3    3    0    0 -0.19096632345E+02 -0.12815101134E+02 -0.19698683170E+01  0.23082213177E+02  0.00000000000E+00 0. -1.
</event>
<event>
 7    1  0.1541902E-008  0.4614232E+02  0.7816164E-02  0.1320468E+00
        -11   -1    0    0    0    0  0.00000000000E+00  0.00000000000E+00  0.45593999997E+02  0.45594000000E+02  0.51100000000E-03 0. -1.
         11   -1    0    0    0    0 -0.00000000000E+00 -0.00000000000E+00 -0.45593999997E+02  0.45594000000E+02  0.51100000000E-03 0.  1.
    9900012    2    1    2    0    0 -0.19182862255E+01  0.44269011804E+02 -0.81048364408E+01  0.46142316501E+02  0.99999885081E+01 0.  0.
         12    1    1    2    0    0  0.19182862255E+01 -0.44269011804E+02  0.81048364408E+01  0.45045683499E+02  0.00000000000E+00 0. -1.
         11    1    3    3    0    0  0.20840764693E+01  0.66691357805E+01 -0.49753587540E+00  0.70048760872E+01  0.51100000000E-03 0. -1.
        -11    1    3    3    0    0 -0.11601992958E+01  0.73102860638E+00 -0.61955285360E+00  0.15047628480E+01  0.51100000000E-03 0.  1.
        -12    1    3    3    0    0 -0.28421633991E+01  0.36868847417E+02 -0.69877477118E+01  0.37632677566E+02  0.00000000000E+00 0.  1.
</event>
<event>
 7    1  0.1541902E-008  0.4614232E+02  0.7816164E-02  0.1320468E+00
        -11   -1    0    0    0    0  0.00000000000E+00  0.00000000000E+00  0.45593999997E+02  0.45594000000E+02  0.51100000000E-03 0. -1.
         11   -1    0    0    0    0 -0.00000000000E+00 -0.00000000000E+00 -0.45593999997E+02  0.45594000000E+02  0.51100000000E-03 0.  1.
    9900012    2    1    2    0    0  0.21583262310E+02 -0.32648350996E+02 -0.22301605185E+02  0.46142316205E+02  0.99999858105E+01 0.  0.
         12    1    1    2    0    0 -0.21583262310E+02  0.32648350996E+02  0.22301605185E+02  0.45045683795E+02  0.00000000000E+00 0. -1.
         11    1    3    3    0    0  0.34607080097E+01 -0.94256591267E+01 -0.22208448258E+01  0.10283564650E+02  0.51100000000E-03 0. -1.
        -11    1    3    3    0    0  0.12387588267E+02 -0.13169811514E+02 -0.13297791579E+02  0.22443875323E+02  0.51100000000E-03 0.  1.
        -12    1    3    3    0    0  0.57349660332E+01 -0.10052880356E+02 -0.67829687806E+01  0.13414876232E+02  0.00000000000E+00 0.  1.
</event>
<event>
 7    1  0.1541902E-008  0.4614232E+02  0.7816164E-02  0.1320468E+00
        -11   -1    0    0    0    0  0.00000000000E+00  0.00000000000E+00  0.45593999997E+02  0.45594000000E+02  0.51100000000E-03 0.  1.
         11   -1    0    0    0    0 -0.00000000000E+00 -0.00000000000E+00 -0.45593999997E+02  0.45594000000E+02  0.51100000000E-03 0. -1.
    9900012    2    1    2    0    0 -0.20089121933E+02  0.38719034222E+02  0.11241743776E+02  0.46142320582E+02  0.10000025726E+02 0.  0.
         12    1    1    2    0    0  0.20089121933E+02 -0.38719034222E+02 -0.11241743776E+02  0.45045679418E+02  0.00000000000E+00 0. -1.
         11    1    3    3    0    0 -0.10665702930E+02  0.17527220714E+02  0.10121697472E+02  0.22878143389E+02  0.51100000000E-03 0. -1.
        -11    1    3    3    0    0 -0.39765410741E+01  0.10638271893E+02  0.75628660615E+00  0.11382340598E+02  0.51100000000E-03 0.  1.
         12    1    3    3    0    0 -0.54468779281E+01  0.10553541614E+02  0.36375969844E+00  0.11881836596E+02  0.00000000000E+00 0. -1.
</event>
<event>
 7    1  0.1541902E-008  0.4614232E+02  0.7816164E-02  0.1320468E+00
        -11   -1    0    0    0    0  0.00000000000E+00  0.00000000000E+00  0.45593999997E+02  0.45594000000E+02  0.51100000000E-03 0.  1.
         11   -1    0    0    0    0 -0.00000000000E+00 -0.00000000000E+00 -0.45593999997E+02  0.45594000000E+02  0.51100000000E-03 0. -1.
    9900012    2    1    2    0    0 -0.32223804976E+02 -0.25437875714E+02  0.18537914436E+02  0.46142318747E+02  0.10000008987E+02 0.  0.
         12    1    1    2    0    0  0.32223804976E+02  0.25437875714E+02 -0.18537914436E+02  0.45045681253E+02  0.00000000000E+00 0. -1.
         11    1    3    3    0    0 -0.66306795231E+01 -0.71401975707E+01  0.54373446825E+00  0.97593022148E+01  0.51100000000E-03 0. -1.
        -11    1    3    3    0    0 -0.16560010601E+02 -0.13660507946E+02  0.12322059308E+02  0.24752304424E+02  0.51100000000E-03 0.  1.
         12    1    3    3    0    0 -0.90331148520E+01 -0.46371701972E+01  0.56721206593E+01  0.11630712108E+02  0.00000000000E+00 0. -1.
</event>
<event>
 7    1  0.1541902E-008  0.4614232E+02  0.7816164E-02  0.1320468E+00
        -11   -1    0    0    0    0  0.00000000000E+00  0.00000000000E+00  0.45593999997E+02  0.45594000000E+02  0.51100000000E-03 0.  1.
         11   -1    0    0    0    0 -0.00000000000E+00 -0.00000000000E+00 -0.45593999997E+02  0.45594000000E+02  0.51100000000E-03 0. -1.
    9900012    2    1    2    0    0  0.56725733723E+01  0.76392543848E+01  0.44029276351E+02  0.46142317940E+02  0.10000001635E+02 0.  0.
         12    1    1    2    0    0 -0.56725733723E+01 -0.76392543848E+01 -0.44029276351E+02  0.45045682060E+02  0.00000000000E+00 0. -1.
         11    1    3    3    0    0  0.93228567333E+00 -0.59917505008E+00  0.23234653133E+02  0.23261067770E+02  0.51100000000E-03 0. -1.
        -11    1    3    3    0    0  0.41346939382E+01  0.76464728353E+01  0.18689356232E+02  0.20612042049E+02  0.51100000000E-03 0.  1.
         12    1    3    3    0    0  0.60559376075E+00  0.59195659965E+00  0.21052669854E+01  0.22692081216E+01  0.00000000000E+00 0. -1.
</event>
<event>
 7    1  0.1541902E-008  0.4614232E+02  0.7816164E-02  0.1320468E+00
        -11   -1    0    0    0    0  0.00000000000E+00  0.00000000000E+00  0.45593999997E+02  0.45594000000E+02  0.51100000000E-03 0.  1.
         11   -1    0    0    0    0 -0.00000000000E+00 -0.00000000000E+00 -0.45593999997E+02  0.45594000000E+02  0.51100000000E-03 0. -1.
    9900012    2    1    2    0    0  0.69541924016E+01 -0.32425399756E+02  0.30485178648E+02  0.46142318093E+02  0.10000003023E+02 0.  0.
         12    1    1    2    0    0 -0.69541924016E+01  0.32425399756E+02 -0.30485178648E+02  0.45045681907E+02  0.00000000000E+00 0. -1.
         11    1    3    3    0    0  0.26276111480E+00  0.53148170499E+00  0.59119488447E+00  0.83727406429E+00  0.51100000000E-03 0. -1.
        -11    1    3    3    0    0  0.19088229828E+01 -0.20661074466E+02  0.16560308501E+02  0.26547456021E+02  0.51100000000E-03 0.  1.
         12    1    3    3    0    0  0.47826083039E+01 -0.12295806995E+02  0.13333675263E+02  0.18757588007E+02  0.00000000000E+00 0. -1.
</event>
<event>
 7    1  0.1541902E-008  0.4614231E+02  0.7816164E-02  0.1320468E+00
        -11   -1    0    0    0    0  0.00000000000E+00  0.00000000000E+00  0.45593999997E+02  0.45594000000E+02  0.51100000000E-03 0.  1.
         11   -1    0    0    0    0 -0.00000000000E+00 -0.00000000000E+00 -0.45593999997E+02  0.45594000000E+02  0.51100000000E-03 0. -1.
    9900012    2    1    2    0    0  0.38076179132E+02  0.99522087425E+01  0.21915107356E+02  0.46142314229E+02  0.99999677913E+01 0.  0.
         12    1    1    2    0    0 -0.38076179132E+02 -0.99522087425E+01 -0.21915107356E+02  0.45045685771E+02  0.00000000000E+00 0. -1.
         11    1    3    3    0    0  0.22107080426E+02  0.95339459965E+01  0.11426816917E+02  0.26649414184E+02  0.51100000000E-03 0. -1.
        -11    1    3    3    0    0  0.65171107063E+01  0.73769826002E+00  0.64839139585E+01  0.92226932705E+01  0.51100000000E-03 0.  1.
         12    1    3    3    0    0  0.94519879993E+01 -0.31943551404E+00  0.40043764812E+01  0.10270206774E+02  0.00000000000E+00 0. -1.
</event>
<event>
 7    1  0.1541902E-008  0.4614232E+02  0.7816164E-02  0.1320468E+00
        -11   -1    0    0    0    0  0.00000000000E+00  0.00000000000E+00  0.45593999997E+02  0.45594000000E+02  0.51100000000E-03 0.  1.
         11   -1    0    0    0    0 -0.00000000000E+00 -0.00000000000E+00 -0.45593999997E+02  0.45594000000E+02  0.51100000000E-03 0. -1.
    9900012    2    1    2    0    0  0.32301882423E+02  0.24031070156E+02  0.20204198856E+02  0.46142316607E+02  0.99999894802E+01 0.  0.
         12    1    1    2    0    0 -0.32301882423E+02 -0.24031070156E+02 -0.20204198856E+02  0.45045683393E+02  0.00000000000E+00 0. -1.
         11    1    3    3    0    0  0.18668601799E+02  0.13390765663E+02  0.98512641529E+01  0.24997533955E+02  0.51100000000E-03 0. -1.
        -11    1    3    3    0    0  0.54104494475E+01  0.64805084690E+01  0.19294513915E+01  0.86598346505E+01  0.51100000000E-03 0.  1.
         12    1    3    3    0    0  0.82228311766E+01  0.41597960245E+01  0.84234833111E+01  0.12484948002E+02  0.00000000000E+00 0. -1.
</event>
<event>
 7    1  0.1541902E-008  0.4614232E+02  0.7816164E-02  0.1320468E+00
        -11   -1    0    0    0    0  0.00000000000E+00  0.00000000000E+00  0.45593999997E+02  0.45594000000E+02  0.51100000000E-03 0. -1.
         11   -1    0    0    0    0 -0.00000000000E+00 -0.00000000000E+00 -0.45593999997E+02  0.45594000000E+02  0.51100000000E-03 0.  1.
    9900012    2    1    2    0    0 -0.31790089415E+02  0.61786349520E+01 -0.31310192037E+02  0.46142318295E+02  0.10000004864E+02 0.  0.
         12    1    1    2    0    0  0.31790089415E+02 -0.61786349520E+01  0.31310192037E+02  0.45045681705E+02  0.00000000000E+00 0. -1.
         11    1    3    3    0    0 -0.61118590969E+01  0.85365266166E+00 -0.11076394317E+02  0.12679513232E+02  0.51100000000E-03 0. -1.
        -11    1    3    3    0    0 -0.22830280713E+02  0.31177417268E+01 -0.17758076515E+02  0.29091086482E+02  0.51100000000E-03 0.  1.
         12    1    3    3    0    0 -0.28479496050E+01  0.22072405635E+01 -0.24757212052E+01  0.43717185801E+01  0.00000000000E+00 0. -1.
</event>
<event>
 7    1  0.1541902E-008  0.4614232E+02  0.7816164E-02  0.1320468E+00
        -11   -1    0    0    0    0  0.00000000000E+00  0.00000000000E+00  0.45593999997E+02  0.45594000000E+02  0.51100000000E-03 0.  1.
         11   -1    0    0    0    0 -0.00000000000E+00 -0.00000000000E+00 -0.45593999997E+02  0.45594000000E+02  0.51100000000E-03 0. -1.
    9900012    2    1    2    0    0 -0.43859973251E+02 -0.54654774087E+01  0.86916527452E+01  0.46142317362E+02  0.99999963563E+01 0.  0.
         12    1    1    2    0    0  0.43859973251E+02  0.54654774087E+01 -0.86916527452E+01  0.45045682638E+02  0.00000000000E+00 0. -1.
         11    1    3    3    0    0 -0.26845537604E+02 -0.28644577179E+01  0.65027957384E+01  0.27770026286E+02  0.51100000000E-03 0.  1.
        -11    1    3    3    0    0 -0.16801834802E+02 -0.27907649618E+01  0.90377189025E+00  0.17055990903E+02  0.51100000000E-03 0. -1.
         12    1    3    3    0    0 -0.21260084560E+00  0.18974527099E+00  0.12850851166E+01  0.13163001726E+01  0.00000000000E+00 0. -1.
</event>
<event>
 7    1  0.1541902E-008  0.4614232E+02  0.7816164E-02  0.1320468E+00
        -11   -1    0    0    0    0  0.00000000000E+00  0.00000000000E+00  0.45593999997E+02  0.45594000000E+02  0.51100000000E-03 0.  1.
         11   -1    0    0    0    0 -0.00000000000E+00 -0.00000000000E+00 -0.45593999997E+02  0.45594000000E+02  0.51100000000E-03 0. -1.
    9900012    2    1    2    0    0 -0.29736731697E+02  0.31948886197E+02  0.11140424480E+02  0.46142316535E+02  0.99999888226E+01 0.  0.
         12    1    1    2    0    0  0.29736731697E+02 -0.31948886197E+02 -0.11140424480E+02  0.45045683465E+02  0.00000000000E+00 0. -1.
         11    1    3    3    0    0  0.46990732961E+00  0.49783672212E+00  0.99905914852E+00  0.12111043488E+01  0.51100000000E-03 0. -1.
        -11    1    3    3    0    0 -0.11626195092E+02  0.96420697904E+01  0.40935938888E+01  0.15649135227E+02  0.51100000000E-03 0.  1.
         12    1    3    3    0    0 -0.18580443934E+02  0.21808979684E+02  0.60477714430E+01  0.29282076960E+02  0.00000000000E+00 0. -1.
</event>
<event>
 7    1  0.1541902E-008  0.4614232E+02  0.7816164E-02  0.1320468E+00
        -11   -1    0    0    0    0  0.00000000000E+00  0.00000000000E+00  0.45593999997E+02  0.45594000000E+02  0.51100000000E-03 0.  1.
         11   -1    0    0    0    0 -0.00000000000E+00 -0.00000000000E+00 -0.45593999997E+02  0.45594000000E+02  0.51100000000E-03 0. -1.
    9900012    2    1    2    0    0  0.15485765000E+02  0.24602632708E+02  0.34409519639E+02  0.46142317681E+02  0.99999992695E+01 0.  0.
         12    1    1    2    0    0 -0.15485765000E+02 -0.24602632708E+02 -0.34409519639E+02  0.45045682319E+02  0.00000000000E+00 0. -1.
         11    1    3    3    0    0 -0.94746611353E+00  0.11458425838E+01  0.22961276531E+01  0.27354797977E+01  0.51100000000E-03 0. -1.
        -11    1    3    3    0    0  0.41546645220E+01  0.10637618294E+02  0.11571348576E+02  0.16257806383E+02  0.51100000000E-03 0.  1.
         12    1    3    3    0    0  0.12278566592E+02  0.12819171830E+02  0.20542043410E+02  0.27149031501E+02  0.00000000000E+00 0. -1.
</event>
<event>
 7    1  0.1541902E-008  0.4614232E+02  0.7816164E-02  0.1320468E+00
        -11   -1    0    0    0    0  0.00000000000E+00  0.00000000000E+00  0.45593999997E+02  0.45594000000E+02  0.51100000000E-03 0. -1.
         11   -1    0    0    0    0 -0.00000000000E+00 -0.00000000000E+00 -0.45593999997E+02  0.45594000000E+02  0.51100000000E-03 0.  1.
    9900012    2    1    2    0    0  0.44103111984E+01 -0.32833572957E+01 -0.44708857348E+02  0.46142320902E+02  0.10000028643E+02 0.  0.
         12    1    1    2    0    0 -0.44103111984E+01  0.32833572957E+01  0.44708857348E+02  0.45045679098E+02  0.00000000000E+00 0. -1.
         11    1    3    3    0    0  0.42412361387E+01 -0.64112105203E+00 -0.87693823778E+01  0.97622327229E+01  0.51100000000E-03 0. -1.
        -11    1    3    3    0    0 -0.17346541091E+01 -0.15189444301E+01 -0.29124020188E+02  0.29215146230E+02  0.51100000000E-03 0.  1.
        -12    1    3    3    0    0  0.19037291688E+01 -0.11232918136E+01 -0.68154547826E+01  0.71649419495E+01  0.00000000000E+00 0.  1.
</event>
<event>
 7    1  0.1541902E-008  0.4614232E+02  0.7816164E-02  0.1320468E+00
        -11   -1    0    0    0    0  0.00000000000E+00  0.00000000000E+00  0.45593999997E+02  0.45594000000E+02  0.51100000000E-03 0.  1.
         11   -1    0    0    0    0 -0.00000000000E+00 -0.00000000000E+00 -0.45593999997E+02  0.45594000000E+02  0.51100000000E-03 0. -1.
    9900012    2    1    2    0    0 -0.27541186295E+01 -0.90763091957E+01  0.44035769011E+02  0.46142317517E+02  0.99999977695E+01 0.  0.
         12    1    1    2    0    0  0.27541186295E+01  0.90763091957E+01 -0.44035769011E+02  0.45045682483E+02  0.00000000000E+00 0. -1.
         11    1    3    3    0    0 -0.21689088615E+01 -0.39948254409E+01  0.98658093077E+01  0.10862641921E+02  0.51100000000E-03 0. -1.
        -11    1    3    3    0    0 -0.35333320953E+01 -0.27552318235E+01  0.24495423045E+02  0.24901837051E+02  0.51100000000E-03 0.  1.
        -12    1    3    3    0    0  0.29481223273E+01 -0.23262519313E+01  0.96745366583E+01  0.10377838545E+02  0.00000000000E+00 0.  1.
</event>
<event>
 7    1  0.1541902E-008  0.4614232E+02  0.7816164E-02  0.1320468E+00
        -11   -1    0    0    0    0  0.00000000000E+00  0.00000000000E+00  0.45593999997E+02  0.45594000000E+02  0.51100000000E-03 0. -1.
         11   -1    0    0    0    0 -0.00000000000E+00 -0.00000000000E+00 -0.45593999997E+02  0.45594000000E+02  0.51100000000E-03 0.  1.
    9900012    2    1    2    0    0 -0.15586689736E+02 -0.42220904702E+02  0.18877835040E+01  0.46142318549E+02  0.10000007185E+02 0.  0.
         12    1    1    2    0    0  0.15586689736E+02  0.42220904702E+02 -0.18877835040E+01  0.45045681451E+02  0.00000000000E+00 0. -1.
         11    1    3    3    0    0 -0.35568599457E+01 -0.82379543310E+01 -0.33267033947E+01  0.95698537068E+01  0.51100000000E-03 0. -1.
        -11    1    3    3    0    0 -0.11281324884E+02 -0.32984810080E+02  0.45424616163E+01  0.35155368650E+02  0.51100000000E-03 0.  1.
         12    1    3    3    0    0 -0.74850490670E+00 -0.99814029146E+00  0.67202528241E+00  0.14170961919E+01  0.00000000000E+00 0. -1.
</event>
<event>
 7    1  0.1541902E-008  0.4614232E+02  0.7816164E-02  0.1320468E+00
        -11   -1    0    0    0    0  0.00000000000E+00  0.00000000000E+00  0.45593999997E+02  0.45594000000E+02  0.51100000000E-03 0. -1.
         11   -1    0    0    0    0 -0.00000000000E+00 -0.00000000000E+00 -0.45593999997E+02  0.45594000000E+02  0.51100000000E-03 0.  1.
    9900012    2    1    2    0    0 -0.58421795893E+01 -0.38451459527E+02 -0.22725924104E+02  0.46142318426E+02  0.10000006060E+02 0.  0.
         12    1    1    2    0    0  0.58421795893E+01  0.38451459527E+02  0.22725924104E+02  0.45045681574E+02  0.00000000000E+00 0. -1.
         11    1    3    3    0    0 -0.45209260282E+01 -0.12119566709E+02 -0.50515014057E+01  0.13886696370E+02  0.51100000000E-03 0. -1.
        -11    1    3    3    0    0  0.10659269833E+00 -0.24527617684E+02 -0.17049369867E+02  0.29871330810E+02  0.51100000000E-03 0.  1.
        -12    1    3    3    0    0 -0.14278462594E+01 -0.18042751350E+01 -0.62505283129E+00  0.23842912459E+01  0.00000000000E+00 0.  1.
</event>
<event>
 7    1  0.1541902E-008  0.4614232E+02  0.7816164E-02  0.1320468E+00
        -11   -1    0    0    0    0  0.00000000000E+00  0.00000000000E+00  0.45593999997E+02  0.45594000000E+02  0.51100000000E-03 0. -1.
         11   -1    0    0    0    0 -0.00000000000E+00 -0.00000000000E+00 -0.45593999997E+02  0.45594000000E+02  0.51100000000E-03 0.  1.
    9900012    2    1    2    0    0 -0.37746975567E+02  0.19833555900E+02 -0.14522717017E+02  0.46142318591E+02  0.10000007566E+02 0.  0.
         12    1    1    2    0    0  0.37746975567E+02 -0.19833555900E+02  0.14522717017E+02  0.45045681409E+02  0.00000000000E+00 0. -1.
         11    1    3    3    0    0 -0.31213716084E+01  0.48037345854E+01 -0.23589386270E+01  0.61954352867E+01  0.51100000000E-03 0. -1.
        -11    1    3    3    0    0 -0.34071382790E+02  0.15149063703E+02 -0.12451053262E+02  0.39311346758E+02  0.51100000000E-03 0.  1.
        -12    1    3    3    0    0 -0.55422116795E+00 -0.11924238833E+00  0.28727487159E+00  0.63553654657E+00  0.00000000000E+00 0.  1.
</event>
<event>
 7    1  0.1541902E-008  0.4614232E+02  0.7816164E-02  0.1320468E+00
        -11   -1    0    0    0    0  0.00000000000E+00  0.00000000000E+00  0.45593999997E+02  0.45594000000E+02  0.51100000000E-03 0.  1.
         11   -1    0    0    0    0 -0.00000000000E+00 -0.00000000000E+00 -0.45593999997E+02  0.45594000000E+02  0.51100000000E-03 0. -1.
    9900012    2    1    2    0    0  0.20387785436E+00 -0.69291073938E+01  0.44509091347E+02  0.46142319763E+02  0.10000018253E+02 0.  0.
         12    1    1    2    0    0 -0.20387785436E+00  0.69291073938E+01 -0.44509091347E+02  0.45045680237E+02  0.00000000000E+00 0. -1.
         11    1    3    3    0    0  0.39141605701E+00  0.43926653193E+00  0.22887481787E+02  0.22895042792E+02  0.51100000000E-03 0. -1.
        -11    1    3    3    0    0 -0.70804386364E+00 -0.16905361931E+01  0.16108942923E+01  0.24401269260E+01  0.51100000000E-03 0.  1.
         12    1    3    3    0    0  0.52050566099E+00 -0.56778377326E+01  0.20010715268E+02  0.20807150045E+02  0.00000000000E+00 0. -1.
</event>
<event>
 7    1  0.1541902E-008  0.4614232E+02  0.7816164E-02  0.1320468E+00
        -11   -1    0    0    0    0  0.00000000000E+00  0.00000000000E+00  0.45593999997E+02  0.45594000000E+02  0.51100000000E-03 0.  1.
         11   -1    0    0    0    0 -0.00000000000E+00 -0.00000000000E+00 -0.45593999997E+02  0.45594000000E+02  0.51100000000E-03 0. -1.
    9900012    2    1    2    0    0 -0.38539468609E+02 -0.14007105345E+01  0.23277906099E+02  0.46142317155E+02  0.99999944693E+01 0.  0.
         12    1    1    2    0    0  0.38539468609E+02  0.14007105345E+01 -0.23277906099E+02  0.45045682845E+02  0.00000000000E+00 0. -1.
         11    1    3    3    0    0 -0.29478747356E+01 -0.20078865875E+00  0.52119659736E+01  0.59912328543E+01  0.51100000000E-03 0. -1.
        -11    1    3    3    0    0 -0.35039615312E+02 -0.80460043319E+00  0.17174593943E+02  0.39030612350E+02  0.51100000000E-03 0.  1.
        -12    1    3    3    0    0 -0.55197856181E+00 -0.39532144254E+00  0.89134618165E+00  0.11204719502E+01  0.00000000000E+00 0.  1.
</event>
<event>
 7    1  0.1541902E-008  0.4614232E+02  0.7816164E-02  0.1320468E+00
        -11   -1    0    0    0    0  0.00000000000E+00  0.00000000000E+00  0.45593999997E+02  0.45594000000E+02  0.51100000000E-03 0. -1.
         11   -1    0    0    0    0 -0.00000000000E+00 -0.00000000000E+00 -0.45593999997E+02  0.45594000000E+02  0.51100000000E-03 0.  1.
    9900012    2    1    2    0    0  0.31916074970E+02 -0.18089750991E+02 -0.26138828297E+02  0.46142320105E+02  0.10000021376E+02 0.  0.
         12    1    1    2    0    0 -0.31916074970E+02  0.18089750991E+02  0.26138828297E+02  0.45045679895E+02  0.00000000000E+00 0. -1.
         11    1    3    3    0    0  0.13314006909E+02 -0.80315336786E+01 -0.60301900993E+01  0.16677275140E+02  0.51100000000E-03 0. -1.
        -11    1    3    3    0    0  0.73809983830E+01 -0.57585199648E+01 -0.10594397914E+02  0.14137926182E+02  0.51100000000E-03 0.  1.
         12    1    3    3    0    0  0.11221069678E+02 -0.42996973478E+01 -0.95142402840E+01  0.15327118783E+02  0.00000000000E+00 0. -1.
</event>
<event>
 7    1  0.1541902E-008  0.4614232E+02  0.7816164E-02  0.1320468E+00
        -11   -1    0    0    0    0  0.00000000000E+00  0.00000000000E+00  0.45593999997E+02  0.45594000000E+02  0.51100000000E-03 0. -1.
         11   -1    0    0    0    0 -0.00000000000E+00 -0.00000000000E+00 -0.45593999997E+02  0.45594000000E+02  0.51100000000E-03 0.  1.
    9900012    2    1    2    0    0  0.13848663174E+02  0.29812191850E+02 -0.30798720904E+02  0.46142318032E+02  0.10000002471E+02 0.  0.
         12    1    1    2    0    0 -0.13848663174E+02 -0.29812191850E+02  0.30798720904E+02  0.45045681968E+02  0.00000000000E+00 0. -1.
         11    1    3    3    0    0  0.25375842582E+01  0.10151968514E+01 -0.52858150184E+01  0.59506133452E+01  0.51100000000E-03 0. -1.
        -11    1    3    3    0    0  0.36110165283E+01  0.78544642350E+01 -0.85908280480E+01  0.12187467973E+02  0.51100000000E-03 0.  1.
         12    1    3    3    0    0  0.77000623879E+01  0.20942530764E+02 -0.16922077838E+02  0.28004236714E+02  0.00000000000E+00 0. -1.
</event>
<event>
 7    1  0.1541902E-008  0.4614232E+02  0.7816164E-02  0.1320468E+00
        -11   -1    0    0    0    0  0.00000000000E+00  0.00000000000E+00  0.45593999997E+02  0.45594000000E+02  0.51100000000E-03 0. -1.
         11   -1    0    0    0    0 -0.00000000000E+00 -0.00000000000E+00 -0.45593999997E+02  0.45594000000E+02  0.51100000000E-03 0.  1.
    9900012    2    1    2    0    0 -0.36966691295E+02 -0.24295328196E+02 -0.85037786663E+01  0.46142317753E+02  0.99999999294E+01 0.  0.
         12    1    1    2    0    0  0.36966691295E+02  0.24295328196E+02  0.85037786663E+01  0.45045682247E+02  0.00000000000E+00 0. -1.
         11    1    3    3    0    0 -0.26537684358E+02 -0.14763171168E+02 -0.83089830821E+01  0.31483950104E+02  0.51100000000E-03 0. -1.
        -11    1    3    3    0    0 -0.81351849423E+01 -0.77265196486E+01 -0.17426318036E+01  0.11354166891E+02  0.51100000000E-03 0.  1.
         12    1    3    3    0    0 -0.22938219944E+01 -0.18056373793E+01  0.15478362195E+01  0.33042007581E+01  0.00000000000E+00 0. -1.
</event>
<event>
 7    1  0.1541902E-008  0.4614232E+02  0.7816164E-02  0.1320468E+00
        -11   -1    0    0    0    0  0.00000000000E+00  0.00000000000E+00  0.45593999997E+02  0.45594000000E+02  0.51100000000E-03 0.  1.
         11   -1    0    0    0    0 -0.00000000000E+00 -0.00000000000E+00 -0.45593999997E+02  0.45594000000E+02  0.51100000000E-03 0. -1.
    9900012    2    1    2    0    0  0.37232927635E+02  0.14072807430E+02  0.21089776000E+02  0.46142318065E+02  0.10000002774E+02 0.  0.
         12    1    1    2    0    0 -0.37232927635E+02 -0.14072807430E+02 -0.21089776000E+02  0.45045681935E+02  0.00000000000E+00 0. -1.
         11    1    3    3    0    0  0.55554084996E+01 -0.28777914646E-02  0.33992782755E+00  0.55657994096E+01  0.51100000000E-03 0. -1.
        -11    1    3    3    0    0  0.92296911222E+01  0.52875131177E+01  0.47923988035E+01  0.11666708179E+02  0.51100000000E-03 0.  1.
         12    1    3    3    0    0  0.22447828013E+02  0.87881721041E+01  0.15957449369E+02  0.28909810477E+02  0.00000000000E+00 0. -1.
</event>
<event>
 7    1  0.1541902E-008  0.4614232E+02  0.7816164E-02  0.1320468E+00
        -11   -1    0    0    0    0  0.00000000000E+00  0.00000000000E+00  0.45593999997E+02  0.45594000000E+02  0.51100000000E-03 0.  1.
         11   -1    0    0    0    0 -0.00000000000E+00 -0.00000000000E+00 -0.45593999997E+02  0.45594000000E+02  0.51100000000E-03 0. -1.
    9900012    2    1    2    0    0 -0.15233194587E+02 -0.20514308913E+02  0.37097525292E+02  0.46142317962E+02  0.10000001830E+02 0.  0.
         12    1    1    2    0    0  0.15233194587E+02  0.20514308913E+02 -0.37097525292E+02  0.45045682038E+02  0.00000000000E+00 0. -1.
         11    1    3    3    0    0 -0.13814817160E+02 -0.12538653924E+02  0.23194931181E+02  0.29766959001E+02  0.51100000000E-03 0. -1.
        -11    1    3    3    0    0 -0.88510450943E+00 -0.63803247119E+01  0.12895616338E+02  0.14414883781E+02  0.51100000000E-03 0.  1.
         12    1    3    3    0    0 -0.53327291672E+00 -0.15953302766E+01  0.10069777728E+01  0.19604751797E+01  0.00000000000E+00 0. -1.
</event>
<event>
 7    1  0.1541902E-008  0.4614232E+02  0.7816164E-02  0.1320468E+00
        -11   -1    0    0    0    0  0.00000000000E+00  0.00000000000E+00  0.45593999997E+02  0.45594000000E+02  0.51100000000E-03 0.  1.
         11   -1    0    0    0    0 -0.00000000000E+00 -0.00000000000E+00 -0.45593999997E+02  0.45594000000E+02  0.51100000000E-03 0. -1.
    9900012    2    1    2    0    0  0.27431345318E+02  0.33803555281E+02 -0.11573866280E+02  0.46142318339E+02  0.10000005273E+02 0.  0.
         12    1    1    2    0    0 -0.27431345318E+02 -0.33803555281E+02  0.11573866280E+02  0.45045681661E+02  0.00000000000E+00 0. -1.
         11    1    3    3    0    0  0.11413913155E+02  0.16368348888E+02 -0.22506782980E+01  0.20081479325E+02  0.51100000000E-03 0. -1.
        -11    1    3    3    0    0  0.12885063060E+02  0.16700247352E+02 -0.84864508418E+01  0.22736379655E+02  0.51100000000E-03 0.  1.
         12    1    3    3    0    0  0.31323691027E+01  0.73495904178E+00 -0.83673714007E+00  0.33244593591E+01  0.00000000000E+00 0. -1.
</event>
<event>
 7    1  0.1541902E-008  0.4614232E+02  0.7816164E-02  0.1320468E+00
        -11   -1    0    0    0    0  0.00000000000E+00  0.00000000000E+00  0.45593999997E+02  0.45594000000E+02  0.51100000000E-03 0.  1.
         11   -1    0    0    0    0 -0.00000000000E+00 -0.00000000000E+00 -0.45593999997E+02  0.45594000000E+02  0.51100000000E-03 0. -1.
    9900012    2    1    2    0    0 -0.37858902203E+02  0.11982886106E+02  0.21265640044E+02  0.46142317833E+02  0.10000000651E+02 0.  0.
         12    1    1    2    0    0  0.37858902203E+02 -0.11982886106E+02 -0.21265640044E+02  0.45045682167E+02  0.00000000000E+00 0. -1.
         11    1    3    3    0    0 -0.11354722540E+02  0.66329276589E+01  0.50844638989E+01  0.14098837778E+02  0.51100000000E-03 0. -1.
        -11    1    3    3    0    0 -0.20694692568E+01 -0.11499810481E+01  0.15721610977E+01  0.28419799778E+01  0.51100000000E-03 0.  1.
         12    1    3    3    0    0 -0.24434710407E+02  0.64999394947E+01  0.14609015047E+02  0.29201500077E+02  0.00000000000E+00 0. -1.
</event>
<event>
 7    1  0.1541902E-008  0.4614232E+02  0.7816164E-02  0.1320468E+00
        -11   -1    0    0    0    0  0.00000000000E+00  0.00000000000E+00  0.45593999997E+02  0.45594000000E+02  0.51100000000E-03 0.  1.
         11   -1    0    0    0    0 -0.00000000000E+00 -0.00000000000E+00 -0.45593999997E+02  0.45594000000E+02  0.51100000000E-03 0. -1.
    9900012    2    1    2    0    0 -0.12791822165E+02  0.51174186364E+01  0.42886995895E+02  0.46142322020E+02  0.10000038836E+02 0.  0.
         12    1    1    2    0    0  0.12791822165E+02 -0.51174186364E+01 -0.42886995895E+02  0.45045677980E+02  0.00000000000E+00 0. -1.
         11    1    3    3    0    0 -0.10411077120E+02  0.52518761414E+01  0.33453671410E+02  0.35427684949E+02  0.51100000000E-03 0. -1.
        -11    1    3    3    0    0 -0.18785847243E+01  0.17863326321E+01  0.75323328941E+01  0.79659339645E+01  0.51100000000E-03 0.  1.
         12    1    3    3    0    0 -0.50216032102E+00 -0.19207901371E+01  0.19009915910E+01  0.27487031066E+01  0.00000000000E+00 0. -1.
</event>
<event>
 7    1  0.1541902E-008  0.4614232E+02  0.7816164E-02  0.1320468E+00
        -11   -1    0    0    0    0  0.00000000000E+00  0.00000000000E+00  0.45593999997E+02  0.45594000000E+02  0.51100000000E-03 0.  1.
         11   -1    0    0    0    0 -0.00000000000E+00 -0.00000000000E+00 -0.45593999997E+02  0.45594000000E+02  0.51100000000E-03 0. -1.
    9900012    2    1    2    0    0 -0.33100134084E+02  0.17425895609E+02  0.25096471237E+02  0.46142316714E+02  0.99999904512E+01 0.  0.
         12    1    1    2    0    0  0.33100134084E+02 -0.17425895609E+02 -0.25096471237E+02  0.45045683286E+02  0.00000000000E+00 0. -1.
         11    1    3    3    0    0 -0.20016656546E+02  0.69997980033E+01  0.16466683937E+02  0.26848005354E+02  0.51100000000E-03 0. -1.
        -11    1    3    3    0    0 -0.12599055163E+02  0.94388974262E+01  0.67760582805E+01  0.17138959762E+02  0.51100000000E-03 0.  1.
        -12    1    3    3    0    0 -0.48442237433E+00  0.98720017978E+00  0.18537290197E+01  0.21553515978E+01  0.00000000000E+00 0.  1.
</event>
<event>
 7    1  0.1541902E-008  0.4614232E+02  0.7816164E-02  0.1320468E+00
        -11   -1    0    0    0    0  0.00000000000E+00  0.00000000000E+00  0.45593999997E+02  0.45594000000E+02  0.51100000000E-03 0.  1.
         11   -1    0    0    0    0 -0.00000000000E+00 -0.00000000000E+00 -0.45593999997E+02  0.45594000000E+02  0.51100000000E-03 0. -1.
    9900012    2    1    2    0    0 -0.18704743949E+02  0.30878854619E+02  0.26939606321E+02  0.46142317660E+02  0.99999990782E+01 0.  0.
         12    1    1    2    0    0  0.18704743949E+02 -0.30878854619E+02 -0.26939606321E+02  0.45045682340E+02  0.00000000000E+00 0. -1.
         11    1    3    3    0    0 -0.42590060506E+01  0.82628736612E+01  0.93559233978E+01  0.13188916429E+02  0.51100000000E-03 0. -1.
        -11    1    3    3    0    0 -0.10526479108E+02  0.17276455668E+02  0.16774680218E+02  0.26280650287E+02  0.51100000000E-03 0.  1.
        -12    1    3    3    0    0 -0.39192587896E+01  0.53395252897E+01  0.80900270525E+00  0.66727509437E+01  0.00000000000E+00 0.  1.
</event>
<event>
 7    1  0.1541902E-008  0.4614232E+02  0.7816164E-02  0.1320468E+00
        -11   -1    0    0    0    0  0.00000000000E+00  0.00000000000E+00  0.45593999997E+02  0.45594000000E+02  0.51100000000E-03 0. -1.
         11   -1    0    0    0    0 -0.00000000000E+00 -0.00000000000E+00 -0.45593999997E+02  0.45594000000E+02  0.51100000000E-03 0.  1.
    9900012    2    1    2    0    0  0.29534309863E+02  0.24818142833E+02 -0.23257209691E+02  0.46142317906E+02  0.10000001318E+02 0.  0.
         12    1    1    2    0    0 -0.29534309863E+02 -0.24818142833E+02  0.23257209691E+02  0.45045682094E+02  0.00000000000E+00 0. -1.
         11    1    3    3    0    0  0.53971881276E+01  0.33358771524E+01 -0.20612976678E+01  0.66713315311E+01  0.51100000000E-03 0. -1.
        -11    1    3    3    0    0  0.90955994003E+01  0.13318258738E+02 -0.11417377963E+02  0.19760123079E+02  0.51100000000E-03 0.  1.
        -12    1    3    3    0    0  0.15041522335E+02  0.81640069421E+01 -0.97785340593E+01  0.19710863296E+02  0.00000000000E+00 0.  1.
</event>
<event>
 7    1  0.1541902E-008  0.4614232E+02  0.7816164E-02  0.1320468E+00
        -11   -1    0    0    0    0  0.00000000000E+00  0.00000000000E+00  0.45593999997E+02  0.45594000000E+02  0.51100000000E-03 0.  1.
         11   -1    0    0    0    0 -0.00000000000E+00 -0.00000000000E+00 -0.45593999997E+02  0.45594000000E+02  0.51100000000E-03 0. -1.
    9900012    2    1    2    0    0 -0.38361750984E+02  0.18498333443E+02  0.14673147717E+02  0.46142317159E+02  0.99999945060E+01 0.  0.
         12    1    1    2    0    0  0.38361750984E+02 -0.18498333443E+02 -0.14673147717E+02  0.45045682841E+02  0.00000000000E+00 0. -1.
         11    1    3    3    0    0 -0.26332684032E+01  0.22037971095E+01  0.13701315072E+01  0.36970372991E+01  0.51100000000E-03 0. -1.
        -11    1    3    3    0    0 -0.14614759251E+02  0.48398039533E+01  0.95934232794E+01  0.18139698475E+02  0.51100000000E-03 0.  1.
        -12    1    3    3    0    0 -0.21113723329E+02  0.11454732381E+02  0.37095929305E+01  0.24305581385E+02  0.00000000000E+00 0.  1.
</event>
<event>
 7    1  0.1541902E-008  0.4614232E+02  0.7816164E-02  0.1320468E+00
        -11   -1    0    0    0    0  0.00000000000E+00  0.00000000000E+00  0.45593999997E+02  0.45594000000E+02  0.51100000000E-03 0.  1.
         11   -1    0    0    0    0 -0.00000000000E+00 -0.00000000000E+00 -0.45593999997E+02  0.45594000000E+02  0.51100000000E-03 0. -1.
    9900012    2    1    2    0    0 -0.43828296769E+02  0.92691229226E+01 -0.47198737993E+01  0.46142318230E+02  0.10000004279E+02 0.  0.
         12    1    1    2    0    0  0.43828296769E+02 -0.92691229226E+01  0.47198737993E+01  0.45045681770E+02  0.00000000000E+00 0. -1.
         11    1    3    3    0    0 -0.57531737411E+01  0.37395539163E+01 -0.30737829519E+01  0.75187374927E+01  0.51100000000E-03 0. -1.
        -11    1    3    3    0    0 -0.31971239010E+02  0.51887048542E+01 -0.44103666522E+00  0.32392550000E+02  0.51100000000E-03 0.  1.
         12    1    3    3    0    0 -0.61038840174E+01  0.34086415207E+00 -0.12050541822E+01  0.62310307374E+01  0.00000000000E+00 0. -1.
</event>
<event>
 7    1  0.1541902E-008  0.4614232E+02  0.7816164E-02  0.1320468E+00
        -11   -1    0    0    0    0  0.00000000000E+00  0.00000000000E+00  0.45593999997E+02  0.45594000000E+02  0.51100000000E-03 0.  1.
         11   -1    0    0    0    0 -0.00000000000E+00 -0.00000000000E+00 -0.45593999997E+02  0.45594000000E+02  0.51100000000E-03 0. -1.
    9900012    2    1    2    0    0 -0.13955186424E+02 -0.17828053415E+02  0.38942608402E+02  0.46142318011E+02  0.10000002279E+02 0.  0.
         12    1    1    2    0    0  0.13955186424E+02  0.17828053415E+02 -0.38942608402E+02  0.45045681989E+02  0.00000000000E+00 0. -1.
         11    1    3    3    0    0 -0.47003031637E+01 -0.77235164789E+01  0.80717784291E+01  0.12120196529E+02  0.51100000000E-03 0. -1.
        -11    1    3    3    0    0 -0.64587928530E+01 -0.52935140624E+01  0.22206622360E+02  0.23724910393E+02  0.51100000000E-03 0.  1.
        -12    1    3    3    0    0 -0.27960904074E+01 -0.48110228733E+01  0.86642076126E+01  0.10297211089E+02  0.00000000000E+00 0.  1.
</event>
<event>
 7    1  0.1541902E-008  0.4614232E+02  0.7816164E-02  0.1320468E+00
        -11   -1    0    0    0    0  0.00000000000E+00  0.00000000000E+00  0.45593999997E+02  0.45594000000E+02  0.51100000000E-03 0.  1.
         11   -1    0    0    0    0 -0.00000000000E+00 -0.00000000000E+00 -0.45593999997E+02  0.45594000000E+02  0.51100000000E-03 0. -1.
    9900012    2    1    2    0    0  0.26672571492E+02  0.33031765639E+02  0.15052899456E+02  0.46142318817E+02  0.10000009625E+02 0.  0.
         12    1    1    2    0    0 -0.26672571492E+02 -0.33031765639E+02 -0.15052899456E+02  0.45045681183E+02  0.00000000000E+00 0. -1.
         11    1    3    3    0    0  0.12450113877E+02  0.21511734449E+02  0.90104507225E+01  0.26437629944E+02  0.51100000000E-03 0. -1.
        -11    1    3    3    0    0  0.13117068211E+02  0.11608596364E+02  0.62073864931E+01  0.18583558199E+02  0.51100000000E-03 0.  1.
         12    1    3    3    0    0  0.11053894036E+01 -0.88565174006E-01 -0.16493775927E+00  0.11211306739E+01  0.00000000000E+00 0. -1.
</event>
<event>
 7    1  0.1541902E-008  0.4614231E+02  0.7816164E-02  0.1320468E+00
        -11   -1    0    0    0    0  0.00000000000E+00  0.00000000000E+00  0.45593999997E+02  0.45594000000E+02  0.51100000000E-03 0.  1.
         11   -1    0    0    0    0 -0.00000000000E+00 -0.00000000000E+00 -0.45593999997E+02  0.45594000000E+02  0.51100000000E-03 0. -1.
    9900012    2    1    2    0    0 -0.91044493344E+01 -0.24235140713E+02  0.36863010275E+02  0.46142305759E+02  0.99998905567E+01 0.  0.
         12    1    1    2    0    0  0.91044493344E+01  0.24235140713E+02 -0.36863010275E+02  0.45045694241E+02  0.00000000000E+00 0. -1.
         11    1    3    3    0    0 -0.56585514874E+01 -0.15137429912E+02  0.18598941685E+02  0.24639026388E+02  0.51100000000E-03 0. -1.
        -11    1    3    3    0    0 -0.32684548818E+01 -0.14902265916E+01  0.43233860728E+01  0.56209643305E+01  0.51100000000E-03 0.  1.
         12    1    3    3    0    0 -0.17744296521E+00 -0.76074842097E+01  0.13940682517E+02  0.15882315041E+02  0.00000000000E+00 0. -1.
</event>
<event>
 7    1  0.1541902E-008  0.4614232E+02  0.7816164E-02  0.1320468E+00
        -11   -1    0    0    0    0  0.00000000000E+00  0.00000000000E+00  0.45593999997E+02  0.45594000000E+02  0.51100000000E-03 0.  1.
         11   -1    0    0    0    0 -0.00000000000E+00 -0.00000000000E+00 -0.45593999997E+02  0.45594000000E+02  0.51100000000E-03 0. -1.
    9900012    2    1    2    0    0 -0.58783284713E+01  0.22157639394E+01  0.44605482624E+02  0.46142318347E+02  0.10000005343E+02 0.  0.
         12    1    1    2    0    0  0.58783284713E+01 -0.22157639394E+01 -0.44605482624E+02  0.45045681653E+02  0.00000000000E+00 0. -1.
         11    1    3    3    0    0 -0.11421458510E+01 -0.82397907054E+00  0.19347908232E+02  0.19399097708E+02  0.51100000000E-03 0. -1.
        -11    1    3    3    0    0 -0.33892179771E+01  0.52169213571E+01  0.17361324877E+02  0.18442306491E+02  0.51100000000E-03 0.  1.
         12    1    3    3    0    0 -0.13469646432E+01 -0.21771783472E+01  0.78962495143E+01  0.83009141483E+01  0.00000000000E+00 0. -1.
</event>
<event>
 7    1  0.1541902E-008  0.4614232E+02  0.7816164E-02  0.1320468E+00
        -11   -1    0    0    0    0  0.00000000000E+00  0.00000000000E+00  0.45593999997E+02  0.45594000000E+02  0.51100000000E-03 0. -1.
         11   -1    0    0    0    0 -0.00000000000E+00 -0.00000000000E+00 -0.45593999997E+02  0.45594000000E+02  0.51100000000E-03 0.  1.
    9900012    2    1    2    0    0 -0.19828496391E+02 -0.90800532407E+01 -0.39414423073E+02  0.46142318940E+02  0.10000010751E+02 0.  0.
         12    1    1    2    0    0  0.19828496391E+02  0.90800532407E+01  0.39414423073E+02  0.45045681060E+02  0.00000000000E+00 0. -1.
         11    1    3    3    0    0 -0.52761540717E+01 -0.22625496262E+01 -0.57072956781E+01  0.80950699081E+01  0.51100000000E-03 0. -1.
        -11    1    3    3    0    0 -0.49656022716E+01 -0.63323889476E+01 -0.15166477609E+02  0.17169111771E+02  0.51100000000E-03 0.  1.
         12    1    3    3    0    0 -0.95867400482E+01 -0.48511466694E+00 -0.18540649786E+02  0.20878137261E+02  0.00000000000E+00 0. -1.
</event>
<event>
 7    1  0.1541902E-008  0.4614232E+02  0.7816164E-02  0.1320468E+00
        -11   -1    0    0    0    0  0.00000000000E+00  0.00000000000E+00  0.45593999997E+02  0.45594000000E+02  0.51100000000E-03 0. -1.
         11   -1    0    0    0    0 -0.00000000000E+00 -0.00000000000E+00 -0.45593999997E+02  0.45594000000E+02  0.51100000000E-03 0.  1.
    9900012    2    1    2    0    0  0.24314259547E+02 -0.36538957476E+02  0.10140744937E+02  0.46142319423E+02  0.10000015156E+02 0.  0.
         12    1    1    2    0    0 -0.24314259547E+02  0.36538957476E+02 -0.10140744937E+02  0.45045680577E+02  0.00000000000E+00 0. -1.
         11    1    3    3    0    0  0.77277361531E+01 -0.17750324736E+02  0.49213684651E+01  0.19975279776E+02  0.51100000000E-03 0. -1.
        -11    1    3    3    0    0  0.16243340916E+02 -0.18956312013E+02  0.56461802333E+01  0.25594281407E+02  0.51100000000E-03 0.  1.
         12    1    3    3    0    0  0.34318247757E+00  0.16767927275E+00 -0.42680376146E+00  0.57275824064E+00  0.00000000000E+00 0. -1.
</event>
<event>
 7    1  0.1541902E-008  0.4614232E+02  0.7816164E-02  0.1320468E+00
        -11   -1    0    0    0    0  0.00000000000E+00  0.00000000000E+00  0.45593999997E+02  0.45594000000E+02  0.51100000000E-03 0.  1.
         11   -1    0    0    0    0 -0.00000000000E+00 -0.00000000000E+00 -0.45593999997E+02  0.45594000000E+02  0.51100000000E-03 0. -1.
    9900012    2    1    2    0    0  0.18938569332E+02 -0.34164964500E+02  0.22432104149E+02  0.46142317585E+02  0.99999983958E+01 0.  0.
         12    1    1    2    0    0 -0.18938569332E+02  0.34164964500E+02 -0.22432104149E+02  0.45045682415E+02  0.00000000000E+00 0. -1.
         11    1    3    3    0    0  0.44124162972E+01 -0.56189654671E+01  0.44198640982E+01  0.84010350201E+01  0.51100000000E-03 0. -1.
        -11    1    3    3    0    0  0.69862504269E+01 -0.85783400414E+01  0.24628717422E+01  0.11334079159E+02  0.51100000000E-03 0.  1.
        -12    1    3    3    0    0  0.75399026078E+01 -0.19967658992E+02  0.15549368309E+02  0.26407203407E+02  0.00000000000E+00 0.  1.
</event>
<event>
 7    1  0.1541902E-008  0.4614232E+02  0.7816164E-02  0.1320468E+00
        -11   -1    0    0    0    0  0.00000000000E+00  0.00000000000E+00  0.45593999997E+02  0.45594000000E+02  0.51100000000E-03 0.  1.
         11   -1    0    0    0    0 -0.00000000000E+00 -0.00000000000E+00 -0.45593999997E+02  0.45594000000E+02  0.51100000000E-03 0. -1.
    9900012    2    1    2    0    0 -0.36626091393E+02 -0.25797180372E+02  0.47061597965E+01  0.46142322895E+02  0.10000046812E+02 0.  0.
         12    1    1    2    0    0  0.36626091393E+02  0.25797180372E+02 -0.47061597965E+01  0.45045677105E+02  0.00000000000E+00 0. -1.
         11    1    3    3    0    0 -0.56032008170E+01 -0.96012054836E+00 -0.12216828932E+01  0.58146539205E+01  0.51100000000E-03 0. -1.
        -11    1    3    3    0    0 -0.88686174204E+01 -0.60174966752E+01  0.28930462799E+01  0.11101007082E+02  0.51100000000E-03 0.  1.
         12    1    3    3    0    0 -0.22154273155E+02 -0.18819563148E+02  0.30347964098E+01  0.29226661893E+02  0.00000000000E+00 0. -1.
</event>
<event>
 7    1  0.1541902E-008  0.4614232E+02  0.7816164E-02  0.1320468E+00
        -11   -1    0    0    0    0  0.00000000000E+00  0.00000000000E+00  0.45593999997E+02  0.45594000000E+02  0.51100000000E-03 0.  1.
         11   -1    0    0    0    0 -0.00000000000E+00 -0.00000000000E+00 -0.45593999997E+02  0.45594000000E+02  0.51100000000E-03 0. -1.
    9900012    2    1    2    0    0  0.17729132184E+02 -0.40252391254E+02 -0.97229733234E+01  0.46142319409E+02  0.10000015025E+02 0.  0.
         12    1    1    2    0    0 -0.17729132184E+02  0.40252391254E+02  0.97229733234E+01  0.45045680591E+02  0.00000000000E+00 0. -1.
         11    1    3    3    0    0  0.63505018772E+00 -0.14546187571E+01 -0.20504831883E+01  0.25930071415E+01  0.51100000000E-03 0. -1.
        -11    1    3    3    0    0  0.13280639660E+02 -0.30468832291E+02 -0.86284749543E+01  0.34339127992E+02  0.51100000000E-03 0.  1.
        -12    1    3    3    0    0  0.38134423356E+01 -0.83289402065E+01  0.95598481922E+00  0.92101842753E+01  0.00000000000E+00 0.  1.
</event>
<event>
 7    1  0.1541902E-008  0.4614232E+02  0.7816164E-02  0.1320468E+00
        -11   -1    0    0    0    0  0.00000000000E+00  0.00000000000E+00  0.45593999997E+02  0.45594000000E+02  0.51100000000E-03 0. -1.
         11   -1    0    0    0    0 -0.00000000000E+00 -0.00000000000E+00 -0.45593999997E+02  0.45594000000E+02  0.51100000000E-03 0.  1.
    9900012    2    1    2    0    0  0.43884646812E+02  0.12186427688E+01  0.10087922887E+02  0.46142317585E+02  0.99999983949E+01 0.  0.
         12    1    1    2    0    0 -0.43884646812E+02 -0.12186427688E+01 -0.10087922887E+02  0.45045682415E+02  0.00000000000E+00 0. -1.
         11    1    3    3    0    0  0.43572767974E+01  0.11142768578E+01 -0.18290324896E+01  0.48551863109E+01  0.51100000000E-03 0. -1.
        -11    1    3    3    0    0  0.22623660431E+01  0.13183627047E-01  0.78808990140E+00  0.23957378560E+01  0.51100000000E-03 0.  1.
         12    1    3    3    0    0  0.37265003972E+02  0.91182283956E-01  0.11128865475E+02  0.38891393418E+02  0.00000000000E+00 0. -1.
</event>
<event>
 7    1  0.1541902E-008  0.4614232E+02  0.7816164E-02  0.1320468E+00
        -11   -1    0    0    0    0  0.00000000000E+00  0.00000000000E+00  0.45593999997E+02  0.45594000000E+02  0.51100000000E-03 0. -1.
         11   -1    0    0    0    0 -0.00000000000E+00 -0.00000000000E+00 -0.45593999997E+02  0.45594000000E+02  0.51100000000E-03 0.  1.
    9900012    2    1    2    0    0  0.19246374781E+02 -0.13746527452E+02 -0.38336973473E+02  0.46142317695E+02  0.99999994007E+01 0.  0.
         12    1    1    2    0    0 -0.19246374781E+02  0.13746527452E+02  0.38336973473E+02  0.45045682305E+02  0.00000000000E+00 0. -1.
         11    1    3    3    0    0 -0.88770628646E+00 -0.57594968805E+00 -0.82229804599E+00  0.13401174694E+01  0.51100000000E-03 0. -1.
        -11    1    3    3    0    0  0.10022161242E+02 -0.50716235751E+01 -0.20968389343E+02  0.23787358692E+02  0.51100000000E-03 0.  1.
        -12    1    3    3    0    0  0.10111919825E+02 -0.80989541891E+01 -0.16546286084E+02  0.21014841534E+02  0.00000000000E+00 0.  1.
</event>
<event>
 7    1  0.1541902E-008  0.4614232E+02  0.7816164E-02  0.1320468E+00
        -11   -1    0    0    0    0  0.00000000000E+00  0.00000000000E+00  0.45593999997E+02  0.45594000000E+02  0.51100000000E-03 0.  1.
         11   -1    0    0    0    0 -0.00000000000E+00 -0.00000000000E+00 -0.45593999997E+02  0.45594000000E+02  0.51100000000E-03 0. -1.
    9900012    2    1    2    0    0 -0.34614756994E+02  0.28736199051E+02 -0.22722214017E+01  0.46142317324E+02  0.99999960109E+01 0.  0.
         12    1    1    2    0    0  0.34614756994E+02 -0.28736199051E+02  0.22722214017E+01  0.45045682676E+02  0.00000000000E+00 0. -1.
         11    1    3    3    0    0 -0.27917841435E+02  0.25081241678E+02 -0.11674557271E+01  0.37547802967E+02  0.51100000000E-03 0.  1.
        -11    1    3    3    0    0 -0.18811722593E+01  0.93979873108E+00 -0.21060461037E+01  0.29761487154E+01  0.51100000000E-03 0. -1.
         12    1    3    3    0    0 -0.48157433002E+01  0.27151586421E+01  0.10012804291E+01  0.56183656416E+01  0.00000000000E+00 0. -1.
</event>
<event>
 7    1  0.1541902E-008  0.4614232E+02  0.7816164E-02  0.1320468E+00
        -11   -1    0    0    0    0  0.00000000000E+00  0.00000000000E+00  0.45593999997E+02  0.45594000000E+02  0.51100000000E-03 0.  1.
         11   -1    0    0    0    0 -0.00000000000E+00 -0.00000000000E+00 -0.45593999997E+02  0.45594000000E+02  0.51100000000E-03 0. -1.
    9900012    2    1    2    0    0  0.28631952248E+02  0.12889750569E+02  0.32298284357E+02  0.46142317280E+02  0.99999956143E+01 0.  0.
         12    1    1    2    0    0 -0.28631952248E+02 -0.12889750569E+02 -0.32298284357E+02  0.45045682720E+02  0.00000000000E+00 0. -1.
         11    1    3    3    0    0  0.13975145232E+02  0.93950754243E+01  0.14910750909E+02  0.22492279107E+02  0.51100000000E-03 0.  1.
        -11    1    3    3    0    0  0.11490517546E+02  0.18637375721E+01  0.16090115587E+02  0.19859439345E+02  0.51100000000E-03 0. -1.
         12    1    3    3    0    0  0.31662894698E+01  0.16309375725E+01  0.12974178608E+01  0.37905988284E+01  0.00000000000E+00 0. -1.
</event>
<event>
 7    1  0.1541902E-008  0.4614232E+02  0.7816164E-02  0.1320468E+00
        -11   -1    0    0    0    0  0.00000000000E+00  0.00000000000E+00  0.45593999997E+02  0.45594000000E+02  0.51100000000E-03 0.  1.
         11   -1    0    0    0    0 -0.00000000000E+00 -0.00000000000E+00 -0.45593999997E+02  0.45594000000E+02  0.51100000000E-03 0. -1.
    9900012    2    1    2    0    0 -0.13578876057E+02  0.91370247856E+00  0.42940572806E+02  0.46142317409E+02  0.99999967910E+01 0.  0.
         12    1    1    2    0    0  0.13578876057E+02 -0.91370247856E+00 -0.42940572806E+02  0.45045682591E+02  0.00000000000E+00 0. -1.
         11    1    3    3    0    0 -0.10985099432E+01 -0.25315993953E+01  0.77201913635E+01  0.81986019871E+01  0.51100000000E-03 0. -1.
        -11    1    3    3    0    0 -0.39528656375E+01 -0.92415631917E+00  0.15440540107E+02  0.15965258868E+02  0.51100000000E-03 0.  1.
         12    1    3    3    0    0 -0.85275004761E+01  0.43694581930E+01  0.19779841335E+02  0.21978456555E+02  0.00000000000E+00 0. -1.
</event>
<event>
 7    1  0.1541902E-008  0.4614232E+02  0.7816164E-02  0.1320468E+00
        -11   -1    0    0    0    0  0.00000000000E+00  0.00000000000E+00  0.45593999997E+02  0.45594000000E+02  0.51100000000E-03 0.  1.
         11   -1    0    0    0    0 -0.00000000000E+00 -0.00000000000E+00 -0.45593999997E+02  0.45594000000E+02  0.51100000000E-03 0. -1.
    9900012    2    1    2    0    0  0.26830864058E+02 -0.86622021937E+01  0.35130962393E+02  0.46142317281E+02  0.99999956195E+01 0.  0.
         12    1    1    2    0    0 -0.26830864058E+02  0.86622021937E+01 -0.35130962393E+02  0.45045682719E+02  0.00000000000E+00 0. -1.
         11    1    3    3    0    0  0.13995104496E+02 -0.83002928846E+01  0.15226936898E+02  0.22284914615E+02  0.51100000000E-03 0.  1.
        -11    1    3    3    0    0  0.75523200991E+01  0.39380258283E+00  0.93069120545E+01  0.11992132071E+02  0.51100000000E-03 0. -1.
        -12    1    3    3    0    0  0.52834394639E+01 -0.75571189190E+00  0.10597113440E+02  0.11865270595E+02  0.00000000000E+00 0.  1.
</event>
<event>
 7    1  0.1541902E-008  0.4614232E+02  0.7816164E-02  0.1320468E+00
        -11   -1    0    0    0    0  0.00000000000E+00  0.00000000000E+00  0.45593999997E+02  0.45594000000E+02  0.51100000000E-03 0.  1.
         11   -1    0    0    0    0 -0.00000000000E+00 -0.00000000000E+00 -0.45593999997E+02  0.45594000000E+02  0.51100000000E-03 0. -1.
    9900012    2    1    2    0    0  0.33381908651E+02 -0.19337289755E+02  0.23255768667E+02  0.46142319002E+02  0.10000011319E+02 0.  0.
         12    1    1    2    0    0 -0.33381908651E+02  0.19337289755E+02 -0.23255768667E+02  0.45045680998E+02  0.00000000000E+00 0. -1.
         11    1    3    3    0    0  0.25883832500E+01 -0.32041488585E+01  0.13958029045E+00  0.41213809185E+01  0.51100000000E-03 0. -1.
        -11    1    3    3    0    0  0.21849613937E+02 -0.11494618462E+02  0.18929853914E+02  0.31110629249E+02  0.51100000000E-03 0.  1.
         12    1    3    3    0    0  0.89439114636E+01 -0.46385224344E+01  0.41863344627E+01  0.10910308835E+02  0.00000000000E+00 0. -1.
</event>
<event>
 7    1  0.1541902E-008  0.4614232E+02  0.7816164E-02  0.1320468E+00
        -11   -1    0    0    0    0  0.00000000000E+00  0.00000000000E+00  0.45593999997E+02  0.45594000000E+02  0.51100000000E-03 0. -1.
         11   -1    0    0    0    0 -0.00000000000E+00 -0.00000000000E+00 -0.45593999997E+02  0.45594000000E+02  0.51100000000E-03 0.  1.
    9900012    2    1    2    0    0 -0.23395490240E+02 -0.27375465097E+02 -0.27061940758E+02  0.46142315519E+02  0.99999795509E+01 0.  0.
         12    1    1    2    0    0  0.23395490240E+02  0.27375465097E+02  0.27061940758E+02  0.45045684481E+02  0.00000000000E+00 0. -1.
         11    1    3    3    0    0 -0.30613950098E+01 -0.48815411665E+01 -0.19219069166E+01  0.60741509714E+01  0.51100000000E-03 0. -1.
        -11    1    3    3    0    0 -0.18960030330E+02 -0.22321598302E+02 -0.25263405839E+02  0.38677851229E+02  0.51100000000E-03 0.  1.
         12    1    3    3    0    0 -0.13740649003E+01 -0.17232562875E+00  0.12337199820E+00  0.13903133181E+01  0.00000000000E+00 0. -1.
</event>
<event>
 7    1  0.1541902E-008  0.4614232E+02  0.7816164E-02  0.1320468E+00
        -11   -1    0    0    0    0  0.00000000000E+00  0.00000000000E+00  0.45593999997E+02  0.45594000000E+02  0.51100000000E-03 0. -1.
         11   -1    0    0    0    0 -0.00000000000E+00 -0.00000000000E+00 -0.45593999997E+02  0.45594000000E+02  0.51100000000E-03 0.  1.
    9900012    2    1    2    0    0  0.19048109147E+01  0.43839295831E+02  0.10178475630E+02  0.46142317302E+02  0.99999958168E+01 0.  0.
         12    1    1    2    0    0 -0.19048109147E+01 -0.43839295831E+02 -0.10178475630E+02  0.45045682698E+02  0.00000000000E+00 0. -1.
         11    1    3    3    0    0 -0.13315647070E+01  0.40000367625E+01  0.30803211315E+01  0.52212773537E+01  0.51100000000E-03 0.  1.
        -11    1    3    3    0    0  0.46409548821E+01  0.32149489287E+02  0.56080346561E+01  0.32963285282E+02  0.51100000000E-03 0. -1.
        -12    1    3    3    0    0 -0.14045792604E+01  0.76897697815E+01  0.14901198419E+01  0.79577546666E+01  0.00000000000E+00 0.  1.
</event>
<event>
 7    1  0.1541902E-008  0.4614232E+02  0.7816164E-02  0.1320468E+00
        -11   -1    0    0    0    0  0.00000000000E+00  0.00000000000E+00  0.45593999997E+02  0.45594000000E+02  0.51100000000E-03 0. -1.
         11   -1    0    0    0    0 -0.00000000000E+00 -0.00000000000E+00 -0.45593999997E+02  0.45594000000E+02  0.51100000000E-03 0.  1.
    9900012    2    1    2    0    0  0.95949714579E+01  0.42774880695E+02 -0.10361451938E+02  0.46142316721E+02  0.99999905197E+01 0.  0.
         12    1    1    2    0    0 -0.95949714579E+01 -0.42774880695E+02  0.10361451938E+02  0.45045683279E+02  0.00000000000E+00 0. -1.
         11    1    3    3    0    0 -0.14199280972E+01  0.11878720871E+02 -0.25990591382E+01  0.12242357371E+02  0.51100000000E-03 0. -1.
        -11    1    3    3    0    0  0.65142020307E+01  0.13034378240E+02 -0.30661139579E+01  0.14890631258E+02  0.51100000000E-03 0.  1.
         12    1    3    3    0    0  0.45006975244E+01  0.17861781584E+02 -0.46962788416E+01  0.19009328092E+02  0.00000000000E+00 0. -1.
</event>
<event>
 7    1  0.1541902E-008  0.4614232E+02  0.7816164E-02  0.1320468E+00
        -11   -1    0    0    0    0  0.00000000000E+00  0.00000000000E+00  0.45593999997E+02  0.45594000000E+02  0.51100000000E-03 0.  1.
         11   -1    0    0    0    0 -0.00000000000E+00 -0.00000000000E+00 -0.45593999997E+02  0.45594000000E+02  0.51100000000E-03 0. -1.
    9900012    2    1    2    0    0 -0.18581162284E+02  0.71749024089E+00  0.41028515074E+02  0.46142318373E+02  0.10000005582E+02 0.  0.
         12    1    1    2    0    0  0.18581162284E+02 -0.71749024089E+00 -0.41028515074E+02  0.45045681627E+02  0.00000000000E+00 0. -1.
         11    1    3    3    0    0 -0.19477112666E+01 -0.29624074227E+01  0.52225808238E+01  0.63122727792E+01  0.51100000000E-03 0. -1.
        -11    1    3    3    0    0 -0.40912277177E+01  0.81795282345E-01  0.12060242949E+02  0.12735552401E+02  0.51100000000E-03 0.  1.
         12    1    3    3    0    0 -0.12542223299E+02  0.35981023813E+01  0.23745691301E+02  0.27094493193E+02  0.00000000000E+00 0. -1.
</event>
<event>
 7    1  0.1541902E-008  0.4614232E+02  0.7816164E-02  0.1320468E+00
        -11   -1    0    0    0    0  0.00000000000E+00  0.00000000000E+00  0.45593999997E+02  0.45594000000E+02  0.51100000000E-03 0.  1.
         11   -1    0    0    0    0 -0.00000000000E+00 -0.00000000000E+00 -0.45593999997E+02  0.45594000000E+02  0.51100000000E-03 0. -1.
    9900012    2    1    2    0    0  0.17505523746E+02  0.23526569527E+02  0.34193138183E+02  0.46142317253E+02  0.99999953654E+01 0.  0.
         12    1    1    2    0    0 -0.17505523746E+02 -0.23526569527E+02 -0.34193138183E+02  0.45045682747E+02  0.00000000000E+00 0. -1.
         11    1    3    3    0    0  0.33259188080E+01  0.79168542353E+01  0.11213680794E+02  0.14123914263E+02  0.51100000000E-03 0. -1.
        -11    1    3    3    0    0  0.30490141128E+01 -0.81874578614E-01  0.28605192606E+01  0.41815979252E+01  0.51100000000E-03 0.  1.
        -12    1    3    3    0    0  0.11130590825E+02  0.15691589870E+02  0.20118938129E+02  0.27836805065E+02  0.00000000000E+00 0.  1.
</event>
<event>
 7    1  0.1541902E-008  0.4614232E+02  0.7816164E-02  0.1320468E+00
        -11   -1    0    0    0    0  0.00000000000E+00  0.00000000000E+00  0.45593999997E+02  0.45594000000E+02  0.51100000000E-03 0.  1.
         11   -1    0    0    0    0 -0.00000000000E+00 -0.00000000000E+00 -0.45593999997E+02  0.45594000000E+02  0.51100000000E-03 0. -1.
    9900012    2    1    2    0    0  0.23161605072E+02  0.46690394635E+01  0.38351709309E+02  0.46142317788E+02  0.10000000243E+02 0.  0.
         12    1    1    2    0    0 -0.23161605072E+02 -0.46690394635E+01 -0.38351709309E+02  0.45045682212E+02  0.00000000000E+00 0. -1.
         11    1    3    3    0    0  0.44742714575E+01  0.53044869619E-02  0.14206606143E+02  0.14894522200E+02  0.51100000000E-03 0. -1.
        -11    1    3    3    0    0  0.96982249002E+01  0.41137624694E+01  0.15664558247E+02  0.18877420195E+02  0.51100000000E-03 0.  1.
         12    1    3    3    0    0  0.89891087140E+01  0.54997250713E+00  0.84805449194E+01  0.12370375393E+02  0.00000000000E+00 0. -1.
</event>
<event>
 7    1  0.1541902E-008  0.4614232E+02  0.7816164E-02  0.1320468E+00
        -11   -1    0    0    0    0  0.00000000000E+00  0.00000000000E+00  0.45593999997E+02  0.45594000000E+02  0.51100000000E-03 0.  1.
         11   -1    0    0    0    0 -0.00000000000E+00 -0.00000000000E+00 -0.45593999997E+02  0.45594000000E+02  0.51100000000E-03 0. -1.
    9900012    2    1    2    0    0 -0.94746785244E+01 -0.20171024681E+02  0.39146823506E+02  0.46142316961E+02  0.99999927080E+01 0.  0.
         12    1    1    2    0    0  0.94746785244E+01  0.20171024681E+02 -0.39146823506E+02  0.45045683039E+02  0.00000000000E+00 0. -1.
         11    1    3    3    0    0 -0.13165125932E+01  0.83375572483E+00  0.16696481634E+01  0.22838737415E+01  0.51100000000E-03 0. -1.
        -11    1    3    3    0    0 -0.21442558617E+01 -0.76263359807E+01  0.10522626389E+02  0.13171351490E+02  0.51100000000E-03 0.  1.
         12    1    3    3    0    0 -0.60139100696E+01 -0.13378444425E+02  0.26954548953E+02  0.30687091730E+02  0.00000000000E+00 0. -1.
</event>
<event>
 7    1  0.1541902E-008  0.4614232E+02  0.7816164E-02  0.1320468E+00
        -11   -1    0    0    0    0  0.00000000000E+00  0.00000000000E+00  0.45593999997E+02  0.45594000000E+02  0.51100000000E-03 0.  1.
         11   -1    0    0    0    0 -0.00000000000E+00 -0.00000000000E+00 -0.45593999997E+02  0.45594000000E+02  0.51100000000E-03 0. -1.
    9900012    2    1    2    0    0 -0.30623838700E+02  0.12739101385E+02  0.30479653624E+02  0.46142317789E+02  0.10000000252E+02 0.  0.
         12    1    1    2    0    0  0.30623838700E+02 -0.12739101385E+02 -0.30479653624E+02  0.45045682211E+02  0.00000000000E+00 0. -1.
         11    1    3    3    0    0 -0.43465883065E+01  0.28672767930E+01  0.82329219730E+00  0.52718039054E+01  0.51100000000E-03 0. -1.
        -11    1    3    3    0    0 -0.21631369782E+02  0.87991565279E+01  0.24430974410E+02  0.33796654052E+02  0.51100000000E-03 0.  1.
         12    1    3    3    0    0 -0.46458806118E+01  0.10726680645E+01  0.52253870167E+01  0.70738598311E+01  0.00000000000E+00 0. -1.
</event>
<event>
 7    1  0.1541902E-008  0.4614232E+02  0.7816164E-02  0.1320468E+00
        -11   -1    0    0    0    0  0.00000000000E+00  0.00000000000E+00  0.45593999997E+02  0.45594000000E+02  0.51100000000E-03 0.  1.
         11   -1    0    0    0    0 -0.00000000000E+00 -0.00000000000E+00 -0.45593999997E+02  0.45594000000E+02  0.51100000000E-03 0. -1.
    9900012    2    1    2    0    0  0.11482115057E+02 -0.25154035357E+02  0.35560491387E+02  0.46142323086E+02  0.10000048556E+02 0.  0.
         12    1    1    2    0    0 -0.11482115057E+02  0.25154035357E+02 -0.35560491387E+02  0.45045676914E+02  0.00000000000E+00 0. -1.
         11    1    3    3    0    0  0.27450541872E+01 -0.24254574186E+01  0.13239860212E+01  0.38950103242E+01  0.51100000000E-03 0. -1.
        -11    1    3    3    0    0  0.31679000448E+01 -0.12365030465E+02  0.20631014922E+02  0.24260427574E+02  0.51100000000E-03 0.  1.
         12    1    3    3    0    0  0.55691608252E+01 -0.10363547474E+02  0.13605490444E+02  0.17986885187E+02  0.00000000000E+00 0. -1.
</event>
<event>
 7    1  0.1541902E-008  0.4614232E+02  0.7816164E-02  0.1320468E+00
        -11   -1    0    0    0    0  0.00000000000E+00  0.00000000000E+00  0.45593999997E+02  0.45594000000E+02  0.51100000000E-03 0. -1.
         11   -1    0    0    0    0 -0.00000000000E+00 -0.00000000000E+00 -0.45593999997E+02  0.45594000000E+02  0.51100000000E-03 0.  1.
    9900012    2    1    2    0    0 -0.14530595215E+01 -0.38064194072E+02 -0.24044110631E+02  0.46142317539E+02  0.99999979736E+01 0.  0.
         12    1    1    2    0    0  0.14530595215E+01  0.38064194072E+02  0.24044110631E+02  0.45045682461E+02  0.00000000000E+00 0. -1.
         11    1    3    3    0    0  0.18150568773E+01 -0.70365869682E+01 -0.81400151342E+01  0.10911820851E+02  0.51100000000E-03 0. -1.
        -11    1    3    3    0    0 -0.90375985987E+00 -0.20161043884E+02 -0.11791715156E+02  0.23373682186E+02  0.51100000000E-03 0.  1.
         12    1    3    3    0    0 -0.23643565389E+01 -0.10866563220E+02 -0.41123803407E+01  0.11856814502E+02  0.00000000000E+00 0. -1.
</event>
<event>
 7    1  0.1541902E-008  0.4614232E+02  0.7816164E-02  0.1320468E+00
        -11   -1    0    0    0    0  0.00000000000E+00  0.00000000000E+00  0.45593999997E+02  0.45594000000E+02  0.51100000000E-03 0.  1.
         11   -1    0    0    0    0 -0.00000000000E+00 -0.00000000000E+00 -0.45593999997E+02  0.45594000000E+02  0.51100000000E-03 0. -1.
    9900012    2    1    2    0    0  0.87080873488E+00 -0.18153938587E+02  0.41216375974E+02  0.46142318270E+02  0.10000004645E+02 0.  0.
         12    1    1    2    0    0 -0.87080873488E+00  0.18153938587E+02 -0.41216375974E+02  0.45045681730E+02  0.00000000000E+00 0. -1.
         11    1    3    3    0    0 -0.35450966362E+01 -0.38848579542E+01  0.86297303575E+01  0.10106041648E+02  0.51100000000E-03 0. -1.
        -11    1    3    3    0    0  0.33933150424E+01 -0.69099445477E+01  0.19856857651E+02  0.21296871053E+02  0.51100000000E-03 0.  1.
        -12    1    3    3    0    0  0.10225903287E+01 -0.73591360846E+01  0.12729787966E+02  0.14739405570E+02  0.00000000000E+00 0.  1.
</event>
<event>
 7    1  0.1541902E-008  0.4614232E+02  0.7816164E-02  0.1320468E+00
        -11   -1    0    0    0    0  0.00000000000E+00  0.00000000000E+00  0.45593999997E+02  0.45594000000E+02  0.51100000000E-03 0.  1.
         11   -1    0    0    0    0 -0.00000000000E+00 -0.00000000000E+00 -0.45593999997E+02  0.45594000000E+02  0.51100000000E-03 0. -1.
    9900012    2    1    2    0    0  0.28684001158E+02 -0.20806542655E+02  0.27810587845E+02  0.46142323893E+02  0.10000055916E+02 0.  0.
         12    1    1    2    0    0 -0.28684001158E+02  0.20806542655E+02 -0.27810587845E+02  0.45045676107E+02  0.00000000000E+00 0. -1.
         11    1    3    3    0    0  0.11821643395E+02 -0.83522462293E+01  0.69311779072E+01  0.16048442201E+02  0.51100000000E-03 0. -1.
        -11    1    3    3    0    0  0.14411504165E+02 -0.12696210606E+02  0.18668910264E+02  0.26784574418E+02  0.51100000000E-03 0.  1.
        -12    1    3    3    0    0  0.24508535977E+01  0.24191418048E+00  0.22104996734E+01  0.33093072741E+01  0.00000000000E+00 0.  1.
</event>
<event>
 7    1  0.1541902E-008  0.4614232E+02  0.7816164E-02  0.1320468E+00
        -11   -1    0    0    0    0  0.00000000000E+00  0.00000000000E+00  0.45593999997E+02  0.45594000000E+02  0.51100000000E-03 0.  1.
         11   -1    0    0    0    0 -0.00000000000E+00 -0.00000000000E+00 -0.45593999997E+02  0.45594000000E+02  0.51100000000E-03 0. -1.
    9900012    2    1    2    0    0 -0.36173799974E+02  0.18302096503E+01  0.26780966987E+02  0.46142315804E+02  0.99999821516E+01 0.  0.
         12    1    1    2    0    0  0.36173799974E+02 -0.18302096503E+01 -0.26780966987E+02  0.45045684196E+02  0.00000000000E+00 0. -1.
         11    1    3    3    0    0 -0.19896787193E+02  0.20314988745E+01  0.17133713920E+02  0.26335779488E+02  0.51100000000E-03 0. -1.
        -11    1    3    3    0    0 -0.13306775867E+02  0.76070603356E+00  0.10002431590E+02  0.16664261028E+02  0.51100000000E-03 0.  1.
         12    1    3    3    0    0 -0.29702369141E+01 -0.96199525780E+00 -0.35517852238E+00  0.31422752878E+01  0.00000000000E+00 0. -1.
</event>
<event>
 7    1  0.1541902E-008  0.4614232E+02  0.7816164E-02  0.1320468E+00
        -11   -1    0    0    0    0  0.00000000000E+00  0.00000000000E+00  0.45593999997E+02  0.45594000000E+02  0.51100000000E-03 0.  1.
         11   -1    0    0    0    0 -0.00000000000E+00 -0.00000000000E+00 -0.45593999997E+02  0.45594000000E+02  0.51100000000E-03 0. -1.
    9900012    2    1    2    0    0 -0.42193999448E+02 -0.14508447291E+02  0.61874709081E+01  0.46142318426E+02  0.10000006062E+02 0.  0.
         12    1    1    2    0    0  0.42193999448E+02  0.14508447291E+02 -0.61874709081E+01  0.45045681574E+02  0.00000000000E+00 0. -1.
         11    1    3    3    0    0 -0.27694634226E+01 -0.36197764440E+01  0.15062428925E+01  0.48001538586E+01  0.51100000000E-03 0. -1.
        -11    1    3    3    0    0 -0.62790828101E+01 -0.62728753588E+00  0.15878029161E+01  0.65070338059E+01  0.51100000000E-03 0.  1.
         12    1    3    3    0    0 -0.33145453216E+02 -0.10261383311E+02  0.30934250994E+01  0.34835130761E+02  0.00000000000E+00 0. -1.
</event>
<event>
 7    1  0.1541902E-008  0.4614232E+02  0.7816164E-02  0.1320468E+00
        -11   -1    0    0    0    0  0.00000000000E+00  0.00000000000E+00  0.45593999997E+02  0.45594000000E+02  0.51100000000E-03 0.  1.
         11   -1    0    0    0    0 -0.00000000000E+00 -0.00000000000E+00 -0.45593999997E+02  0.45594000000E+02  0.51100000000E-03 0. -1.
    9900012    2    1    2    0    0  0.24339768988E+02  0.34736207493E+02  0.15168548394E+02  0.46142319566E+02  0.10000016457E+02 0.  0.
         12    1    1    2    0    0 -0.24339768988E+02 -0.34736207493E+02 -0.15168548394E+02  0.45045680434E+02  0.00000000000E+00 0. -1.
         11    1    3    3    0    0  0.63548690264E+01  0.12058521408E+02  0.89148680831E+01  0.16287024654E+02  0.51100000000E-03 0. -1.
        -11    1    3    3    0    0  0.13870868458E+02  0.17591765790E+02  0.64443805598E+01  0.23310968587E+02  0.51100000000E-03 0.  1.
        -12    1    3    3    0    0  0.41140315036E+01  0.50859202955E+01 -0.19070024882E+00  0.65443263251E+01  0.00000000000E+00 0.  1.
</event>
<event>
 7    1  0.1541902E-008  0.4614232E+02  0.7816164E-02  0.1320468E+00
        -11   -1    0    0    0    0  0.00000000000E+00  0.00000000000E+00  0.45593999997E+02  0.45594000000E+02  0.51100000000E-03 0.  1.
         11   -1    0    0    0    0 -0.00000000000E+00 -0.00000000000E+00 -0.45593999997E+02  0.45594000000E+02  0.51100000000E-03 0. -1.
    9900012    2    1    2    0    0 -0.18242825153E+02  0.86476289186E+01  0.40268242799E+02  0.46142317259E+02  0.99999954181E+01 0.  0.
         12    1    1    2    0    0  0.18242825153E+02 -0.86476289186E+01 -0.40268242799E+02  0.45045682741E+02  0.00000000000E+00 0. -1.
         11    1    3    3    0    0 -0.31667513001E+01  0.13938522252E+01  0.39118022053E+01  0.52223878233E+01  0.51100000000E-03 0. -1.
        -11    1    3    3    0    0 -0.10236164890E+02  0.41226795537E+01  0.13967097493E+02  0.17800431764E+02  0.51100000000E-03 0.  1.
        -12    1    3    3    0    0 -0.48399089635E+01  0.31310971397E+01  0.22389343101E+02  0.23119497671E+02  0.00000000000E+00 0.  1.
</event>
<event>
 7    1  0.1541902E-008  0.4614232E+02  0.7816164E-02  0.1320468E+00
        -11   -1    0    0    0    0  0.00000000000E+00  0.00000000000E+00  0.45593999997E+02  0.45594000000E+02  0.51100000000E-03 0. -1.
         11   -1    0    0    0    0 -0.00000000000E+00 -0.00000000000E+00 -0.45593999997E+02  0.45594000000E+02  0.51100000000E-03 0.  1.
    9900012    2    1    2    0    0  0.97033541144E+01 -0.40217637992E+02 -0.17818531117E+02  0.46142317211E+02  0.99999949832E+01 0.  0.
         12    1    1    2    0    0 -0.97033541144E+01  0.40217637992E+02  0.17818531117E+02  0.45045682789E+02  0.00000000000E+00 0. -1.
         11    1    3    3    0    0 -0.74166044516E+00 -0.99587441829E+01 -0.38602445347E+01  0.10706452916E+02  0.51100000000E-03 0. -1.
        -11    1    3    3    0    0  0.32708981848E+01 -0.58771754779E+01 -0.53763931464E+01  0.86107821979E+01  0.51100000000E-03 0.  1.
         12    1    3    3    0    0  0.71741163747E+01 -0.24381718332E+02 -0.85818934362E+01  0.26825082097E+02  0.00000000000E+00 0. -1.
</event>
<event>
 7    1  0.1541902E-008  0.4614232E+02  0.7816164E-02  0.1320468E+00
        -11   -1    0    0    0    0  0.00000000000E+00  0.00000000000E+00  0.45593999997E+02  0.45594000000E+02  0.51100000000E-03 0.  1.
         11   -1    0    0    0    0 -0.00000000000E+00 -0.00000000000E+00 -0.45593999997E+02  0.45594000000E+02  0.51100000000E-03 0. -1.
    9900012    2    1    2    0    0 -0.35274716263E+02 -0.24319356358E+02  0.13905997653E+02  0.46142317945E+02  0.10000001676E+02 0.  0.
         12    1    1    2    0    0  0.35274716263E+02  0.24319356358E+02 -0.13905997653E+02  0.45045682055E+02  0.00000000000E+00 0. -1.
         11    1    3    3    0    0 -0.15247252508E+02 -0.12208611201E+02  0.79622960706E+01  0.21093294088E+02  0.51100000000E-03 0. -1.
        -11    1    3    3    0    0 -0.14255764948E+01 -0.25679000946E+01  0.25071355161E+01  0.38616198668E+01  0.51100000000E-03 0.  1.
        -12    1    3    3    0    0 -0.18601887260E+02 -0.95428450620E+01  0.34365660664E+01  0.21187403990E+02  0.00000000000E+00 0.  1.
</event>
<event>
 7    1  0.1541902E-008  0.4614232E+02  0.7816164E-02  0.1320468E+00
        -11   -1    0    0    0    0  0.00000000000E+00  0.00000000000E+00  0.45593999997E+02  0.45594000000E+02  0.51100000000E-03 0. -1.
         11   -1    0    0    0    0 -0.00000000000E+00 -0.00000000000E+00 -0.45593999997E+02  0.45594000000E+02  0.51100000000E-03 0.  1.
    9900012    2    1    2    0    0  0.24723985337E+02  0.13537797054E+02 -0.35136391674E+02  0.46142318521E+02  0.10000006933E+02 0.  0.
         12    1    1    2    0    0 -0.24723985337E+02 -0.13537797054E+02  0.35136391674E+02  0.45045681479E+02  0.00000000000E+00 0. -1.
         11    1    3    3    0    0  0.16556166854E+01  0.37460079334E+01 -0.31366283314E+01  0.51586897170E+01  0.51100000000E-03 0. -1.
        -11    1    3    3    0    0  0.69937052509E+01  0.20813196526E+01 -0.13146485512E+02  0.15035753596E+02  0.51100000000E-03 0.  1.
         12    1    3    3    0    0  0.16074663400E+02  0.77104694682E+01 -0.18853277830E+02  0.25947875208E+02  0.00000000000E+00 0. -1.
</event>
<event>
 7    1  0.1541902E-008  0.4614232E+02  0.7816164E-02  0.1320468E+00
        -11   -1    0    0    0    0  0.00000000000E+00  0.00000000000E+00  0.45593999997E+02  0.45594000000E+02  0.51100000000E-03 0.  1.
         11   -1    0    0    0    0 -0.00000000000E+00 -0.00000000000E+00 -0.45593999997E+02  0.45594000000E+02  0.51100000000E-03 0. -1.
    9900012    2    1    2    0    0  0.93864397568E+01  0.24457248941E+02  0.36644929113E+02  0.46142321997E+02  0.10000038625E+02 0.  0.
         12    1    1    2    0    0 -0.93864397568E+01 -0.24457248941E+02 -0.36644929113E+02  0.45045678003E+02  0.00000000000E+00 0. -1.
         11    1    3    3    0    0  0.19518833537E+01  0.36979375952E+01  0.98590615214E+01  0.10709140275E+02  0.51100000000E-03 0. -1.
        -11    1    3    3    0    0  0.74990490023E+01  0.12256801472E+02  0.13878779918E+02  0.19977123179E+02  0.51100000000E-03 0.  1.
        -12    1    3    3    0    0 -0.64492599249E-01  0.85025098736E+01  0.12907087674E+02  0.15456058542E+02  0.00000000000E+00 0.  1.
</event>
<event>
 7    1  0.1541902E-008  0.4614232E+02  0.7816164E-02  0.1320468E+00
        -11   -1    0    0    0    0  0.00000000000E+00  0.00000000000E+00  0.45593999997E+02  0.45594000000E+02  0.51100000000E-03 0.  1.
         11   -1    0    0    0    0 -0.00000000000E+00 -0.00000000000E+00 -0.45593999997E+02  0.45594000000E+02  0.51100000000E-03 0. -1.
    9900012    2    1    2    0    0  0.19790690678E+02 -0.53452591907E+01  0.40110725681E+02  0.46142317100E+02  0.99999939672E+01 0.  0.
         12    1    1    2    0    0 -0.19790690678E+02  0.53452591907E+01 -0.40110725681E+02  0.45045682900E+02  0.00000000000E+00 0. -1.
         11    1    3    3    0    0  0.81562592436E+01  0.21139548530E+01  0.16854523431E+02  0.18843256893E+02  0.51100000000E-03 0. -1.
        -11    1    3    3    0    0  0.56982398424E+01 -0.45792318361E+01  0.15347303684E+02  0.16999383287E+02  0.51100000000E-03 0.  1.
         12    1    3    3    0    0  0.59361915916E+01 -0.28799822076E+01  0.79088985660E+01  0.10299676920E+02  0.00000000000E+00 0. -1.
</event>
<event>
 7    1  0.1541902E-008  0.4614232E+02  0.7816164E-02  0.1320468E+00
        -11   -1    0    0    0    0  0.00000000000E+00  0.00000000000E+00  0.45593999997E+02  0.45594000000E+02  0.51100000000E-03 0.  1.
         11   -1    0    0    0    0 -0.00000000000E+00 -0.00000000000E+00 -0.45593999997E+02  0.45594000000E+02  0.51100000000E-03 0. -1.
    9900012    2    1    2    0    0 -0.29964180740E+01  0.33679934654E+02  0.29762342139E+02  0.46142317309E+02  0.99999958728E+01 0.  0.
         12    1    1    2    0    0  0.29964180740E+01 -0.33679934654E+02 -0.29762342139E+02  0.45045682691E+02  0.00000000000E+00 0. -1.
         11    1    3    3    0    0 -0.25289385524E+01  0.72249998743E+01  0.11304659829E+02  0.13652526780E+02  0.51100000000E-03 0. -1.
        -11    1    3    3    0    0  0.11693985931E+01  0.10544665576E+02  0.89709053197E+01  0.13893689492E+02  0.51100000000E-03 0.  1.
         12    1    3    3    0    0 -0.16368781148E+01  0.15910269203E+02  0.94867769905E+01  0.18596101036E+02  0.00000000000E+00 0. -1.
</event>
<event>
 7    1  0.1541902E-008  0.4614232E+02  0.7816164E-02  0.1320468E+00
        -11   -1    0    0    0    0  0.00000000000E+00  0.00000000000E+00  0.45593999997E+02  0.45594000000E+02  0.51100000000E-03 0.  1.
         11   -1    0    0    0    0 -0.00000000000E+00 -0.00000000000E+00 -0.45593999997E+02  0.45594000000E+02  0.51100000000E-03 0. -1.
    9900012    2    1    2    0    0 -0.35359540605E+02 -0.15743261536E+02  0.23042700016E+02  0.46142318524E+02  0.10000006958E+02 0.  0.
         12    1    1    2    0    0  0.35359540605E+02  0.15743261536E+02 -0.23042700016E+02  0.45045681476E+02  0.00000000000E+00 0. -1.
         11    1    3    3    0    0 -0.13516589854E+01 -0.19509906529E+01  0.15190552319E+01  0.28179559257E+01  0.51100000000E-03 0. -1.
        -11    1    3    3    0    0 -0.13312915920E+02 -0.12410029167E+01  0.84252472044E+01  0.15803753011E+02  0.51100000000E-03 0.  1.
        -12    1    3    3    0    0 -0.20694965700E+02 -0.12551267966E+02  0.13098397580E+02  0.27520609587E+02  0.00000000000E+00 0.  1.
</event>
<event>
 7    1  0.1541902E-008  0.4614232E+02  0.7816164E-02  0.1320468E+00
        -11   -1    0    0    0    0  0.00000000000E+00  0.00000000000E+00  0.45593999997E+02  0.45594000000E+02  0.51100000000E-03 0.  1.
         11   -1    0    0    0    0 -0.00000000000E+00 -0.00000000000E+00 -0.45593999997E+02  0.45594000000E+02  0.51100000000E-03 0. -1.
    9900012    2    1    2    0    0  0.14378045955E+02  0.41846424862E+02  0.84416919242E+01  0.46142316058E+02  0.99999844741E+01 0.  0.
         12    1    1    2    0    0 -0.14378045955E+02 -0.41846424862E+02 -0.84416919242E+01  0.45045683942E+02  0.00000000000E+00 0. -1.
         11    1    3    3    0    0  0.86100778857E+01  0.25622134955E+02  0.79028565499E+01  0.28161718391E+02  0.51100000000E-03 0. -1.
        -11    1    3    3    0    0  0.61760371529E+01  0.12365068033E+02 -0.87748155128E+00  0.13849487952E+02  0.51100000000E-03 0.  1.
         12    1    3    3    0    0 -0.40806908402E+00  0.38592218741E+01  0.14163169255E+01  0.41311097158E+01  0.00000000000E+00 0. -1.
</event>
<event>
 7    1  0.1541902E-008  0.4614232E+02  0.7816164E-02  0.1320468E+00
        -11   -1    0    0    0    0  0.00000000000E+00  0.00000000000E+00  0.45593999997E+02  0.45594000000E+02  0.51100000000E-03 0. -1.
         11   -1    0    0    0    0 -0.00000000000E+00 -0.00000000000E+00 -0.45593999997E+02  0.45594000000E+02  0.51100000000E-03 0.  1.
    9900012    2    1    2    0    0  0.17321951379E+02  0.19269985541E+02 -0.36847403743E+02  0.46142317578E+02  0.99999983287E+01 0.  0.
         12    1    1    2    0    0 -0.17321951379E+02 -0.19269985541E+02  0.36847403743E+02  0.45045682422E+02  0.00000000000E+00 0. -1.
         11    1    3    3    0    0  0.43434258115E+00 -0.71406308440E+00 -0.11508982552E+01  0.14223595260E+01  0.51100000000E-03 0. -1.
        -11    1    3    3    0    0  0.28154797559E+01  0.21817348820E+01 -0.19712163128E+01  0.40709442841E+01  0.51100000000E-03 0.  1.
         12    1    3    3    0    0  0.14072129042E+02  0.17802313743E+02 -0.33725289175E+02  0.40649013768E+02  0.00000000000E+00 0. -1.
</event>
<event>
 7    1  0.1541902E-008  0.4614232E+02  0.7816164E-02  0.1320468E+00
        -11   -1    0    0    0    0  0.00000000000E+00  0.00000000000E+00  0.45593999997E+02  0.45594000000E+02  0.51100000000E-03 0.  1.
         11   -1    0    0    0    0 -0.00000000000E+00 -0.00000000000E+00 -0.45593999997E+02  0.45594000000E+02  0.51100000000E-03 0. -1.
    9900012    2    1    2    0    0  0.10561537322E+02  0.43030608259E+02 -0.81199834958E+01  0.46142318191E+02  0.10000003916E+02 0.  0.
         12    1    1    2    0    0 -0.10561537322E+02 -0.43030608259E+02  0.81199834958E+01  0.45045681809E+02  0.00000000000E+00 0. -1.
         11    1    3    3    0    0  0.34370183499E+01  0.25440422266E+02 -0.59011190551E+01  0.26341058950E+02  0.51100000000E-03 0. -1.
        -11    1    3    3    0    0  0.63604063120E+01  0.17588462848E+02 -0.27018140175E+01  0.18897317086E+02  0.51100000000E-03 0.  1.
         12    1    3    3    0    0  0.76411265961E+00  0.17231446089E-02  0.48294957682E+00  0.90394215498E+00  0.00000000000E+00 0. -1.
</event>
<event>
 7    1  0.1541902E-008  0.4614232E+02  0.7816164E-02  0.1320468E+00
        -11   -1    0    0    0    0  0.00000000000E+00  0.00000000000E+00  0.45593999997E+02  0.45594000000E+02  0.51100000000E-03 0.  1.
         11   -1    0    0    0    0 -0.00000000000E+00 -0.00000000000E+00 -0.45593999997E+02  0.45594000000E+02  0.51100000000E-03 0. -1.
    9900012    2    1    2    0    0 -0.25371368997E+01 -0.26501637184E+02  0.36336478108E+02  0.46142317872E+02  0.10000001012E+02 0.  0.
         12    1    1    2    0    0  0.25371368997E+01  0.26501637184E+02 -0.36336478108E+02  0.45045682128E+02  0.00000000000E+00 0. -1.
         11    1    3    3    0    0 -0.76370371771E+00 -0.58597628209E+01  0.29465672006E+01  0.66032054500E+01  0.51100000000E-03 0. -1.
        -11    1    3    3    0    0 -0.94596678997E+00 -0.20217125387E+02  0.32126857652E+02  0.37970541146E+02  0.51100000000E-03 0.  1.
        -12    1    3    3    0    0 -0.82746639197E+00 -0.42474897657E+00  0.12630532547E+01  0.15685712758E+01  0.00000000000E+00 0.  1.
</event>
<event>
 7    1  0.1541902E-008  0.4614232E+02  0.7816164E-02  0.1320468E+00
        -11   -1    0    0    0    0  0.00000000000E+00  0.00000000000E+00  0.45593999997E+02  0.45594000000E+02  0.51100000000E-03 0. -1.
         11   -1    0    0    0    0 -0.00000000000E+00 -0.00000000000E+00 -0.45593999997E+02  0.45594000000E+02  0.51100000000E-03 0.  1.
    9900012    2    1    2    0    0 -0.36032454661E+02  0.46030806741E+01 -0.26638080654E+02  0.46142317837E+02  0.10000000690E+02 0.  0.
         12    1    1    2    0    0  0.36032454661E+02 -0.46030806741E+01  0.26638080654E+02  0.45045682163E+02  0.00000000000E+00 0. -1.
         11    1    3    3    0    0 -0.17663591007E+01  0.10143117673E+01 -0.12565483404E+01  0.23932753345E+01  0.51100000000E-03 0. -1.
        -11    1    3    3    0    0 -0.22572414198E+02  0.59586861070E+01 -0.19639351558E+02  0.30507768727E+02  0.51100000000E-03 0.  1.
        -12    1    3    3    0    0 -0.11693681363E+02 -0.23699172002E+01 -0.57421807559E+01  0.13241273775E+02  0.00000000000E+00 0.  1.
</event>
<event>
 7    1  0.1541902E-008  0.4614233E+02  0.7816164E-02  0.1320468E+00
        -11   -1    0    0    0    0  0.00000000000E+00  0.00000000000E+00  0.45593999997E+02  0.45594000000E+02  0.51100000000E-03 0.  1.
         11   -1    0    0    0    0 -0.00000000000E+00 -0.00000000000E+00 -0.45593999997E+02  0.45594000000E+02  0.51100000000E-03 0. -1.
    9900012    2    1    2    0    0 -0.84972449498E+01  0.41002684369E+02 -0.16603896389E+02  0.46142326818E+02  0.10000082585E+02 0.  0.
         12    1    1    2    0    0  0.84972449498E+01 -0.41002684369E+02  0.16603896389E+02  0.45045673182E+02  0.00000000000E+00 0. -1.
         11    1    3    3    0    0 -0.38652716634E+01  0.16408441975E+02 -0.90847628543E+01  0.19149679096E+02  0.51100000000E-03 0. -1.
        -11    1    3    3    0    0 -0.45132606972E+01  0.20564209164E+02 -0.35797698907E+01  0.21355818257E+02  0.51100000000E-03 0.  1.
         12    1    3    3    0    0 -0.11871258916E+00  0.40300332287E+01 -0.39393636436E+01  0.56368294652E+01  0.00000000000E+00 0. -1.
</event>
<event>
 7    1  0.1541902E-008  0.4614231E+02  0.7816164E-02  0.1320468E+00
        -11   -1    0    0    0    0  0.00000000000E+00  0.00000000000E+00  0.45593999997E+02  0.45594000000E+02  0.51100000000E-03 0.  1.
         11   -1    0    0    0    0 -0.00000000000E+00 -0.00000000000E+00 -0.45593999997E+02  0.45594000000E+02  0.51100000000E-03 0. -1.
    9900012    2    1    2    0    0 -0.34272361577E+02 -0.14630086846E+02  0.25307701715E+02  0.46142312356E+02  0.99999507148E+01 0.  0.
         12    1    1    2    0    0  0.34272361577E+02  0.14630086846E+02 -0.25307701715E+02  0.45045687644E+02  0.00000000000E+00 0. -1.
         11    1    3    3    0    0 -0.38073807219E+01 -0.43312706484E+01  0.33983368868E+01  0.66936348308E+01  0.51100000000E-03 0. -1.
        -11    1    3    3    0    0 -0.13479511149E+02 -0.62049499360E+01  0.13488551756E+02  0.20053419989E+02  0.51100000000E-03 0.  1.
        -12    1    3    3    0    0 -0.16985469706E+02 -0.40938662613E+01  0.84208130726E+01  0.19395257536E+02  0.00000000000E+00 0.  1.
</event>
<event>
 7    1  0.1541902E-008  0.4614232E+02  0.7816164E-02  0.1320468E+00
        -11   -1    0    0    0    0  0.00000000000E+00  0.00000000000E+00  0.45593999997E+02  0.45594000000E+02  0.51100000000E-03 0.  1.
         11   -1    0    0    0    0 -0.00000000000E+00 -0.00000000000E+00 -0.45593999997E+02  0.45594000000E+02  0.51100000000E-03 0. -1.
    9900012    2    1    2    0    0 -0.41300140515E+02  0.17507179063E+02  0.41122412201E+01  0.46142318152E+02  0.10000003565E+02 0.  0.
         12    1    1    2    0    0  0.41300140515E+02 -0.17507179063E+02 -0.41122412201E+01  0.45045681848E+02  0.00000000000E+00 0. -1.
         11    1    3    3    0    0 -0.13408565364E+02  0.36369657913E+01  0.17299531152E+01  0.14000352972E+02  0.51100000000E-03 0. -1.
        -11    1    3    3    0    0 -0.21482959820E+02  0.96030481787E+01 -0.13811683527E+01  0.23572096284E+02  0.51100000000E-03 0.  1.
        -12    1    3    3    0    0 -0.64086153310E+01  0.42671650935E+01  0.37634564575E+01  0.85698688965E+01  0.00000000000E+00 0.  1.
</event>
<event>
 7    1  0.1541902E-008  0.4614232E+02  0.7816164E-02  0.1320468E+00
        -11   -1    0    0    0    0  0.00000000000E+00  0.00000000000E+00  0.45593999997E+02  0.45594000000E+02  0.51100000000E-03 0.  1.
         11   -1    0    0    0    0 -0.00000000000E+00 -0.00000000000E+00 -0.45593999997E+02  0.45594000000E+02  0.51100000000E-03 0. -1.
    9900012    2    1    2    0    0 -0.80761949582E+01 -0.23700458859E+02  0.37445651524E+02  0.46142317707E+02  0.99999995092E+01 0.  0.
         12    1    1    2    0    0  0.80761949582E+01  0.23700458859E+02 -0.37445651524E+02  0.45045682293E+02  0.00000000000E+00 0. -1.
         11    1    3    3    0    0 -0.22982809251E+01 -0.57314591615E+01  0.36494836215E+01  0.71728969249E+01  0.51100000000E-03 0. -1.
        -11    1    3    3    0    0 -0.52910811497E+01 -0.17008155380E+02  0.33339638388E+02  0.37799528797E+02  0.51100000000E-03 0.  1.
        -12    1    3    3    0    0 -0.48683288344E+00 -0.96084431800E+00  0.45652951442E+00  0.11698919853E+01  0.00000000000E+00 0.  1.
</event>
<event>
 7    1  0.1541902E-008  0.4614232E+02  0.7816164E-02  0.1320468E+00
        -11   -1    0    0    0    0  0.00000000000E+00  0.00000000000E+00  0.45593999997E+02  0.45594000000E+02  0.51100000000E-03 0. -1.
         11   -1    0    0    0    0 -0.00000000000E+00 -0.00000000000E+00 -0.45593999997E+02  0.45594000000E+02  0.51100000000E-03 0.  1.
    9900012    2    1    2    0    0  0.10046354351E+02 -0.43811120132E+02  0.29614168979E+01  0.46142317931E+02  0.10000001552E+02 0.  0.
         12    1    1    2    0    0 -0.10046354351E+02  0.43811120132E+02 -0.29614168979E+01  0.45045682069E+02  0.00000000000E+00 0. -1.
         11    1    3    3    0    0  0.42310829990E+01 -0.16735287677E+02  0.25330748685E+01  0.17446729938E+02  0.51100000000E-03 0.  1.
        -11    1    3    3    0    0  0.57653984295E+01 -0.17630120915E+02  0.32627413181E+01  0.18833652426E+02  0.51100000000E-03 0. -1.
        -12    1    3    3    0    0  0.49872922405E-01 -0.94457115404E+01 -0.28343992888E+01  0.98619355676E+01  0.00000000000E+00 0.  1.
</event>
<event>
 7    1  0.1541902E-008  0.4614232E+02  0.7816164E-02  0.1320468E+00
        -11   -1    0    0    0    0  0.00000000000E+00  0.00000000000E+00  0.45593999997E+02  0.45594000000E+02  0.51100000000E-03 0.  1.
         11   -1    0    0    0    0 -0.00000000000E+00 -0.00000000000E+00 -0.45593999997E+02  0.45594000000E+02  0.51100000000E-03 0. -1.
    9900012    2    1    2    0    0  0.25920301494E+02 -0.32496711285E+02  0.17355553673E+02  0.46142317442E+02  0.99999970884E+01 0.  0.
         12    1    1    2    0    0 -0.25920301494E+02  0.32496711285E+02 -0.17355553673E+02  0.45045682558E+02  0.00000000000E+00 0. -1.
         11    1    3    3    0    0  0.58111071830E+01 -0.13428135889E+02  0.43025023642E+01  0.15251076257E+02  0.51100000000E-03 0. -1.
        -11    1    3    3    0    0  0.17965235240E+02 -0.15179858286E+02  0.10381821565E+02  0.25709142228E+02  0.51100000000E-03 0.  1.
        -12    1    3    3    0    0  0.21439590701E+01 -0.38887171091E+01  0.26712297436E+01  0.51820989562E+01  0.00000000000E+00 0.  1.
</event>
<event>
 7    1  0.1541902E-008  0.4614232E+02  0.7816164E-02  0.1320468E+00
        -11   -1    0    0    0    0  0.00000000000E+00  0.00000000000E+00  0.45593999997E+02  0.45594000000E+02  0.51100000000E-03 0.  1.
         11   -1    0    0    0    0 -0.00000000000E+00 -0.00000000000E+00 -0.45593999997E+02  0.45594000000E+02  0.51100000000E-03 0. -1.
    9900012    2    1    2    0    0  0.19705090271E+02 -0.18230324749E+02  0.36172892008E+02  0.46142318307E+02  0.10000004974E+02 0.  0.
         12    1    1    2    0    0 -0.19705090271E+02  0.18230324749E+02 -0.36172892008E+02  0.45045681693E+02  0.00000000000E+00 0. -1.
         11    1    3    3    0    0  0.12950882866E+02 -0.82994945196E+01  0.26027407918E+02  0.30232977681E+02  0.51100000000E-03 0. -1.
        -11    1    3    3    0    0  0.45686250410E+01 -0.58583860910E+01  0.48099847639E+01  0.88503658708E+01  0.51100000000E-03 0.  1.
        -12    1    3    3    0    0  0.21855823636E+01 -0.40724441385E+01  0.53354993257E+01  0.70589747545E+01  0.00000000000E+00 0.  1.
</event>
<event>
 7    1  0.1541902E-008  0.4614232E+02  0.7816164E-02  0.1320468E+00
        -11   -1    0    0    0    0  0.00000000000E+00  0.00000000000E+00  0.45593999997E+02  0.45594000000E+02  0.51100000000E-03 0. -1.
         11   -1    0    0    0    0 -0.00000000000E+00 -0.00000000000E+00 -0.45593999997E+02  0.45594000000E+02  0.51100000000E-03 0.  1.
    9900012    2    1    2    0    0 -0.43621649929E+01 -0.23141846434E+02 -0.38399735974E+02  0.46142320266E+02  0.10000022844E+02 0.  0.
         12    1    1    2    0    0  0.43621649929E+01  0.23141846434E+02  0.38399735974E+02  0.45045679734E+02  0.00000000000E+00 0. -1.
         11    1    3    3    0    0 -0.45674938828E+01 -0.16414627688E+02 -0.20771077152E+02  0.26865212614E+02  0.51100000000E-03 0. -1.
        -11    1    3    3    0    0 -0.89923501454E+00 -0.38026881309E+01 -0.13755386472E+02  0.14299640481E+02  0.51100000000E-03 0.  1.
        -12    1    3    3    0    0  0.11045639044E+01 -0.29245306159E+01 -0.38732723503E+01  0.49774671714E+01  0.00000000000E+00 0.  1.
</event>
<event>
 7    1  0.1541902E-008  0.4614232E+02  0.7816164E-02  0.1320468E+00
        -11   -1    0    0    0    0  0.00000000000E+00  0.00000000000E+00  0.45593999997E+02  0.45594000000E+02  0.51100000000E-03 0.  1.
         11   -1    0    0    0    0 -0.00000000000E+00 -0.00000000000E+00 -0.45593999997E+02  0.45594000000E+02  0.51100000000E-03 0. -1.
    9900012    2    1    2    0    0  0.12493186403E+01  0.27790628606E+02  0.35429276900E+02  0.46142317664E+02  0.99999991179E+01 0.  0.
         12    1    1    2    0    0 -0.12493186403E+01 -0.27790628606E+02 -0.35429276900E+02  0.45045682336E+02  0.00000000000E+00 0. -1.
         11    1    3    3    0    0 -0.41853122642E+00  0.16680690814E+01  0.47273604496E+01  0.50304631924E+01  0.51100000000E-03 0. -1.
        -11    1    3    3    0    0 -0.29445717660E+00  0.12811932604E+02  0.20704209879E+02  0.24349468763E+02  0.51100000000E-03 0.  1.
        -12    1    3    3    0    0  0.19623070433E+01  0.13310626921E+02  0.99977065720E+01  0.16762385709E+02  0.00000000000E+00 0.  1.
</event>
<event>
 7    1  0.1541902E-008  0.4614232E+02  0.7816164E-02  0.1320468E+00
        -11   -1    0    0    0    0  0.00000000000E+00  0.00000000000E+00  0.45593999997E+02  0.45594000000E+02  0.51100000000E-03 0.  1.
         11   -1    0    0    0    0 -0.00000000000E+00 -0.00000000000E+00 -0.45593999997E+02  0.45594000000E+02  0.51100000000E-03 0. -1.
    9900012    2    1    2    0    0  0.12319141638E+02  0.13036661978E+02  0.41320670126E+02  0.46142316679E+02  0.99999901279E+01 0.  0.
         12    1    1    2    0    0 -0.12319141638E+02 -0.13036661978E+02 -0.41320670126E+02  0.45045683321E+02  0.00000000000E+00 0. -1.
         11    1    3    3    0    0  0.32958751365E+01  0.12363311356E+01  0.31419804070E+01  0.47184053166E+01  0.51100000000E-03 0. -1.
        -11    1    3    3    0    0  0.25523910909E+01  0.82742365314E+01  0.22150260254E+02  0.23782592795E+02  0.51100000000E-03 0.  1.
         12    1    3    3    0    0  0.64708754110E+01  0.35260943113E+01  0.16028429465E+02  0.17641318567E+02  0.00000000000E+00 0. -1.
</event>
<event>
 7    1  0.1541902E-008  0.4614232E+02  0.7816164E-02  0.1320468E+00
        -11   -1    0    0    0    0  0.00000000000E+00  0.00000000000E+00  0.45593999997E+02  0.45594000000E+02  0.51100000000E-03 0.  1.
         11   -1    0    0    0    0 -0.00000000000E+00 -0.00000000000E+00 -0.45593999997E+02  0.45594000000E+02  0.51100000000E-03 0. -1.
    9900012    2    1    2    0    0  0.41319628281E+02  0.17936842573E+02 -0.26727236863E+00  0.46142318328E+02  0.10000005170E+02 0.  0.
         12    1    1    2    0    0 -0.41319628281E+02 -0.17936842573E+02  0.26727236863E+00  0.45045681672E+02  0.00000000000E+00 0. -1.
         11    1    3    3    0    0  0.13741188837E+02  0.19500212527E+01  0.15150507544E+01  0.13961311994E+02  0.51100000000E-03 0. -1.
        -11    1    3    3    0    0  0.49774666860E+01  0.31100250103E+01  0.12257182631E+01  0.59958165163E+01  0.51100000000E-03 0.  1.
         12    1    3    3    0    0  0.22600972758E+02  0.12876796310E+02 -0.30080413861E+01  0.26185189818E+02  0.00000000000E+00 0. -1.
</event>
<event>
 7    1  0.1541902E-008  0.4614232E+02  0.7816164E-02  0.1320468E+00
        -11   -1    0    0    0    0  0.00000000000E+00  0.00000000000E+00  0.45593999997E+02  0.45594000000E+02  0.51100000000E-03 0.  1.
         11   -1    0    0    0    0 -0.00000000000E+00 -0.00000000000E+00 -0.45593999997E+02  0.45594000000E+02  0.51100000000E-03 0. -1.
    9900012    2    1    2    0    0 -0.26059390243E+02 -0.11168811495E+02  0.35003989866E+02  0.46142317892E+02  0.10000001190E+02 0.  0.
         12    1    1    2    0    0  0.26059390243E+02  0.11168811495E+02 -0.35003989866E+02  0.45045682108E+02  0.00000000000E+00 0. -1.
         11    1    3    3    0    0 -0.13020007527E+02 -0.75840333609E+01  0.15419590571E+02  0.21559265564E+02  0.51100000000E-03 0. -1.
        -11    1    3    3    0    0 -0.11468338134E+02 -0.50138753230E+01  0.18041028531E+02  0.21957696510E+02  0.51100000000E-03 0.  1.
         12    1    3    3    0    0 -0.15710445827E+01  0.14290971887E+01  0.15433707648E+01  0.26253558184E+01  0.00000000000E+00 0. -1.
</event>
<event>
 7    1  0.1541902E-008  0.4614232E+02  0.7816164E-02  0.1320468E+00
        -11   -1    0    0    0    0  0.00000000000E+00  0.00000000000E+00  0.45593999997E+02  0.45594000000E+02  0.51100000000E-03 0.  1.
         11   -1    0    0    0    0 -0.00000000000E+00 -0.00000000000E+00 -0.45593999997E+02  0.45594000000E+02  0.51100000000E-03 0. -1.
    9900012    2    1    2    0    0  0.11717070530E+02  0.19523875413E+02  0.38866979006E+02  0.46142317521E+02  0.99999978061E+01 0.  0.
         12    1    1    2    0    0 -0.11717070530E+02 -0.19523875413E+02 -0.38866979006E+02  0.45045682479E+02  0.00000000000E+00 0. -1.
         11    1    3    3    0    0  0.14837978154E+00  0.29367130738E+01  0.56471117423E+01  0.63668023001E+01  0.51100000000E-03 0. -1.
        -11    1    3    3    0    0  0.40002874209E+01  0.70300536075E+01  0.21046846957E+02  0.22547587903E+02  0.51100000000E-03 0.  1.
        -12    1    3    3    0    0  0.75684033273E+01  0.95571087320E+01  0.12173020307E+02  0.17227927317E+02  0.00000000000E+00 0.  1.
</event>
<event>
 7    1  0.1541902E-008  0.4614233E+02  0.7816164E-02  0.1320468E+00
        -11   -1    0    0    0    0  0.00000000000E+00  0.00000000000E+00  0.45593999997E+02  0.45594000000E+02  0.51100000000E-03 0.  1.
         11   -1    0    0    0    0 -0.00000000000E+00 -0.00000000000E+00 -0.45593999997E+02  0.45594000000E+02  0.51100000000E-03 0. -1.
    9900012    2    1    2    0    0 -0.19009802144E+02 -0.13595404059E+02  0.38508507574E+02  0.46142326016E+02  0.10000075276E+02 0.  0.
         12    1    1    2    0    0  0.19009802144E+02  0.13595404059E+02 -0.38508507574E+02  0.45045673984E+02  0.00000000000E+00 0. -1.
         11    1    3    3    0    0 -0.17785149205E+02 -0.93690421591E+01  0.29188861615E+02  0.35441220717E+02  0.51100000000E-03 0. -1.
        -11    1    3    3    0    0 -0.25259524751E+00 -0.21124536229E+01  0.73530024447E+01  0.76546005696E+01  0.51100000000E-03 0.  1.
         12    1    3    3    0    0 -0.97205769078E+00 -0.21139082769E+01  0.19666435144E+01  0.30465047300E+01  0.00000000000E+00 0. -1.
</event>
<event>
 7    1  0.1541902E-008  0.4614232E+02  0.7816164E-02  0.1320468E+00
        -11   -1    0    0    0    0  0.00000000000E+00  0.00000000000E+00  0.45593999997E+02  0.45594000000E+02  0.51100000000E-03 0.  1.
         11   -1    0    0    0    0 -0.00000000000E+00 -0.00000000000E+00 -0.45593999997E+02  0.45594000000E+02  0.51100000000E-03 0. -1.
    9900012    2    1    2    0    0  0.20176095532E+02  0.14576019161E+02  0.37544353441E+02  0.46142316069E+02  0.99999845709E+01 0.  0.
         12    1    1    2    0    0 -0.20176095532E+02 -0.14576019161E+02 -0.37544353441E+02  0.45045683931E+02  0.00000000000E+00 0. -1.
         11    1    3    3    0    0  0.85719595203E+01  0.48751795663E+01  0.13013899496E+02  0.16328118268E+02  0.51100000000E-03 0. -1.
        -11    1    3    3    0    0  0.31654688095E+01  0.70447188068E+01  0.14582945377E+02  0.16501834807E+02  0.51100000000E-03 0.  1.
        -12    1    3    3    0    0  0.84386672019E+01  0.26561207880E+01  0.99475085675E+01  0.13312362994E+02  0.00000000000E+00 0.  1.
</event>
<event>
 7    1  0.1541902E-008  0.4614232E+02  0.7816164E-02  0.1320468E+00
        -11   -1    0    0    0    0  0.00000000000E+00  0.00000000000E+00  0.45593999997E+02  0.45594000000E+02  0.51100000000E-03 0.  1.
         11   -1    0    0    0    0 -0.00000000000E+00 -0.00000000000E+00 -0.45593999997E+02  0.45594000000E+02  0.51100000000E-03 0. -1.
    9900012    2    1    2    0    0  0.11031859513E+02  0.32787128130E+02  0.28851616219E+02  0.46142318145E+02  0.10000003497E+02 0.  0.
         12    1    1    2    0    0 -0.11031859513E+02 -0.32787128130E+02 -0.28851616219E+02  0.45045681855E+02  0.00000000000E+00 0. -1.
         11    1    3    3    0    0  0.70165828689E+01  0.13231616232E+02  0.96133015925E+01  0.17796732032E+02  0.51100000000E-03 0. -1.
        -11    1    3    3    0    0  0.15987318636E+01  0.17684486882E+02  0.16202372835E+02  0.24037759995E+02  0.51100000000E-03 0.  1.
         12    1    3    3    0    0  0.24165447807E+01  0.18710250165E+01  0.30359417921E+01  0.43078261170E+01  0.00000000000E+00 0. -1.
</event>
<event>
 7    1  0.1541902E-008  0.4614232E+02  0.7816164E-02  0.1320468E+00
        -11   -1    0    0    0    0  0.00000000000E+00  0.00000000000E+00  0.45593999997E+02  0.45594000000E+02  0.51100000000E-03 0.  1.
         11   -1    0    0    0    0 -0.00000000000E+00 -0.00000000000E+00 -0.45593999997E+02  0.45594000000E+02  0.51100000000E-03 0. -1.
    9900012    2    1    2    0    0  0.54173290190E+01 -0.17608881391E+02  0.41105879628E+02  0.46142317659E+02  0.99999990707E+01 0.  0.
         12    1    1    2    0    0 -0.54173290190E+01  0.17608881391E+02 -0.41105879628E+02  0.45045682341E+02  0.00000000000E+00 0. -1.
         11    1    3    3    0    0  0.51656754393E+01 -0.39272681896E+01  0.19170042632E+02  0.20238531888E+02  0.51100000000E-03 0. -1.
        -11    1    3    3    0    0  0.55071865078E+00 -0.93126382579E+01  0.13674890046E+02  0.16553885960E+02  0.51100000000E-03 0.  1.
         12    1    3    3    0    0 -0.29906507113E+00 -0.43689749436E+01  0.82609469498E+01  0.93498998113E+01  0.00000000000E+00 0. -1.
</event>
<event>
 7    1  0.1541902E-008  0.4614232E+02  0.7816164E-02  0.1320468E+00
        -11   -1    0    0    0    0  0.00000000000E+00  0.00000000000E+00  0.45593999997E+02  0.45594000000E+02  0.51100000000E-03 0.  1.
         11   -1    0    0    0    0 -0.00000000000E+00 -0.00000000000E+00 -0.45593999997E+02  0.45594000000E+02  0.51100000000E-03 0. -1.
    9900012    2    1    2    0    0 -0.20504314115E+02 -0.85637234025E+01  0.39183532593E+02  0.46142317828E+02  0.10000000612E+02 0.  0.
         12    1    1    2    0    0  0.20504314115E+02  0.85637234025E+01 -0.39183532593E+02  0.45045682172E+02  0.00000000000E+00 0. -1.
         11    1    3    3    0    0 -0.55271163398E+01 -0.86784355060E+00  0.40342620049E+01  0.68976400056E+01  0.51100000000E-03 0. -1.
        -11    1    3    3    0    0 -0.29030773272E+01 -0.37599889491E+01  0.99982055667E+01  0.11069303938E+02  0.51100000000E-03 0.  1.
         12    1    3    3    0    0 -0.12074120448E+02 -0.39358909028E+01  0.25151065021E+02  0.28175373884E+02  0.00000000000E+00 0. -1.
</event>
<event>
 7    1  0.1541902E-008  0.4614232E+02  0.7816164E-02  0.1320468E+00
        -11   -1    0    0    0    0  0.00000000000E+00  0.00000000000E+00  0.45593999997E+02  0.45594000000E+02  0.51100000000E-03 0.  1.
         11   -1    0    0    0    0 -0.00000000000E+00 -0.00000000000E+00 -0.45593999997E+02  0.45594000000E+02  0.51100000000E-03 0. -1.
    9900012    2    1    2    0    0 -0.25941816022E+02 -0.34080835179E+02  0.13951073585E+02  0.46142316531E+02  0.99999887851E+01 0.  0.
         12    1    1    2    0    0  0.25941816022E+02  0.34080835179E+02 -0.13951073585E+02  0.45045683469E+02  0.00000000000E+00 0. -1.
         11    1    3    3    0    0 -0.14711083242E+01 -0.15457157248E+01  0.33723904744E+01  0.39907912219E+01  0.51100000000E-03 0. -1.
        -11    1    3    3    0    0 -0.17272039259E+02 -0.23384921425E+02  0.62924877550E+01  0.29745138975E+02  0.51100000000E-03 0.  1.
        -12    1    3    3    0    0 -0.71986684388E+01 -0.91501980289E+01  0.42861953554E+01  0.12406386335E+02  0.00000000000E+00 0.  1.
</event>
<event>
 7    1  0.1541902E-008  0.4614232E+02  0.7816164E-02  0.1320468E+00
        -11   -1    0    0    0    0  0.00000000000E+00  0.00000000000E+00  0.45593999997E+02  0.45594000000E+02  0.51100000000E-03 0.  1.
         11   -1    0    0    0    0 -0.00000000000E+00 -0.00000000000E+00 -0.45593999997E+02  0.45594000000E+02  0.51100000000E-03 0. -1.
    9900012    2    1    2    0    0  0.29632804580E+02 -0.14539723899E+02  0.30653008002E+02  0.46142316767E+02  0.99999909358E+01 0.  0.
         12    1    1    2    0    0 -0.29632804580E+02  0.14539723899E+02 -0.30653008002E+02  0.45045683233E+02  0.00000000000E+00 0. -1.
         11    1    3    3    0    0  0.58214790778E+00  0.40149883260E+00  0.26585972773E+01  0.27510429373E+01  0.51100000000E-03 0. -1.
        -11    1    3    3    0    0  0.22940289733E+02 -0.11506161829E+02  0.24797219127E+02  0.35686842530E+02  0.51100000000E-03 0.  1.
        -12    1    3    3    0    0  0.61103669399E+01 -0.34350609020E+01  0.31971915975E+01  0.77044312997E+01  0.00000000000E+00 0.  1.
</event>
<event>
 7    1  0.1541902E-008  0.4614232E+02  0.7816164E-02  0.1320468E+00
        -11   -1    0    0    0    0  0.00000000000E+00  0.00000000000E+00  0.45593999997E+02  0.45594000000E+02  0.51100000000E-03 0.  1.
         11   -1    0    0    0    0 -0.00000000000E+00 -0.00000000000E+00 -0.45593999997E+02  0.45594000000E+02  0.51100000000E-03 0. -1.
    9900012    2    1    2    0    0  0.22025324086E+02 -0.39131528582E+02  0.35668107246E+01  0.46142316866E+02  0.99999918400E+01 0.  0.
         12    1    1    2    0    0 -0.22025324086E+02  0.39131528582E+02 -0.35668107246E+01  0.45045683134E+02  0.00000000000E+00 0. -1.
         11    1    3    3    0    0  0.21307095050E+02 -0.31121373862E+02  0.45698327258E+01  0.37992309510E+02  0.51100000000E-03 0. -1.
        -11    1    3    3    0    0  0.77225987075E+00 -0.53149306155E+01 -0.94743263757E+00  0.54536686386E+01  0.51100000000E-03 0.  1.
         12    1    3    3    0    0 -0.54030834133E-01 -0.26952241039E+01 -0.55589363640E-01  0.26963387173E+01  0.00000000000E+00 0. -1.
</event>
<event>
 7    1  0.1541902E-008  0.4614232E+02  0.7816164E-02  0.1320468E+00
        -11   -1    0    0    0    0  0.00000000000E+00  0.00000000000E+00  0.45593999997E+02  0.45594000000E+02  0.51100000000E-03 0.  1.
         11   -1    0    0    0    0 -0.00000000000E+00 -0.00000000000E+00 -0.45593999997E+02  0.45594000000E+02  0.51100000000E-03 0. -1.
    9900012    2    1    2    0    0 -0.40220661594E+01  0.34511799115E+02  0.28668313651E+02  0.46142317611E+02  0.99999986270E+01 0.  0.
         12    1    1    2    0    0  0.40220661594E+01 -0.34511799115E+02 -0.28668313651E+02  0.45045682389E+02  0.00000000000E+00 0. -1.
         11    1    3    3    0    0  0.48925218999E+00  0.17862225103E+02  0.13758816528E+02  0.22552239043E+02  0.51100000000E-03 0. -1.
        -11    1    3    3    0    0 -0.40819263749E+01  0.15767528775E+02  0.11233835721E+02  0.19785756288E+02  0.51100000000E-03 0.  1.
         12    1    3    3    0    0 -0.42939197452E+00  0.88204523657E+00  0.36756614020E+01  0.38043222799E+01  0.00000000000E+00 0. -1.
</event>
<event>
 7    1  0.1541902E-008  0.4614231E+02  0.7816164E-02  0.1320468E+00
        -11   -1    0    0    0    0  0.00000000000E+00  0.00000000000E+00  0.45593999997E+02  0.45594000000E+02  0.51100000000E-03 0.  1.
         11   -1    0    0    0    0 -0.00000000000E+00 -0.00000000000E+00 -0.45593999997E+02  0.45594000000E+02  0.51100000000E-03 0. -1.
    9900012    2    1    2    0    0  0.40617320363E+02 -0.72684177291E+01  0.18069807033E+02  0.46142306133E+02  0.99998939666E+01 0.  0.
         12    1    1    2    0    0 -0.40617320363E+02  0.72684177291E+01 -0.18069807033E+02  0.45045693867E+02  0.00000000000E+00 0. -1.
         11    1    3    3    0    0  0.29976174971E+02 -0.52729123371E+01  0.92142752379E+01  0.31800590227E+02  0.51100000000E-03 0. -1.
        -11    1    3    3    0    0  0.88753630188E+01 -0.42929585005E+00  0.74421532054E+01  0.11590599995E+02  0.51100000000E-03 0.  1.
         12    1    3    3    0    0  0.17657823734E+01 -0.15662095420E+01  0.14133785896E+01  0.27511159112E+01  0.00000000000E+00 0. -1.
</event>
<event>
 7    1  0.1541902E-008  0.4614232E+02  0.7816164E-02  0.1320468E+00
        -11   -1    0    0    0    0  0.00000000000E+00  0.00000000000E+00  0.45593999997E+02  0.45594000000E+02  0.51100000000E-03 0.  1.
         11   -1    0    0    0    0 -0.00000000000E+00 -0.00000000000E+00 -0.45593999997E+02  0.45594000000E+02  0.51100000000E-03 0. -1.
    9900012    2    1    2    0    0 -0.25172104318E+02  0.30043139463E+02  0.22201092584E+02  0.46142316783E+02  0.99999910768E+01 0.  0.
         12    1    1    2    0    0  0.25172104318E+02 -0.30043139463E+02 -0.22201092584E+02  0.45045683217E+02  0.00000000000E+00 0. -1.
         11    1    3    3    0    0 -0.39008812952E+00  0.64357167828E-01  0.67006956893E-01  0.40099973471E+00  0.51100000000E-03 0. -1.
        -11    1    3    3    0    0 -0.74276913543E+01  0.11849545792E+02  0.12820297957E+02  0.18972147329E+02  0.51100000000E-03 0.  1.
        -12    1    3    3    0    0 -0.17354324834E+02  0.18129236504E+02  0.93137876707E+01  0.26769169719E+02  0.00000000000E+00 0.  1.
</event>
<event>
 7    1  0.1541902E-008  0.4614232E+02  0.7816164E-02  0.1320468E+00
        -11   -1    0    0    0    0  0.00000000000E+00  0.00000000000E+00  0.45593999997E+02  0.45594000000E+02  0.51100000000E-03 0. -1.
         11   -1    0    0    0    0 -0.00000000000E+00 -0.00000000000E+00 -0.45593999997E+02  0.45594000000E+02  0.51100000000E-03 0.  1.
    9900012    2    1    2    0    0 -0.25285762191E+02 -0.27254804283E+02 -0.25434607744E+02  0.46142318773E+02  0.10000009229E+02 0.  0.
         12    1    1    2    0    0  0.25285762191E+02  0.27254804283E+02  0.25434607744E+02  0.45045681227E+02  0.00000000000E+00 0. -1.
         11    1    3    3    0    0 -0.15252398804E+02 -0.16771223255E+02 -0.11593008154E+02  0.25461882041E+02  0.51100000000E-03 0.  1.
        -11    1    3    3    0    0 -0.20457454145E+01 -0.11646580150E+01 -0.50842813616E+01  0.56028046385E+01  0.51100000000E-03 0. -1.
        -12    1    3    3    0    0 -0.79876179730E+01 -0.93189230126E+01 -0.87573182292E+01  0.15077632094E+02  0.00000000000E+00 0.  1.
</event>
<event>
 7    1  0.1541902E-008  0.4614232E+02  0.7816164E-02  0.1320468E+00
        -11   -1    0    0    0    0  0.00000000000E+00  0.00000000000E+00  0.45593999997E+02  0.45594000000E+02  0.51100000000E-03 0.  1.
         11   -1    0    0    0    0 -0.00000000000E+00 -0.00000000000E+00 -0.45593999997E+02  0.45594000000E+02  0.51100000000E-03 0. -1.
    9900012    2    1    2    0    0  0.35481615753E+02  0.12582829429E+02  0.24735416182E+02  0.46142318003E+02  0.10000002206E+02 0.  0.
         12    1    1    2    0    0 -0.35481615753E+02 -0.12582829429E+02 -0.24735416182E+02  0.45045681997E+02  0.00000000000E+00 0. -1.
         11    1    3    3    0    0  0.42032165629E+01  0.18662703611E+01  0.68933770574E+01  0.82866544547E+01  0.51100000000E-03 0. -1.
        -11    1    3    3    0    0  0.11273953506E+02  0.52363271266E+01  0.46369262113E+01  0.13267337125E+02  0.51100000000E-03 0.  1.
        -12    1    3    3    0    0  0.20004445684E+02  0.54802319410E+01  0.13205112914E+02  0.24588326423E+02  0.00000000000E+00 0.  1.
</event>
<event>
 7    1  0.1541902E-008  0.4614232E+02  0.7816164E-02  0.1320468E+00
        -11   -1    0    0    0    0  0.00000000000E+00  0.00000000000E+00  0.45593999997E+02  0.45594000000E+02  0.51100000000E-03 0. -1.
         11   -1    0    0    0    0 -0.00000000000E+00 -0.00000000000E+00 -0.45593999997E+02  0.45594000000E+02  0.51100000000E-03 0.  1.
    9900012    2    1    2    0    0  0.40442617787E+02  0.19234784355E+02 -0.48509030275E+01  0.46142317379E+02  0.99999965162E+01 0.  0.
         12    1    1    2    0    0 -0.40442617787E+02 -0.19234784355E+02  0.48509030275E+01  0.45045682621E+02  0.00000000000E+00 0. -1.
         11    1    3    3    0    0  0.33991806796E+01  0.12897251650E+00  0.10828242703E+01  0.35698139817E+01  0.51100000000E-03 0. -1.
        -11    1    3    3    0    0  0.15307523703E+02  0.11132284383E+02 -0.13884737596E+01  0.18978300691E+02  0.51100000000E-03 0.  1.
        -12    1    3    3    0    0  0.21735913404E+02  0.79735274550E+01 -0.45452535382E+01  0.23594202706E+02  0.00000000000E+00 0.  1.
</event>
<event>
 7    1  0.1541902E-008  0.4614232E+02  0.7816164E-02  0.1320468E+00
        -11   -1    0    0    0    0  0.00000000000E+00  0.00000000000E+00  0.45593999997E+02  0.45594000000E+02  0.51100000000E-03 0. -1.
         11   -1    0    0    0    0 -0.00000000000E+00 -0.00000000000E+00 -0.45593999997E+02  0.45594000000E+02  0.51100000000E-03 0.  1.
    9900012    2    1    2    0    0 -0.43565961849E+02  0.10316394923E+01 -0.11404219352E+02  0.46142317289E+02  0.99999956943E+01 0.  0.
         12    1    1    2    0    0  0.43565961849E+02 -0.10316394923E+01  0.11404219352E+02  0.45045682711E+02  0.00000000000E+00 0. -1.
         11    1    3    3    0    0 -0.46323169106E+01 -0.16883682003E+01 -0.38098204060E+01  0.62308650224E+01  0.51100000000E-03 0. -1.
        -11    1    3    3    0    0 -0.18922023561E+02  0.81018487806E+00 -0.53716603500E+01  0.19686394041E+02  0.51100000000E-03 0.  1.
         12    1    3    3    0    0 -0.20011621378E+02  0.19098228146E+01 -0.22227385956E+01  0.20225058225E+02  0.00000000000E+00 0. -1.
</event>
<event>
 7    1  0.1541902E-008  0.4614232E+02  0.7816164E-02  0.1320468E+00
        -11   -1    0    0    0    0  0.00000000000E+00  0.00000000000E+00  0.45593999997E+02  0.45594000000E+02  0.51100000000E-03 0.  1.
         11   -1    0    0    0    0 -0.00000000000E+00 -0.00000000000E+00 -0.45593999997E+02  0.45594000000E+02  0.51100000000E-03 0. -1.
    9900012    2    1    2    0    0  0.23269670287E+02 -0.33852230074E+02  0.18484110699E+02  0.46142318913E+02  0.10000010508E+02 0.  0.
         12    1    1    2    0    0 -0.23269670287E+02  0.33852230074E+02 -0.18484110699E+02  0.45045681087E+02  0.00000000000E+00 0. -1.
         11    1    3    3    0    0  0.54513416346E+01 -0.63146632657E+01  0.78962803714E+01  0.11486659294E+02  0.51100000000E-03 0. -1.
        -11    1    3    3    0    0  0.13962181632E+02 -0.21313613274E+02  0.66096758149E+01  0.26323002135E+02  0.51100000000E-03 0.  1.
        -12    1    3    3    0    0  0.38561470197E+01 -0.62239535339E+01  0.39781545126E+01  0.83326574846E+01  0.00000000000E+00 0.  1.
</event>
<event>
 7    1  0.1541902E-008  0.4614232E+02  0.7816164E-02  0.1320468E+00
        -11   -1    0    0    0    0  0.00000000000E+00  0.00000000000E+00  0.45593999997E+02  0.45594000000E+02  0.51100000000E-03 0.  1.
         11   -1    0    0    0    0 -0.00000000000E+00 -0.00000000000E+00 -0.45593999997E+02  0.45594000000E+02  0.51100000000E-03 0. -1.
    9900012    2    1    2    0    0 -0.20236826004E+02  0.17344706623E+02  0.36314535146E+02  0.46142318326E+02  0.10000005154E+02 0.  0.
         12    1    1    2    0    0  0.20236826004E+02 -0.17344706623E+02 -0.36314535146E+02  0.45045681674E+02  0.00000000000E+00 0. -1.
         11    1    3    3    0    0 -0.90076084036E+01  0.85831579675E+01  0.20594573229E+02  0.24061256338E+02  0.51100000000E-03 0.  1.
        -11    1    3    3    0    0 -0.91257001997E+01  0.69813673437E+01  0.15530649873E+02  0.19318876258E+02  0.51100000000E-03 0. -1.
         12    1    3    3    0    0 -0.21035174007E+01  0.17801813116E+01  0.18931204438E+00  0.27621857300E+01  0.00000000000E+00 0. -1.
</event>
<event>
 7    1  0.1541902E-008  0.4614232E+02  0.7816164E-02  0.1320468E+00
        -11   -1    0    0    0    0  0.00000000000E+00  0.00000000000E+00  0.45593999997E+02  0.45594000000E+02  0.51100000000E-03 0. -1.
         11   -1    0    0    0    0 -0.00000000000E+00 -0.00000000000E+00 -0.45593999997E+02  0.45594000000E+02  0.51100000000E-03 0.  1.
    9900012    2    1    2    0    0  0.25828511585E+02 -0.18690554296E+02 -0.31822389943E+02  0.46142319494E+02  0.10000015801E+02 0.  0.
         12    1    1    2    0    0 -0.25828511585E+02  0.18690554296E+02  0.31822389943E+02  0.45045680506E+02  0.00000000000E+00 0. -1.
         11    1    3    3    0    0  0.19035403573E+02 -0.16952381939E+02 -0.22871634037E+02  0.34246773372E+02  0.51100000000E-03 0. -1.
        -11    1    3    3    0    0  0.15117271194E+01 -0.81918295138E+00 -0.48512921255E+01  0.51469811676E+01  0.51100000000E-03 0.  1.
        -12    1    3    3    0    0  0.52813808919E+01 -0.91898940504E+00 -0.40994637812E+01  0.67485649545E+01  0.00000000000E+00 0.  1.
</event>
<event>
 7    1  0.1541902E-008  0.4614232E+02  0.7816164E-02  0.1320468E+00
        -11   -1    0    0    0    0  0.00000000000E+00  0.00000000000E+00  0.45593999997E+02  0.45594000000E+02  0.51100000000E-03 0.  1.
         11   -1    0    0    0    0 -0.00000000000E+00 -0.00000000000E+00 -0.45593999997E+02  0.45594000000E+02  0.51100000000E-03 0. -1.
    9900012    2    1    2    0    0 -0.15275877374E+02  0.99079889117E+01  0.41201853812E+02  0.46142318393E+02  0.10000005766E+02 0.  0.
         12    1    1    2    0    0  0.15275877374E+02 -0.99079889117E+01 -0.41201853812E+02  0.45045681607E+02  0.00000000000E+00 0. -1.
         11    1    3    3    0    0 -0.32136844663E+01 -0.16695434053E+01  0.92704277207E+01  0.99526867437E+01  0.51100000000E-03 0. -1.
        -11    1    3    3    0    0 -0.65635765474E+00  0.12455956072E+01  0.47456153764E+01  0.49500686207E+01  0.51100000000E-03 0.  1.
         12    1    3    3    0    0 -0.11405835253E+02  0.10331936710E+02  0.27185810715E+02  0.31239563029E+02  0.00000000000E+00 0. -1.
</event>
<event>
 7    1  0.1541902E-008  0.4614232E+02  0.7816164E-02  0.1320468E+00
        -11   -1    0    0    0    0  0.00000000000E+00  0.00000000000E+00  0.45593999997E+02  0.45594000000E+02  0.51100000000E-03 0.  1.
         11   -1    0    0    0    0 -0.00000000000E+00 -0.00000000000E+00 -0.45593999997E+02  0.45594000000E+02  0.51100000000E-03 0. -1.
    9900012    2    1    2    0    0  0.26451744703E+02 -0.33393113955E+02  0.14639628478E+02  0.46142316750E+02  0.99999907800E+01 0.  0.
         12    1    1    2    0    0 -0.26451744703E+02  0.33393113955E+02 -0.14639628478E+02  0.45045683250E+02  0.00000000000E+00 0. -1.
         11    1    3    3    0    0  0.63716919410E+00 -0.35080700052E+01 -0.77825644749E+00  0.36494140766E+01  0.51100000000E-03 0. -1.
        -11    1    3    3    0    0  0.18021257631E+02 -0.19378847220E+02  0.11342588870E+02  0.28791661444E+02  0.51100000000E-03 0.  1.
        -12    1    3    3    0    0  0.77933178781E+01 -0.10506196731E+02  0.40752960561E+01  0.13701241230E+02  0.00000000000E+00 0.  1.
</event>
<event>
 7    1  0.1541902E-008  0.4614232E+02  0.7816164E-02  0.1320468E+00
        -11   -1    0    0    0    0  0.00000000000E+00  0.00000000000E+00  0.45593999997E+02  0.45594000000E+02  0.51100000000E-03 0.  1.
         11   -1    0    0    0    0 -0.00000000000E+00 -0.00000000000E+00 -0.45593999997E+02  0.45594000000E+02  0.51100000000E-03 0. -1.
    9900012    2    1    2    0    0  0.16980680569E+02  0.34746892129E+02  0.23095961037E+02  0.46142318282E+02  0.10000004746E+02 0.  0.
         12    1    1    2    0    0 -0.16980680569E+02 -0.34746892129E+02 -0.23095961037E+02  0.45045681718E+02  0.00000000000E+00 0. -1.
         11    1    3    3    0    0  0.36166013501E+01  0.12743137399E+02  0.82026288394E+01  0.15580451734E+02  0.51100000000E-03 0. -1.
        -11    1    3    3    0    0  0.47179068138E+01  0.14447888784E+02  0.81569343400E+01  0.17249223551E+02  0.51100000000E-03 0.  1.
        -12    1    3    3    0    0  0.86461724053E+01  0.75558659468E+01  0.67363978578E+01  0.13312642997E+02  0.00000000000E+00 0.  1.
</event>
<event>
 7    1  0.1541902E-008  0.4614232E+02  0.7816164E-02  0.1320468E+00
        -11   -1    0    0    0    0  0.00000000000E+00  0.00000000000E+00  0.45593999997E+02  0.45594000000E+02  0.51100000000E-03 0.  1.
         11   -1    0    0    0    0 -0.00000000000E+00 -0.00000000000E+00 -0.45593999997E+02  0.45594000000E+02  0.51100000000E-03 0. -1.
    9900012    2    1    2    0    0  0.21897588294E+02 -0.28143943218E+02  0.27523218949E+02  0.46142317696E+02  0.99999994045E+01 0.  0.
         12    1    1    2    0    0 -0.21897588294E+02  0.28143943218E+02 -0.27523218949E+02  0.45045682304E+02  0.00000000000E+00 0. -1.
         11    1    3    3    0    0  0.20093861554E+02 -0.24292549186E+02  0.26587560841E+02  0.41240630570E+02  0.51100000000E-03 0.  1.
        -11    1    3    3    0    0  0.82565945203E+00 -0.17718620475E+01 -0.70503412611E+00  0.20780476477E+01  0.51100000000E-03 0. -1.
        -12    1    3    3    0    0  0.97806728804E+00 -0.20795319842E+01  0.16406922339E+01  0.28236394776E+01  0.00000000000E+00 0.  1.
</event>
<event>
 7    1  0.1541902E-008  0.4614232E+02  0.7816164E-02  0.1320468E+00
        -11   -1    0    0    0    0  0.00000000000E+00  0.00000000000E+00  0.45593999997E+02  0.45594000000E+02  0.51100000000E-03 0.  1.
         11   -1    0    0    0    0 -0.00000000000E+00 -0.00000000000E+00 -0.45593999997E+02  0.45594000000E+02  0.51100000000E-03 0. -1.
    9900012    2    1    2    0    0  0.10548221627E+02  0.32236851678E+02  0.29641759788E+02  0.46142317533E+02  0.99999979231E+01 0.  0.
         12    1    1    2    0    0 -0.10548221627E+02 -0.32236851678E+02 -0.29641759788E+02  0.45045682467E+02  0.00000000000E+00 0. -1.
         11    1    3    3    0    0  0.25359369278E+01  0.16432947092E+01  0.32548717561E+01  0.44413493460E+01  0.51100000000E-03 0. -1.
        -11    1    3    3    0    0  0.91519446456E+01  0.26638147316E+02  0.23329753365E+02  0.36573574827E+02  0.51100000000E-03 0.  1.
         12    1    3    3    0    0 -0.11396599466E+01  0.39554096520E+01  0.30571346663E+01  0.51273933608E+01  0.00000000000E+00 0. -1.
</event>
<event>
 7    1  0.1541902E-008  0.4614232E+02  0.7816164E-02  0.1320468E+00
        -11   -1    0    0    0    0  0.00000000000E+00  0.00000000000E+00  0.45593999997E+02  0.45594000000E+02  0.51100000000E-03 0.  1.
         11   -1    0    0    0    0 -0.00000000000E+00 -0.00000000000E+00 -0.45593999997E+02  0.45594000000E+02  0.51100000000E-03 0. -1.
    9900012    2    1    2    0    0  0.17410300613E+01 -0.22117960537E+01  0.44957651084E+02  0.46142316317E+02  0.99999868345E+01 0.  0.
         12    1    1    2    0    0 -0.17410300613E+01  0.22117960537E+01 -0.44957651084E+02  0.45045683683E+02  0.00000000000E+00 0. -1.
         11    1    3    3    0    0  0.21545893173E+01  0.91805327637E+00  0.38377954629E+02  0.38449349523E+02  0.51100000000E-03 0. -1.
        -11    1    3    3    0    0  0.70422687084E+00 -0.23149446734E+00  0.22144678956E+01  0.23352501998E+01  0.51100000000E-03 0.  1.
         12    1    3    3    0    0 -0.11177861269E+01 -0.28983548627E+01  0.43652285589E+01  0.53577165945E+01  0.00000000000E+00 0. -1.
</event>
<event>
 7    1  0.1541902E-008  0.4614232E+02  0.7816164E-02  0.1320468E+00
        -11   -1    0    0    0    0  0.00000000000E+00  0.00000000000E+00  0.45593999997E+02  0.45594000000E+02  0.51100000000E-03 0. -1.
         11   -1    0    0    0    0 -0.00000000000E+00 -0.00000000000E+00 -0.45593999997E+02  0.45594000000E+02  0.51100000000E-03 0.  1.
    9900012    2    1    2    0    0  0.21047651667E+02 -0.39816989301E+02  0.84695569497E+00  0.46142316393E+02  0.99999875219E+01 0.  0.
         12    1    1    2    0    0 -0.21047651667E+02  0.39816989301E+02 -0.84695569497E+00  0.45045683607E+02  0.00000000000E+00 0. -1.
         11    1    3    3    0    0  0.35547670612E+01 -0.10865801535E+02 -0.21868481467E+01  0.11639773062E+02  0.51100000000E-03 0. -1.
        -11    1    3    3    0    0  0.17476032642E+02 -0.27428080080E+02  0.38914950242E+01  0.32754465765E+02  0.51100000000E-03 0.  1.
        -12    1    3    3    0    0  0.16851964784E-01 -0.15231076862E+01 -0.85769118258E+00  0.17480775661E+01  0.00000000000E+00 0.  1.
</event>
<event>
 7    1  0.1541902E-008  0.4614232E+02  0.7816164E-02  0.1320468E+00
        -11   -1    0    0    0    0  0.00000000000E+00  0.00000000000E+00  0.45593999997E+02  0.45594000000E+02  0.51100000000E-03 0.  1.
         11   -1    0    0    0    0 -0.00000000000E+00 -0.00000000000E+00 -0.45593999997E+02  0.45594000000E+02  0.51100000000E-03 0. -1.
    9900012    2    1    2    0    0 -0.23160178649E+02 -0.36314686819E+02  0.13189508441E+02  0.46142317780E+02  0.10000000169E+02 0.  0.
         12    1    1    2    0    0  0.23160178649E+02  0.36314686819E+02 -0.13189508441E+02  0.45045682220E+02  0.00000000000E+00 0. -1.
         11    1    3    3    0    0 -0.30528574241E+01 -0.60616686098E+01 -0.40476949594E+00  0.67990884237E+01  0.51100000000E-03 0. -1.
        -11    1    3    3    0    0 -0.56688041829E+01 -0.12994414076E+02  0.30878518744E+01  0.14509478540E+02  0.51100000000E-03 0.  1.
         12    1    3    3    0    0 -0.14438517042E+02 -0.17258604132E+02  0.10506426062E+02  0.24833750816E+02  0.00000000000E+00 0. -1.
</event>
<event>
 7    1  0.1541902E-008  0.4614232E+02  0.7816164E-02  0.1320468E+00
        -11   -1    0    0    0    0  0.00000000000E+00  0.00000000000E+00  0.45593999997E+02  0.45594000000E+02  0.51100000000E-03 0. -1.
         11   -1    0    0    0    0 -0.00000000000E+00 -0.00000000000E+00 -0.45593999997E+02  0.45594000000E+02  0.51100000000E-03 0.  1.
    9900012    2    1    2    0    0  0.11429102138E+02  0.48892618407E+01 -0.43296467497E+02  0.46142319244E+02  0.10000013524E+02 0.  0.
         12    1    1    2    0    0 -0.11429102138E+02 -0.48892618407E+01  0.43296467497E+02  0.45045680756E+02  0.00000000000E+00 0. -1.
         11    1    3    3    0    0 -0.39620571036E+00 -0.14861699573E+01 -0.49375879257E+01  0.51716008056E+01  0.51100000000E-03 0. -1.
        -11    1    3    3    0    0  0.61312784343E+01  0.41963577756E+01 -0.27823593002E+02  0.28798512490E+02  0.51100000000E-03 0.  1.
         12    1    3    3    0    0  0.56940294141E+01  0.21790740224E+01 -0.10535286569E+02  0.12172205949E+02  0.00000000000E+00 0. -1.
</event>
<event>
 7    1  0.1541902E-008  0.4614232E+02  0.7816164E-02  0.1320468E+00
        -11   -1    0    0    0    0  0.00000000000E+00  0.00000000000E+00  0.45593999997E+02  0.45594000000E+02  0.51100000000E-03 0. -1.
         11   -1    0    0    0    0 -0.00000000000E+00 -0.00000000000E+00 -0.45593999997E+02  0.45594000000E+02  0.51100000000E-03 0.  1.
    9900012    2    1    2    0    0 -0.26044516226E+02  0.29043757153E+02 -0.22522360322E+02  0.46142319080E+02  0.10000012029E+02 0.  0.
         12    1    1    2    0    0  0.26044516226E+02 -0.29043757153E+02  0.22522360322E+02  0.45045680920E+02  0.00000000000E+00 0. -1.
         11    1    3    3    0    0 -0.92599711648E+01  0.15667415148E+02 -0.85557465355E+01  0.20110091060E+02  0.51100000000E-03 0. -1.
        -11    1    3    3    0    0 -0.43317403058E+01  0.62199394866E+01 -0.54322910739E+01  0.93253100681E+01  0.51100000000E-03 0.  1.
         12    1    3    3    0    0 -0.12452804756E+02  0.71564025184E+01 -0.85343227128E+01  0.16706917952E+02  0.00000000000E+00 0. -1.
</event>
<event>
 7    1  0.1541902E-008  0.4614232E+02  0.7816164E-02  0.1320468E+00
        -11   -1    0    0    0    0  0.00000000000E+00  0.00000000000E+00  0.45593999997E+02  0.45594000000E+02  0.51100000000E-03 0.  1.
         11   -1    0    0    0    0 -0.00000000000E+00 -0.00000000000E+00 -0.45593999997E+02  0.45594000000E+02  0.51100000000E-03 0. -1.
    9900012    2    1    2    0    0  0.22427962198E+02  0.88848164462E+01  0.38041548248E+02  0.46142324905E+02  0.10000065143E+02 0.  0.
         12    1    1    2    0    0 -0.22427962198E+02 -0.88848164462E+01 -0.38041548248E+02  0.45045675095E+02  0.00000000000E+00 0. -1.
         11    1    3    3    0    0  0.69865002974E+01  0.30453140177E+01  0.49360766693E+01  0.90801969702E+01  0.51100000000E-03 0. -1.
        -11    1    3    3    0    0  0.14909289332E+02  0.55798459259E+01  0.30665475436E+02  0.34551309279E+02  0.51100000000E-03 0.  1.
        -12    1    3    3    0    0  0.53217256892E+00  0.25965650259E+00  0.24399961429E+01  0.25108186553E+01  0.00000000000E+00 0.  1.
</event>
<event>
 7    1  0.1541902E-008  0.4614232E+02  0.7816164E-02  0.1320468E+00
        -11   -1    0    0    0    0  0.00000000000E+00  0.00000000000E+00  0.45593999997E+02  0.45594000000E+02  0.51100000000E-03 0. -1.
         11   -1    0    0    0    0 -0.00000000000E+00 -0.00000000000E+00 -0.45593999997E+02  0.45594000000E+02  0.51100000000E-03 0.  1.
    9900012    2    1    2    0    0  0.81870647122E+01  0.42525280178E+02  0.12397016080E+02  0.46142317737E+02  0.99999997806E+01 0.  0.
         12    1    1    2    0    0 -0.81870647122E+01 -0.42525280178E+02 -0.12397016080E+02  0.45045682263E+02  0.00000000000E+00 0. -1.
         11    1    3    3    0    0 -0.99757688523E+00  0.16451999291E+02  0.59609882780E+01  0.17527031176E+02  0.51100000000E-03 0. -1.
        -11    1    3    3    0    0  0.62764773164E+01  0.20433131923E+02  0.62356924534E+01  0.22266362710E+02  0.51100000000E-03 0.  1.
         12    1    3    3    0    0  0.29081642810E+01  0.56401489638E+01  0.20033534861E+00  0.63489238514E+01  0.00000000000E+00 0. -1.
</event>
<event>
 7    1  0.1541902E-008  0.4614232E+02  0.7816164E-02  0.1320468E+00
        -11   -1    0    0    0    0  0.00000000000E+00  0.00000000000E+00  0.45593999997E+02  0.45594000000E+02  0.51100000000E-03 0.  1.
         11   -1    0    0    0    0 -0.00000000000E+00 -0.00000000000E+00 -0.45593999997E+02  0.45594000000E+02  0.51100000000E-03 0. -1.
    9900012    2    1    2    0    0  0.14495981706E+02  0.30102686089E+02  0.30212716390E+02  0.46142318442E+02  0.10000006210E+02 0.  0.
         12    1    1    2    0    0 -0.14495981706E+02 -0.30102686089E+02 -0.30212716390E+02  0.45045681558E+02  0.00000000000E+00 0. -1.
         11    1    3    3    0    0 -0.80362549784E+00  0.35575704139E-01 -0.66006648303E-01  0.80711629289E+00  0.51100000000E-03 0. -1.
        -11    1    3    3    0    0  0.89074706985E+01  0.17077492671E+02  0.17595226465E+02  0.26087847454E+02  0.51100000000E-03 0.  1.
         12    1    3    3    0    0  0.63921365051E+01  0.12989617714E+02  0.12683496573E+02  0.19247354695E+02  0.00000000000E+00 0. -1.
</event>
<event>
 7    1  0.1541902E-008  0.4614232E+02  0.7816164E-02  0.1320468E+00
        -11   -1    0    0    0    0  0.00000000000E+00  0.00000000000E+00  0.45593999997E+02  0.45594000000E+02  0.51100000000E-03 0. -1.
         11   -1    0    0    0    0 -0.00000000000E+00 -0.00000000000E+00 -0.45593999997E+02  0.45594000000E+02  0.51100000000E-03 0.  1.
    9900012    2    1    2    0    0 -0.14101124611E+02 -0.29269993445E+02 -0.31201588784E+02  0.46142319028E+02  0.10000011555E+02 0.  0.
         12    1    1    2    0    0  0.14101124611E+02  0.29269993445E+02  0.31201588784E+02  0.45045680972E+02  0.00000000000E+00 0. -1.
         11    1    3    3    0    0 -0.21560046769E+01 -0.78209849847E+01 -0.37870116539E+01  0.89530787903E+01  0.51100000000E-03 0. -1.
        -11    1    3    3    0    0 -0.44927220228E+01 -0.82337531404E+01 -0.14478432519E+02  0.17251210115E+02  0.51100000000E-03 0.  1.
        -12    1    3    3    0    0 -0.74523979117E+01 -0.13215255320E+02 -0.12936144611E+02  0.19938030123E+02  0.00000000000E+00 0.  1.
</event>
<event>
 7    1  0.1541902E-008  0.4614232E+02  0.7816164E-02  0.1320468E+00
        -11   -1    0    0    0    0  0.00000000000E+00  0.00000000000E+00  0.45593999997E+02  0.45594000000E+02  0.51100000000E-03 0. -1.
         11   -1    0    0    0    0 -0.00000000000E+00 -0.00000000000E+00 -0.45593999997E+02  0.45594000000E+02  0.51100000000E-03 0.  1.
    9900012    2    1    2    0    0 -0.39213814996E+02 -0.13869978429E+02 -0.17292016296E+02  0.46142318568E+02  0.10000007354E+02 0.  0.
         12    1    1    2    0    0  0.39213814996E+02  0.13869978429E+02  0.17292016296E+02  0.45045681432E+02  0.00000000000E+00 0. -1.
         11    1    3    3    0    0 -0.37103208382E+00  0.63436877933E+00 -0.13618294197E+01  0.15474715457E+01  0.51100000000E-03 0. -1.
        -11    1    3    3    0    0 -0.22715669334E+02 -0.10525426743E+02 -0.99489914367E+01  0.26940094140E+02  0.51100000000E-03 0.  1.
         12    1    3    3    0    0 -0.16127113578E+02 -0.39789204653E+01 -0.59811954397E+01  0.17654752882E+02  0.00000000000E+00 0. -1.
</event>
<event>
 7    1  0.1541902E-008  0.4614232E+02  0.7816164E-02  0.1320468E+00
        -11   -1    0    0    0    0  0.00000000000E+00  0.00000000000E+00  0.45593999997E+02  0.45594000000E+02  0.51100000000E-03 0.  1.
         11   -1    0    0    0    0 -0.00000000000E+00 -0.00000000000E+00 -0.45593999997E+02  0.45594000000E+02  0.51100000000E-03 0. -1.
    9900012    2    1    2    0    0  0.44429092043E+02  0.65344565125E+01  0.35313093648E+01  0.46142317770E+02  0.10000000083E+02 0.  0.
         12    1    1    2    0    0 -0.44429092043E+02 -0.65344565125E+01 -0.35313093648E+01  0.45045682230E+02  0.00000000000E+00 0. -1.
         11    1    3    3    0    0  0.44939698914E+01  0.18618501807E+01  0.20227861791E+00  0.48685899787E+01  0.51100000000E-03 0. -1.
        -11    1    3    3    0    0  0.31798613044E+02  0.54865749638E+00  0.43311487239E+01  0.32096910538E+02  0.51100000000E-03 0.  1.
        -12    1    3    3    0    0  0.81365091081E+01  0.41239488354E+01 -0.10021179770E+01  0.91768172535E+01  0.00000000000E+00 0.  1.
</event>
<event>
 7    1  0.1541902E-008  0.4614232E+02  0.7816164E-02  0.1320468E+00
        -11   -1    0    0    0    0  0.00000000000E+00  0.00000000000E+00  0.45593999997E+02  0.45594000000E+02  0.51100000000E-03 0.  1.
         11   -1    0    0    0    0 -0.00000000000E+00 -0.00000000000E+00 -0.45593999997E+02  0.45594000000E+02  0.51100000000E-03 0. -1.
    9900012    2    1    2    0    0 -0.20779105636E+01  0.19126785684E+02  0.40730355803E+02  0.46142317335E+02  0.99999961112E+01 0.  0.
         12    1    1    2    0    0  0.20779105636E+01 -0.19126785684E+02 -0.40730355803E+02  0.45045682665E+02  0.00000000000E+00 0. -1.
         11    1    3    3    0    0 -0.18407334459E+01  0.75737989090E+01  0.12250256740E+02  0.14519625340E+02  0.51100000000E-03 0. -1.
        -11    1    3    3    0    0 -0.15075023110E+01  0.69060593785E+01  0.84272995830E+01  0.10999345339E+02  0.51100000000E-03 0.  1.
         12    1    3    3    0    0  0.12703251933E+01  0.46469273965E+01  0.20052799480E+02  0.20623346656E+02  0.00000000000E+00 0. -1.
</event>
<event>
 7    1  0.1541902E-008  0.4614232E+02  0.7816164E-02  0.1320468E+00
        -11   -1    0    0    0    0  0.00000000000E+00  0.00000000000E+00  0.45593999997E+02  0.45594000000E+02  0.51100000000E-03 0.  1.
         11   -1    0    0    0    0 -0.00000000000E+00 -0.00000000000E+00 -0.45593999997E+02  0.45594000000E+02  0.51100000000E-03 0. -1.
    9900012    2    1    2    0    0 -0.35650883831E+02 -0.27445766539E+02  0.22040612494E+01  0.46142317578E+02  0.99999983315E+01 0.  0.
         12    1    1    2    0    0  0.35650883831E+02  0.27445766539E+02 -0.22040612494E+01  0.45045682422E+02  0.00000000000E+00 0. -1.
         11    1    3    3    0    0  0.66456332708E-01 -0.12731507682E+01 -0.76757210494E+00  0.14881184496E+01  0.51100000000E-03 0. -1.
        -11    1    3    3    0    0 -0.12212767044E+02 -0.88783170602E+01  0.33683753186E+01  0.15470040247E+02  0.51100000000E-03 0.  1.
        -12    1    3    3    0    0 -0.23504573120E+02 -0.17294298710E+02 -0.39674196423E+00  0.29184158881E+02  0.00000000000E+00 0.  1.
</event>
<event>
 7    1  0.1541902E-008  0.4614232E+02  0.7816164E-02  0.1320468E+00
        -11   -1    0    0    0    0  0.00000000000E+00  0.00000000000E+00  0.45593999997E+02  0.45594000000E+02  0.51100000000E-03 0.  1.
         11   -1    0    0    0    0 -0.00000000000E+00 -0.00000000000E+00 -0.45593999997E+02  0.45594000000E+02  0.51100000000E-03 0. -1.
    9900012    2    1    2    0    0  0.44137303637E+02 -0.92743787251E+00 -0.89527440536E+01  0.46142319415E+02  0.10000015077E+02 0.  0.
         12    1    1    2    0    0 -0.44137303637E+02  0.92743787251E+00  0.89527440536E+01  0.45045680585E+02  0.00000000000E+00 0. -1.
         11    1    3    3    0    0 -0.45557881989E-01  0.14261068642E+00 -0.29884588300E+00  0.33424908586E+00  0.51100000000E-03 0. -1.
        -11    1    3    3    0    0  0.25179760645E+02  0.99414660790E+00 -0.88026522556E+01  0.26692608727E+02  0.51100000000E-03 0.  1.
        -12    1    3    3    0    0  0.19003100873E+02 -0.20641951668E+01  0.14875408497E+00  0.19115461602E+02  0.00000000000E+00 0.  1.
</event>
<event>
 7    1  0.1541902E-008  0.4614232E+02  0.7816164E-02  0.1320468E+00
        -11   -1    0    0    0    0  0.00000000000E+00  0.00000000000E+00  0.45593999997E+02  0.45594000000E+02  0.51100000000E-03 0.  1.
         11   -1    0    0    0    0 -0.00000000000E+00 -0.00000000000E+00 -0.45593999997E+02  0.45594000000E+02  0.51100000000E-03 0. -1.
    9900012    2    1    2    0    0  0.25350439291E+02 -0.66866110422E+01  0.36630014626E+02  0.46142317510E+02  0.99999977116E+01 0.  0.
         12    1    1    2    0    0 -0.25350439291E+02  0.66866110422E+01 -0.36630014626E+02  0.45045682490E+02  0.00000000000E+00 0. -1.
         11    1    3    3    0    0  0.57364094974E+01 -0.38370165011E+01  0.12739779746E+02  0.14488998509E+02  0.51100000000E-03 0. -1.
        -11    1    3    3    0    0  0.15950238098E+02  0.26370662254E+00  0.18068354687E+02  0.24102802283E+02  0.51100000000E-03 0.  1.
         12    1    3    3    0    0  0.36637916961E+01 -0.31133011637E+01  0.58218801930E+01  0.75505167181E+01  0.00000000000E+00 0. -1.
</event>
<event>
 7    1  0.1541902E-008  0.4614232E+02  0.7816164E-02  0.1320468E+00
        -11   -1    0    0    0    0  0.00000000000E+00  0.00000000000E+00  0.45593999997E+02  0.45594000000E+02  0.51100000000E-03 0.  1.
         11   -1    0    0    0    0 -0.00000000000E+00 -0.00000000000E+00 -0.45593999997E+02  0.45594000000E+02  0.51100000000E-03 0. -1.
    9900012    2    1    2    0    0 -0.36847562695E+02  0.68944326199E+01  0.24976741741E+02  0.46142315349E+02  0.99999780032E+01 0.  0.
         12    1    1    2    0    0  0.36847562695E+02 -0.68944326199E+01 -0.24976741741E+02  0.45045684651E+02  0.00000000000E+00 0. -1.
         11    1    3    3    0    0 -0.83853383117E+01  0.32588242400E+01  0.84595039623E+01  0.12348969252E+02  0.51100000000E-03 0. -1.
        -11    1    3    3    0    0 -0.13024789424E+02 -0.12792936362E+01  0.93130633183E+01  0.16062841603E+02  0.51100000000E-03 0.  1.
        -12    1    3    3    0    0 -0.15437434960E+02  0.49149020161E+01  0.72041744600E+01  0.17730504494E+02  0.00000000000E+00 0.  1.
</event>
<event>
 7    1  0.1541902E-008  0.4614231E+02  0.7816164E-02  0.1320468E+00
        -11   -1    0    0    0    0  0.00000000000E+00  0.00000000000E+00  0.45593999997E+02  0.45594000000E+02  0.51100000000E-03 0.  1.
         11   -1    0    0    0    0 -0.00000000000E+00 -0.00000000000E+00 -0.45593999997E+02  0.45594000000E+02  0.51100000000E-03 0. -1.
    9900012    2    1    2    0    0  0.66470114300E+01  0.21585028915E+02  0.38974576470E+02  0.46142313800E+02  0.99999638778E+01 0.  0.
         12    1    1    2    0    0 -0.66470114300E+01 -0.21585028915E+02 -0.38974576470E+02  0.45045686200E+02  0.00000000000E+00 0. -1.
         11    1    3    3    0    0  0.85669664202E+00  0.21334322209E+01  0.17883779776E+00  0.23059586719E+01  0.51100000000E-03 0. -1.
        -11    1    3    3    0    0  0.50929591947E+01  0.16000051331E+02  0.30334275409E+02  0.34671431191E+02  0.51100000000E-03 0.  1.
        -12    1    3    3    0    0  0.69735559328E+00  0.34515453627E+01  0.84614632637E+01  0.91649239373E+01  0.00000000000E+00 0.  1.
</event>
<event>
 7    1  0.1541902E-008  0.4614232E+02  0.7816164E-02  0.1320468E+00
        -11   -1    0    0    0    0  0.00000000000E+00  0.00000000000E+00  0.45593999997E+02  0.45594000000E+02  0.51100000000E-03 0.  1.
         11   -1    0    0    0    0 -0.00000000000E+00 -0.00000000000E+00 -0.45593999997E+02  0.45594000000E+02  0.51100000000E-03 0. -1.
    9900012    2    1    2    0    0 -0.30863427684E+00  0.14390602508E+02  0.42684058033E+02  0.46142317567E+02  0.99999982333E+01 0.  0.
         12    1    1    2    0    0  0.30863427684E+00 -0.14390602508E+02 -0.42684058033E+02  0.45045682433E+02  0.00000000000E+00 0. -1.
         11    1    3    3    0    0 -0.22400481579E+00 -0.64197008283E-01  0.80970872582E+01  0.81004396017E+01  0.51100000000E-03 0.  1.
        -11    1    3    3    0    0 -0.27908492848E+01  0.96940478243E+01  0.18853845166E+02  0.21382957718E+02  0.51100000000E-03 0. -1.
        -12    1    3    3    0    0  0.27062198238E+01  0.47607516919E+01  0.15733125609E+02  0.16658920248E+02  0.00000000000E+00 0.  1.
</event>
<event>
 7    1  0.1541902E-008  0.4614232E+02  0.7816164E-02  0.1320468E+00
        -11   -1    0    0    0    0  0.00000000000E+00  0.00000000000E+00  0.45593999997E+02  0.45594000000E+02  0.51100000000E-03 0. -1.
         11   -1    0    0    0    0 -0.00000000000E+00 -0.00000000000E+00 -0.45593999997E+02  0.45594000000E+02  0.51100000000E-03 0.  1.
    9900012    2    1    2    0    0  0.11936678957E+02 -0.37236111535E+02 -0.22362942227E+02  0.46142317723E+02  0.99999996515E+01 0.  0.
         12    1    1    2    0    0 -0.11936678957E+02  0.37236111535E+02  0.22362942227E+02  0.45045682277E+02  0.00000000000E+00 0. -1.
         11    1    3    3    0    0  0.46427739395E+01 -0.10392964780E+02 -0.49693877795E+01  0.12420301201E+02  0.51100000000E-03 0. -1.
        -11    1    3    3    0    0  0.40640043386E+01 -0.24569872414E+02 -0.15581564253E+02  0.29376519647E+02  0.51100000000E-03 0.  1.
        -12    1    3    3    0    0  0.32299006791E+01 -0.22732743407E+01 -0.18119901947E+01  0.43454968750E+01  0.00000000000E+00 0.  1.
</event>
<event>
 7    1  0.1541902E-008  0.4614232E+02  0.7816164E-02  0.1320468E+00
        -11   -1    0    0    0    0  0.00000000000E+00  0.00000000000E+00  0.45593999997E+02  0.45594000000E+02  0.51100000000E-03 0. -1.
         11   -1    0    0    0    0 -0.00000000000E+00 -0.00000000000E+00 -0.45593999997E+02  0.45594000000E+02  0.51100000000E-03 0.  1.
    9900012    2    1    2    0    0 -0.41999994005E+02 -0.13860376744E+02 -0.85442255253E+01  0.46142319522E+02  0.10000016059E+02 0.  0.
         12    1    1    2    0    0  0.41999994005E+02  0.13860376744E+02  0.85442255253E+01  0.45045680478E+02  0.00000000000E+00 0. -1.
         11    1    3    3    0    0 -0.90683745461E+01 -0.19964263945E+01  0.10318272169E+01  0.93426871361E+01  0.51100000000E-03 0. -1.
        -11    1    3    3    0    0 -0.26797465888E+02 -0.10053048692E+02 -0.53045160042E+01  0.29108518621E+02  0.51100000000E-03 0.  1.
         12    1    3    3    0    0 -0.61341535710E+01 -0.18109016576E+01 -0.42715367379E+01  0.76911137652E+01  0.00000000000E+00 0. -1.
</event>
<event>
 7    1  0.1541902E-008  0.4614232E+02  0.7816164E-02  0.1320468E+00
        -11   -1    0    0    0    0  0.00000000000E+00  0.00000000000E+00  0.45593999997E+02  0.45594000000E+02  0.51100000000E-03 0.  1.
         11   -1    0    0    0    0 -0.00000000000E+00 -0.00000000000E+00 -0.45593999997E+02  0.45594000000E+02  0.51100000000E-03 0. -1.
    9900012    2    1    2    0    0 -0.70508329651E+01  0.38333753691E+02  0.22581465077E+02  0.46142317826E+02  0.10000000590E+02 0.  0.
         12    1    1    2    0    0  0.70508329651E+01 -0.38333753691E+02 -0.22581465077E+02  0.45045682174E+02  0.00000000000E+00 0. -1.
         11    1    3    3    0    0 -0.81389937965E+00  0.16476385111E+02  0.11617656689E+02  0.20176809602E+02  0.51100000000E-03 0. -1.
        -11    1    3    3    0    0 -0.73471500702E+01  0.16688467122E+02  0.88985441075E+01  0.20289643578E+02  0.51100000000E-03 0.  1.
         12    1    3    3    0    0  0.11102164848E+01  0.51689014580E+01  0.20652642806E+01  0.56758646455E+01  0.00000000000E+00 0. -1.
</event>
<event>
 7    1  0.1541902E-008  0.4614231E+02  0.7816164E-02  0.1320468E+00
        -11   -1    0    0    0    0  0.00000000000E+00  0.00000000000E+00  0.45593999997E+02  0.45594000000E+02  0.51100000000E-03 0. -1.
         11   -1    0    0    0    0 -0.00000000000E+00 -0.00000000000E+00 -0.45593999997E+02  0.45594000000E+02  0.51100000000E-03 0.  1.
    9900012    2    1    2    0    0  0.35252027965E+02 -0.57458523945E+01 -0.27448017776E+02  0.46142312357E+02  0.99999507179E+01 0.  0.
         12    1    1    2    0    0 -0.35252027965E+02  0.57458523945E+01  0.27448017776E+02  0.45045687643E+02  0.00000000000E+00 0. -1.
         11    1    3    3    0    0  0.17515412023E+02  0.75159280215E+00 -0.11510097791E+02  0.20972288895E+02  0.51100000000E-03 0. -1.
        -11    1    3    3    0    0  0.11629346606E+02 -0.52319119583E+01 -0.79179248470E+01  0.15010267798E+02  0.51100000000E-03 0.  1.
        -12    1    3    3    0    0  0.61072693356E+01 -0.12655332383E+01 -0.80199951384E+01  0.10159755663E+02  0.00000000000E+00 0.  1.
</event>
<event>
 7    1  0.1541902E-008  0.4614232E+02  0.7816164E-02  0.1320468E+00
        -11   -1    0    0    0    0  0.00000000000E+00  0.00000000000E+00  0.45593999997E+02  0.45594000000E+02  0.51100000000E-03 0.  1.
         11   -1    0    0    0    0 -0.00000000000E+00 -0.00000000000E+00 -0.45593999997E+02  0.45594000000E+02  0.51100000000E-03 0. -1.
    9900012    2    1    2    0    0  0.30968568213E+02  0.32656130246E+02  0.19074488250E+01  0.46142318511E+02  0.10000006839E+02 0.  0.
         12    1    1    2    0    0 -0.30968568213E+02 -0.32656130246E+02 -0.19074488250E+01  0.45045681489E+02  0.00000000000E+00 0. -1.
         11    1    3    3    0    0  0.10579596595E+02  0.11721808268E+02 -0.14847706952E+01  0.15859798153E+02  0.51100000000E-03 0. -1.
        -11    1    3    3    0    0  0.13981625506E+02  0.94791405598E+01  0.29646364856E+01  0.17150190299E+02  0.51100000000E-03 0.  1.
        -12    1    3    3    0    0  0.64073461114E+01  0.11455181418E+02  0.42758303465E+00  0.13132330059E+02  0.00000000000E+00 0.  1.
</event>
<event>
 7    1  0.1541902E-008  0.4614232E+02  0.7816164E-02  0.1320468E+00
        -11   -1    0    0    0    0  0.00000000000E+00  0.00000000000E+00  0.45593999997E+02  0.45594000000E+02  0.51100000000E-03 0.  1.
         11   -1    0    0    0    0 -0.00000000000E+00 -0.00000000000E+00 -0.45593999997E+02  0.45594000000E+02  0.51100000000E-03 0. -1.
    9900012    2    1    2    0    0  0.31321934589E+02 -0.29994288723E+02 -0.12181647320E+02  0.46142317923E+02  0.10000001477E+02 0.  0.
         12    1    1    2    0    0 -0.31321934589E+02  0.29994288723E+02  0.12181647320E+02  0.45045682077E+02  0.00000000000E+00 0. -1.
         11    1    3    3    0    0  0.10589464662E+02 -0.12766787200E+02 -0.24341863585E+01  0.16764631840E+02  0.51100000000E-03 0. -1.
        -11    1    3    3    0    0  0.11256002474E+02 -0.11474710090E+02 -0.86072966630E+01  0.18233269576E+02  0.51100000000E-03 0.  1.
        -12    1    3    3    0    0  0.94764674526E+01 -0.57527914327E+01 -0.11401642986E+01  0.11144416507E+02  0.00000000000E+00 0.  1.
</event>
<event>
 7    1  0.1541902E-008  0.4614232E+02  0.7816164E-02  0.1320468E+00
        -11   -1    0    0    0    0  0.00000000000E+00  0.00000000000E+00  0.45593999997E+02  0.45594000000E+02  0.51100000000E-03 0.  1.
         11   -1    0    0    0    0 -0.00000000000E+00 -0.00000000000E+00 -0.45593999997E+02  0.45594000000E+02  0.51100000000E-03 0. -1.
    9900012    2    1    2    0    0  0.13669464130E+02  0.13286114805E+02  0.40813458277E+02  0.46142317935E+02  0.10000001587E+02 0.  0.
         12    1    1    2    0    0 -0.13669464130E+02 -0.13286114805E+02 -0.40813458277E+02  0.45045682065E+02  0.00000000000E+00 0. -1.
         11    1    3    3    0    0  0.67873075859E+01  0.18607912788E+01  0.10286158015E+02  0.12463351693E+02  0.51100000000E-03 0. -1.
        -11    1    3    3    0    0  0.48504767037E+01  0.63285310365E+01  0.23151969300E+02  0.24486549616E+02  0.51100000000E-03 0.  1.
         12    1    3    3    0    0  0.20316798401E+01  0.50967924894E+01  0.73753309606E+01  0.91924166262E+01  0.00000000000E+00 0. -1.
</event>
<event>
 7    1  0.1541902E-008  0.4614233E+02  0.7816164E-02  0.1320468E+00
        -11   -1    0    0    0    0  0.00000000000E+00  0.00000000000E+00  0.45593999997E+02  0.45594000000E+02  0.51100000000E-03 0.  1.
         11   -1    0    0    0    0 -0.00000000000E+00 -0.00000000000E+00 -0.45593999997E+02  0.45594000000E+02  0.51100000000E-03 0. -1.
    9900012    2    1    2    0    0  0.13227092466E+02  0.65108980011E+01  0.42564826296E+02  0.46142332000E+02  0.10000129844E+02 0.  0.
         12    1    1    2    0    0 -0.13227092466E+02 -0.65108980011E+01 -0.42564826296E+02  0.45045668000E+02  0.00000000000E+00 0. -1.
         11    1    3    3    0    0 -0.27281542343E-01  0.26241199324E+01  0.99798397943E+01  0.10319106177E+02  0.51100000000E-03 0. -1.
        -11    1    3    3    0    0  0.87092775198E+01  0.50250134572E+00  0.15052887558E+02  0.17398087441E+02  0.51100000000E-03 0.  1.
        -12    1    3    3    0    0  0.45450964885E+01  0.33842767230E+01  0.17532098944E+02  0.18425138383E+02  0.00000000000E+00 0.  1.
</event>
<event>
 7    1  0.1541902E-008  0.4614232E+02  0.7816164E-02  0.1320468E+00
        -11   -1    0    0    0    0  0.00000000000E+00  0.00000000000E+00  0.45593999997E+02  0.45594000000E+02  0.51100000000E-03 0.  1.
         11   -1    0    0    0    0 -0.00000000000E+00 -0.00000000000E+00 -0.45593999997E+02  0.45594000000E+02  0.51100000000E-03 0. -1.
    9900012    2    1    2    0    0  0.39266661288E+02 -0.21479435818E+02  0.50869078185E+01  0.46142317821E+02  0.10000000550E+02 0.  0.
         12    1    1    2    0    0 -0.39266661288E+02  0.21479435818E+02 -0.50869078185E+01  0.45045682179E+02  0.00000000000E+00 0. -1.
         11    1    3    3    0    0  0.26357323158E+02 -0.10434853866E+02  0.44960936695E+01  0.28702082116E+02  0.51100000000E-03 0. -1.
        -11    1    3    3    0    0  0.12569986313E+02 -0.95412471860E+01  0.10943583415E+01  0.15818899273E+02  0.51100000000E-03 0.  1.
         12    1    3    3    0    0  0.33935181775E+00 -0.15033347652E+01 -0.50354419249E+00  0.16213364321E+01  0.00000000000E+00 0. -1.
</event>
<event>
 7    1  0.1541902E-008  0.4614232E+02  0.7816164E-02  0.1320468E+00
        -11   -1    0    0    0    0  0.00000000000E+00  0.00000000000E+00  0.45593999997E+02  0.45594000000E+02  0.51100000000E-03 0.  1.
         11   -1    0    0    0    0 -0.00000000000E+00 -0.00000000000E+00 -0.45593999997E+02  0.45594000000E+02  0.51100000000E-03 0. -1.
    9900012    2    1    2    0    0 -0.22643962589E+02 -0.15495429059E+01  0.38909684856E+02  0.46142315406E+02  0.99999785219E+01 0.  0.
         12    1    1    2    0    0  0.22643962589E+02  0.15495429059E+01 -0.38909684856E+02  0.45045684594E+02  0.00000000000E+00 0. -1.
         11    1    3    3    0    0 -0.12571899954E+02 -0.39622155494E+01  0.14960735860E+02  0.19939293825E+02  0.51100000000E-03 0. -1.
        -11    1    3    3    0    0 -0.37404395201E+01 -0.25527042541E+00  0.90679754572E+01  0.98124527997E+01  0.51100000000E-03 0.  1.
         12    1    3    3    0    0 -0.63316231151E+01  0.26679430689E+01  0.14880973539E+02  0.16390568781E+02  0.00000000000E+00 0. -1.
</event>
<event>
 7    1  0.1541902E-008  0.4614232E+02  0.7816164E-02  0.1320468E+00
        -11   -1    0    0    0    0  0.00000000000E+00  0.00000000000E+00  0.45593999997E+02  0.45594000000E+02  0.51100000000E-03 0.  1.
         11   -1    0    0    0    0 -0.00000000000E+00 -0.00000000000E+00 -0.45593999997E+02  0.45594000000E+02  0.51100000000E-03 0. -1.
    9900012    2    1    2    0    0  0.17569366699E+02 -0.17253787300E+02  0.37719195554E+02  0.46142317236E+02  0.99999952144E+01 0.  0.
         12    1    1    2    0    0 -0.17569366699E+02  0.17253787300E+02 -0.37719195554E+02  0.45045682764E+02  0.00000000000E+00 0. -1.
         11    1    3    3    0    0  0.38800242584E+01 -0.25842706501E+01  0.39324394708E+01  0.60989444571E+01  0.51100000000E-03 0. -1.
        -11    1    3    3    0    0  0.89023371391E+01 -0.60983835834E+01  0.11948733653E+02  0.16100128107E+02  0.51100000000E-03 0.  1.
        -12    1    3    3    0    0  0.47870053017E+01 -0.85711330660E+01  0.21838022430E+02  0.23943244673E+02  0.00000000000E+00 0.  1.
</event>
<event>
 7    1  0.1541902E-008  0.4614232E+02  0.7816164E-02  0.1320468E+00
        -11   -1    0    0    0    0  0.00000000000E+00  0.00000000000E+00  0.45593999997E+02  0.45594000000E+02  0.51100000000E-03 0. -1.
         11   -1    0    0    0    0 -0.00000000000E+00 -0.00000000000E+00 -0.45593999997E+02  0.45594000000E+02  0.51100000000E-03 0.  1.
    9900012    2    1    2    0    0 -0.37478344291E+02 -0.21252221917E+02 -0.13146493422E+02  0.46142317449E+02  0.99999971504E+01 0.  0.
         12    1    1    2    0    0  0.37478344291E+02  0.21252221917E+02  0.13146493422E+02  0.45045682551E+02  0.00000000000E+00 0. -1.
         11    1    3    3    0    0 -0.25607823560E+01 -0.47740081950E+01 -0.19814618834E+01  0.57684445024E+01  0.51100000000E-03 0. -1.
        -11    1    3    3    0    0 -0.20007943993E+02 -0.74886443780E+01 -0.54175311699E+01  0.22039674718E+02  0.51100000000E-03 0.  1.
         12    1    3    3    0    0 -0.14909617943E+02 -0.89895693442E+01 -0.57475003683E+01  0.18334198228E+02  0.00000000000E+00 0. -1.
</event>
<event>
 7    1  0.1541902E-008  0.4614232E+02  0.7816164E-02  0.1320468E+00
        -11   -1    0    0    0    0  0.00000000000E+00  0.00000000000E+00  0.45593999997E+02  0.45594000000E+02  0.51100000000E-03 0. -1.
         11   -1    0    0    0    0 -0.00000000000E+00 -0.00000000000E+00 -0.45593999997E+02  0.45594000000E+02  0.51100000000E-03 0.  1.
    9900012    2    1    2    0    0  0.49095062394E+01 -0.32190185795E+02 -0.31125590434E+02  0.46142315491E+02  0.99999792972E+01 0.  0.
         12    1    1    2    0    0 -0.49095062394E+01  0.32190185795E+02  0.31125590434E+02  0.45045684509E+02  0.00000000000E+00 0. -1.
         11    1    3    3    0    0  0.27190094129E+01 -0.13976889697E+02 -0.86016550928E+01  0.16635351766E+02  0.51100000000E-03 0. -1.
        -11    1    3    3    0    0  0.22430418362E+01 -0.13787697850E+02 -0.20050671009E+02  0.24436883124E+02  0.51100000000E-03 0.  1.
        -12    1    3    3    0    0 -0.52545009652E-01 -0.44255982486E+01 -0.24732643326E+01  0.50700806004E+01  0.00000000000E+00 0.  1.
</event>
<event>
 7    1  0.1541902E-008  0.4614232E+02  0.7816164E-02  0.1320468E+00
        -11   -1    0    0    0    0  0.00000000000E+00  0.00000000000E+00  0.45593999997E+02  0.45594000000E+02  0.51100000000E-03 0. -1.
         11   -1    0    0    0    0 -0.00000000000E+00 -0.00000000000E+00 -0.45593999997E+02  0.45594000000E+02  0.51100000000E-03 0.  1.
    9900012    2    1    2    0    0  0.12479920839E+00 -0.42844253984E+02 -0.13909270622E+02  0.46142317815E+02  0.10000000490E+02 0.  0.
         12    1    1    2    0    0 -0.12479920839E+00  0.42844253984E+02  0.13909270622E+02  0.45045682185E+02  0.00000000000E+00 0. -1.
         11    1    3    3    0    0 -0.32954824570E+01 -0.21459936821E+02 -0.76289083268E+01  0.23012808075E+02  0.51100000000E-03 0. -1.
        -11    1    3    3    0    0  0.28539885969E-01 -0.10733190506E+02 -0.51183238654E+01  0.11891149331E+02  0.51100000000E-03 0.  1.
         12    1    3    3    0    0  0.33917417794E+01 -0.10651126657E+02 -0.11620384302E+01  0.11238360409E+02  0.00000000000E+00 0. -1.
</event>
<event>
 7    1  0.1541902E-008  0.4614232E+02  0.7816164E-02  0.1320468E+00
        -11   -1    0    0    0    0  0.00000000000E+00  0.00000000000E+00  0.45593999997E+02  0.45594000000E+02  0.51100000000E-03 0.  1.
         11   -1    0    0    0    0 -0.00000000000E+00 -0.00000000000E+00 -0.45593999997E+02  0.45594000000E+02  0.51100000000E-03 0. -1.
    9900012    2    1    2    0    0 -0.19411810980E+02 -0.53696128207E+01  0.40292211414E+02  0.46142318209E+02  0.10000004087E+02 0.  0.
         12    1    1    2    0    0  0.19411810980E+02  0.53696128207E+01 -0.40292211414E+02  0.45045681791E+02  0.00000000000E+00 0. -1.
         11    1    3    3    0    0 -0.45142721007E+01  0.25404535895E+01  0.83564196960E+01  0.98316991124E+01  0.51100000000E-03 0. -1.
        -11    1    3    3    0    0 -0.55719330242E+01 -0.41043157377E+01  0.16340099320E+02  0.17745159660E+02  0.51100000000E-03 0.  1.
        -12    1    3    3    0    0 -0.93256058550E+01 -0.38057506725E+01  0.15595692398E+02  0.18565459437E+02  0.00000000000E+00 0.  1.
</event>
<event>
 7    1  0.1541902E-008  0.4614232E+02  0.7816164E-02  0.1320468E+00
        -11   -1    0    0    0    0  0.00000000000E+00  0.00000000000E+00  0.45593999997E+02  0.45594000000E+02  0.51100000000E-03 0.  1.
         11   -1    0    0    0    0 -0.00000000000E+00 -0.00000000000E+00 -0.45593999997E+02  0.45594000000E+02  0.51100000000E-03 0. -1.
    9900012    2    1    2    0    0  0.58121708774E+01  0.19117728821E+02  0.40371335040E+02  0.46142316761E+02  0.99999908771E+01 0.  0.
         12    1    1    2    0    0 -0.58121708774E+01 -0.19117728821E+02 -0.40371335040E+02  0.45045683239E+02  0.00000000000E+00 0. -1.
         11    1    3    3    0    0 -0.17018502432E+01  0.10039083031E+01  0.30991556827E+01  0.36754445089E+01  0.51100000000E-03 0. -1.
        -11    1    3    3    0    0  0.63224037087E+01  0.13906218042E+02  0.32947286306E+02  0.36316378730E+02  0.51100000000E-03 0.  1.
         12    1    3    3    0    0  0.11916174119E+01  0.42076024760E+01  0.43248930511E+01  0.61504935213E+01  0.00000000000E+00 0. -1.
</event>
<event>
 7    1  0.1541902E-008  0.4614231E+02  0.7816164E-02  0.1320468E+00
        -11   -1    0    0    0    0  0.00000000000E+00  0.00000000000E+00  0.45593999997E+02  0.45594000000E+02  0.51100000000E-03 0. -1.
         11   -1    0    0    0    0 -0.00000000000E+00 -0.00000000000E+00 -0.45593999997E+02  0.45594000000E+02  0.51100000000E-03 0.  1.
    9900012    2    1    2    0    0  0.40006079182E+00 -0.35081040240E+02  0.28253748504E+02  0.46142314996E+02  0.99999747812E+01 0.  0.
         12    1    1    2    0    0 -0.40006079182E+00  0.35081040240E+02 -0.28253748504E+02  0.45045685004E+02  0.00000000000E+00 0. -1.
         11    1    3    3    0    0  0.59189495855E+00 -0.15722758014E+02  0.18026717216E+02  0.23927348225E+02  0.51100000000E-03 0. -1.
        -11    1    3    3    0    0 -0.19246512413E+01 -0.12300546661E+02  0.66536056948E+01  0.14116593058E+02  0.51100000000E-03 0.  1.
        -12    1    3    3    0    0  0.17328170746E+01 -0.70577355652E+01  0.35734255931E+01  0.80983737128E+01  0.00000000000E+00 0.  1.
</event>
<event>
 7    1  0.1541902E-008  0.4614232E+02  0.7816164E-02  0.1320468E+00
        -11   -1    0    0    0    0  0.00000000000E+00  0.00000000000E+00  0.45593999997E+02  0.45594000000E+02  0.51100000000E-03 0.  1.
         11   -1    0    0    0    0 -0.00000000000E+00 -0.00000000000E+00 -0.45593999997E+02  0.45594000000E+02  0.51100000000E-03 0. -1.
    9900012    2    1    2    0    0 -0.11426529531E+02 -0.41151103962E+02  0.14322517926E+02  0.46142318141E+02  0.10000003467E+02 0.  0.
         12    1    1    2    0    0  0.11426529531E+02  0.41151103962E+02 -0.14322517926E+02  0.45045681859E+02  0.00000000000E+00 0. -1.
         11    1    3    3    0    0 -0.13178993067E+02 -0.35939054085E+02  0.11939131602E+02  0.40097934241E+02  0.51100000000E-03 0. -1.
        -11    1    3    3    0    0  0.82612475913E-01 -0.89439392890E+00  0.61612171857E+00  0.10892068465E+01  0.51100000000E-03 0.  1.
         12    1    3    3    0    0  0.16698510597E+01 -0.43176559479E+01  0.17672646054E+01  0.49551770535E+01  0.00000000000E+00 0. -1.
</event>
<event>
 7    1  0.1541902E-008  0.4614232E+02  0.7816164E-02  0.1320468E+00
        -11   -1    0    0    0    0  0.00000000000E+00  0.00000000000E+00  0.45593999997E+02  0.45594000000E+02  0.51100000000E-03 0. -1.
         11   -1    0    0    0    0 -0.00000000000E+00 -0.00000000000E+00 -0.45593999997E+02  0.45594000000E+02  0.51100000000E-03 0.  1.
    9900012    2    1    2    0    0  0.43249351599E+02  0.69129102817E+00 -0.12574940922E+02  0.46142318340E+02  0.10000005277E+02 0.  0.
         12    1    1    2    0    0 -0.43249351599E+02 -0.69129102817E+00  0.12574940922E+02  0.45045681660E+02  0.00000000000E+00 0. -1.
         11    1    3    3    0    0  0.11756138401E+02  0.44572215156E+01 -0.47304085620E+01  0.13433182019E+02  0.51100000000E-03 0. -1.
        -11    1    3    3    0    0  0.18285296009E+02 -0.18420267620E+01 -0.38483875958E+01  0.18776453341E+02  0.51100000000E-03 0.  1.
        -12    1    3    3    0    0  0.13207917190E+02 -0.19239037254E+01 -0.39961447642E+01  0.13932682979E+02  0.00000000000E+00 0.  1.
</event>
<event>
 7    1  0.1541902E-008  0.4614232E+02  0.7816164E-02  0.1320468E+00
        -11   -1    0    0    0    0  0.00000000000E+00  0.00000000000E+00  0.45593999997E+02  0.45594000000E+02  0.51100000000E-03 0.  1.
         11   -1    0    0    0    0 -0.00000000000E+00 -0.00000000000E+00 -0.45593999997E+02  0.45594000000E+02  0.51100000000E-03 0. -1.
    9900012    2    1    2    0    0 -0.48282371800E+01 -0.44537900575E+02  0.47092536766E+01  0.46142317276E+02  0.99999955766E+01 0.  0.
         12    1    1    2    0    0  0.48282371800E+01  0.44537900575E+02 -0.47092536766E+01  0.45045682724E+02  0.00000000000E+00 0. -1.
         11    1    3    3    0    0  0.49165906646E-01 -0.28085720636E+02  0.17234323582E+01  0.28138591655E+02  0.51100000000E-03 0. -1.
        -11    1    3    3    0    0 -0.42475345611E+01 -0.16413505832E+02  0.33400259284E+01  0.17280060677E+02  0.51100000000E-03 0.  1.
         12    1    3    3    0    0 -0.62986852556E+00 -0.38674106691E-01 -0.35420461003E+00  0.72366494442E+00  0.00000000000E+00 0. -1.
</event>
<event>
 7    1  0.1541902E-008  0.4614232E+02  0.7816164E-02  0.1320468E+00
        -11   -1    0    0    0    0  0.00000000000E+00  0.00000000000E+00  0.45593999997E+02  0.45594000000E+02  0.51100000000E-03 0.  1.
         11   -1    0    0    0    0 -0.00000000000E+00 -0.00000000000E+00 -0.45593999997E+02  0.45594000000E+02  0.51100000000E-03 0. -1.
    9900012    2    1    2    0    0  0.27166696686E+02  0.29585606742E+01  0.35809650495E+02  0.46142316980E+02  0.99999928797E+01 0.  0.
         12    1    1    2    0    0 -0.27166696686E+02 -0.29585606742E+01 -0.35809650495E+02  0.45045683020E+02  0.00000000000E+00 0. -1.
         11    1    3    3    0    0  0.16295616346E+01  0.12044545106E+01  0.12015962829E+00  0.20299311285E+01  0.51100000000E-03 0. -1.
        -11    1    3    3    0    0  0.58346140404E+01 -0.11519099928E+01  0.69573013480E+01  0.91527951982E+01  0.51100000000E-03 0.  1.
         12    1    3    3    0    0  0.19702521011E+02  0.29060161565E+01  0.28732189519E+02  0.34959590654E+02  0.00000000000E+00 0. -1.
</event>
<event>
 7    1  0.1541902E-008  0.4614232E+02  0.7816164E-02  0.1320468E+00
        -11   -1    0    0    0    0  0.00000000000E+00  0.00000000000E+00  0.45593999997E+02  0.45594000000E+02  0.51100000000E-03 0. -1.
         11   -1    0    0    0    0 -0.00000000000E+00 -0.00000000000E+00 -0.45593999997E+02  0.45594000000E+02  0.51100000000E-03 0.  1.
    9900012    2    1    2    0    0  0.27810128080E+02 -0.31393944354E+02 -0.16435646689E+02  0.46142318209E+02  0.10000004087E+02 0.  0.
         12    1    1    2    0    0 -0.27810128080E+02  0.31393944354E+02  0.16435646689E+02  0.45045681791E+02  0.00000000000E+00 0. -1.
         11    1    3    3    0    0  0.57761920108E+01 -0.49151034898E+01 -0.21905915070E+01  0.78943858452E+01  0.51100000000E-03 0. -1.
        -11    1    3    3    0    0  0.15085910400E+02 -0.23178369287E+02 -0.96653981431E+01  0.29295757661E+02  0.51100000000E-03 0.  1.
        -12    1    3    3    0    0  0.69480256684E+01 -0.33004715771E+01 -0.45796570390E+01  0.89521747031E+01  0.00000000000E+00 0.  1.
</event>
<event>
 7    1  0.1541902E-008  0.4614232E+02  0.7816164E-02  0.1320468E+00
        -11   -1    0    0    0    0  0.00000000000E+00  0.00000000000E+00  0.45593999997E+02  0.45594000000E+02  0.51100000000E-03 0.  1.
         11   -1    0    0    0    0 -0.00000000000E+00 -0.00000000000E+00 -0.45593999997E+02  0.45594000000E+02  0.51100000000E-03 0. -1.
    9900012    2    1    2    0    0 -0.29087891337E+02  0.54609153956E+01  0.33958599640E+02  0.46142317533E+02  0.99999979240E+01 0.  0.
         12    1    1    2    0    0  0.29087891337E+02 -0.54609153956E+01 -0.33958599640E+02  0.45045682467E+02  0.00000000000E+00 0. -1.
         11    1    3    3    0    0 -0.15445171305E+02 -0.58708926452E+00  0.20116900701E+02  0.25369030027E+02  0.51100000000E-03 0. -1.
        -11    1    3    3    0    0 -0.93435646228E+01  0.59623141062E+01  0.88403140489E+01  0.14177536532E+02  0.51100000000E-03 0.  1.
        -12    1    3    3    0    0 -0.42991554096E+01  0.85690553909E-01  0.50013848899E+01  0.65957509749E+01  0.00000000000E+00 0.  1.
</event>
<event>
 7    1  0.1541902E-008  0.4614232E+02  0.7816164E-02  0.1320468E+00
        -11   -1    0    0    0    0  0.00000000000E+00  0.00000000000E+00  0.45593999997E+02  0.45594000000E+02  0.51100000000E-03 0.  1.
         11   -1    0    0    0    0 -0.00000000000E+00 -0.00000000000E+00 -0.45593999997E+02  0.45594000000E+02  0.51100000000E-03 0. -1.
    9900012    2    1    2    0    0  0.21503434536E+01 -0.36417048584E+02  0.26425141462E+02  0.46142317567E+02  0.99999982344E+01 0.  0.
         12    1    1    2    0    0 -0.21503434536E+01  0.36417048584E+02 -0.26425141462E+02  0.45045682433E+02  0.00000000000E+00 0. -1.
         11    1    3    3    0    0 -0.35602151152E+00 -0.52510971682E+00  0.13983853900E+01  0.15355694355E+01  0.51100000000E-03 0. -1.
        -11    1    3    3    0    0  0.35550916124E+01 -0.10587797636E+02  0.46370695146E+01  0.12093078561E+02  0.51100000000E-03 0.  1.
        -12    1    3    3    0    0 -0.10487266473E+01 -0.25304141231E+02  0.20389686558E+02  0.32513669570E+02  0.00000000000E+00 0.  1.
</event>
<event>
 7    1  0.1541902E-008  0.4614232E+02  0.7816164E-02  0.1320468E+00
        -11   -1    0    0    0    0  0.00000000000E+00  0.00000000000E+00  0.45593999997E+02  0.45594000000E+02  0.51100000000E-03 0. -1.
         11   -1    0    0    0    0 -0.00000000000E+00 -0.00000000000E+00 -0.45593999997E+02  0.45594000000E+02  0.51100000000E-03 0.  1.
    9900012    2    1    2    0    0 -0.46688476263E+01 -0.38197842977E+02  0.23414526987E+02  0.46142318517E+02  0.10000006893E+02 0.  0.
         12    1    1    2    0    0  0.46688476263E+01  0.38197842977E+02 -0.23414526987E+02  0.45045681483E+02  0.00000000000E+00 0. -1.
         11    1    3    3    0    0 -0.59129671035E+01 -0.17968060097E+02  0.11752301446E+02  0.22269507250E+02  0.51100000000E-03 0.  1.
        -11    1    3    3    0    0  0.30066908753E+01 -0.13365116682E+02  0.84123653364E+01  0.16075895768E+02  0.51100000000E-03 0. -1.
         12    1    3    3    0    0 -0.17625713981E+01 -0.68646661980E+01  0.32498602042E+01  0.77969154985E+01  0.00000000000E+00 0. -1.
</event>
<event>
 7    1  0.1541902E-008  0.4614232E+02  0.7816164E-02  0.1320468E+00
        -11   -1    0    0    0    0  0.00000000000E+00  0.00000000000E+00  0.45593999997E+02  0.45594000000E+02  0.51100000000E-03 0.  1.
         11   -1    0    0    0    0 -0.00000000000E+00 -0.00000000000E+00 -0.45593999997E+02  0.45594000000E+02  0.51100000000E-03 0. -1.
    9900012    2    1    2    0    0 -0.17188582825E+02 -0.11416466296E+02  0.40041608415E+02  0.46142317780E+02  0.10000000172E+02 0.  0.
         12    1    1    2    0    0  0.17188582825E+02  0.11416466296E+02 -0.40041608415E+02  0.45045682220E+02  0.00000000000E+00 0. -1.
         11    1    3    3    0    0 -0.12048766039E+02 -0.12158098979E+02  0.34576644841E+02  0.38581556508E+02  0.51100000000E-03 0. -1.
        -11    1    3    3    0    0 -0.77300124784E+00  0.30355125068E+00  0.74467893705E+00  0.11154466690E+01  0.51100000000E-03 0.  1.
         12    1    3    3    0    0 -0.43668155375E+01  0.43808143197E+00  0.47202846366E+01  0.64453146029E+01  0.00000000000E+00 0. -1.
</event>
<event>
 7    1  0.1541902E-008  0.4614232E+02  0.7816164E-02  0.1320468E+00
        -11   -1    0    0    0    0  0.00000000000E+00  0.00000000000E+00  0.45593999997E+02  0.45594000000E+02  0.51100000000E-03 0.  1.
         11   -1    0    0    0    0 -0.00000000000E+00 -0.00000000000E+00 -0.45593999997E+02  0.45594000000E+02  0.51100000000E-03 0. -1.
    9900012    2    1    2    0    0 -0.26628869443E+02 -0.26050554634E+02 -0.25325588459E+02  0.46142317462E+02  0.99999972697E+01 0.  0.
         12    1    1    2    0    0  0.26628869443E+02  0.26050554634E+02  0.25325588459E+02  0.45045682538E+02  0.00000000000E+00 0. -1.
         11    1    3    3    0    0 -0.37375487074E+01 -0.65141870484E+01 -0.94084917281E+01  0.12038422658E+02  0.51100000000E-03 0. -1.
        -11    1    3    3    0    0 -0.69382361360E+01 -0.60106199217E+01 -0.38249018219E+01  0.99446742898E+01  0.51100000000E-03 0.  1.
         12    1    3    3    0    0 -0.15953084599E+02 -0.13525747664E+02 -0.12092194909E+02  0.24159220514E+02  0.00000000000E+00 0. -1.
</event>
<event>
 7    1  0.1541902E-008  0.4614232E+02  0.7816164E-02  0.1320468E+00
        -11   -1    0    0    0    0  0.00000000000E+00  0.00000000000E+00  0.45593999997E+02  0.45594000000E+02  0.51100000000E-03 0.  1.
         11   -1    0    0    0    0 -0.00000000000E+00 -0.00000000000E+00 -0.45593999997E+02  0.45594000000E+02  0.51100000000E-03 0. -1.
    9900012    2    1    2    0    0 -0.29168604342E+02  0.27579452365E+02  0.20437212743E+02  0.46142319445E+02  0.10000015352E+02 0.  0.
         12    1    1    2    0    0  0.29168604342E+02 -0.27579452365E+02 -0.20437212743E+02  0.45045680555E+02  0.00000000000E+00 0. -1.
         11    1    3    3    0    0 -0.16726108000E+02  0.13427351503E+02  0.81023564016E+01  0.22928249753E+02  0.51100000000E-03 0. -1.
        -11    1    3    3    0    0 -0.81316613541E+01  0.12311544677E+02  0.10789014252E+02  0.18278426560E+02  0.51100000000E-03 0.  1.
        -12    1    3    3    0    0 -0.43108349877E+01  0.18405561848E+01  0.15458420893E+01  0.49356431319E+01  0.00000000000E+00 0.  1.
</event>
<event>
 7    1  0.1541902E-008  0.4614232E+02  0.7816164E-02  0.1320468E+00
        -11   -1    0    0    0    0  0.00000000000E+00  0.00000000000E+00  0.45593999997E+02  0.45594000000E+02  0.51100000000E-03 0.  1.
         11   -1    0    0    0    0 -0.00000000000E+00 -0.00000000000E+00 -0.45593999997E+02  0.45594000000E+02  0.51100000000E-03 0. -1.
    9900012    2    1    2    0    0 -0.37941500974E+02  0.23677631617E+02  0.53782657000E+01  0.46142317886E+02  0.10000001140E+02 0.  0.
         12    1    1    2    0    0  0.37941500974E+02 -0.23677631617E+02 -0.53782657000E+01  0.45045682114E+02  0.00000000000E+00 0. -1.
         11    1    3    3    0    0 -0.47256581793E+01  0.54251473252E+01  0.31321204016E+01  0.78469259713E+01  0.51100000000E-03 0. -1.
        -11    1    3    3    0    0 -0.11720721265E+02  0.88214486781E+01 -0.39084010988E+00  0.14674672739E+02  0.51100000000E-03 0.  1.
         12    1    3    3    0    0 -0.21495121529E+02  0.94310356142E+01  0.26369854083E+01  0.23620719175E+02  0.00000000000E+00 0. -1.
</event>
<event>
 7    1  0.1541902E-008  0.4614232E+02  0.7816164E-02  0.1320468E+00
        -11   -1    0    0    0    0  0.00000000000E+00  0.00000000000E+00  0.45593999997E+02  0.45594000000E+02  0.51100000000E-03 0.  1.
         11   -1    0    0    0    0 -0.00000000000E+00 -0.00000000000E+00 -0.45593999997E+02  0.45594000000E+02  0.51100000000E-03 0. -1.
    9900012    2    1    2    0    0  0.13498088738E+02  0.13230293485E+02  0.40888560382E+02  0.46142318349E+02  0.10000005364E+02 0.  0.
         12    1    1    2    0    0 -0.13498088738E+02 -0.13230293485E+02 -0.40888560382E+02  0.45045681651E+02  0.00000000000E+00 0. -1.
         11    1    3    3    0    0  0.70090704431E+01  0.10356642730E+02  0.25127210015E+02  0.28067130250E+02  0.51100000000E-03 0. -1.
        -11    1    3    3    0    0  0.54068594276E+01  0.43892434212E+01  0.12931974074E+02  0.14687938603E+02  0.51100000000E-03 0.  1.
         12    1    3    3    0    0  0.10821588674E+01 -0.15155926659E+01  0.28293762932E+01  0.33872494965E+01  0.00000000000E+00 0. -1.
</event>
<event>
 7    1  0.1541902E-008  0.4614232E+02  0.7816164E-02  0.1320468E+00
        -11   -1    0    0    0    0  0.00000000000E+00  0.00000000000E+00  0.45593999997E+02  0.45594000000E+02  0.51100000000E-03 0.  1.
         11   -1    0    0    0    0 -0.00000000000E+00 -0.00000000000E+00 -0.45593999997E+02  0.45594000000E+02  0.51100000000E-03 0. -1.
    9900012    2    1    2    0    0  0.66516129664E+01 -0.12830181569E+02  0.42664458241E+02  0.46142317508E+02  0.99999976961E+01 0.  0.
         12    1    1    2    0    0 -0.66516129664E+01  0.12830181569E+02 -0.42664458241E+02  0.45045682492E+02  0.00000000000E+00 0. -1.
         11    1    3    3    0    0  0.23199366556E+00 -0.27098056530E+01  0.41215669688E+01  0.49380342523E+01  0.51100000000E-03 0. -1.
        -11    1    3    3    0    0  0.76974651268E+01 -0.90346264538E+01  0.26390147216E+02  0.28936401208E+02  0.51100000000E-03 0.  1.
        -12    1    3    3    0    0 -0.12778458259E+01 -0.10857494619E+01  0.12152744056E+02  0.12267882048E+02  0.00000000000E+00 0.  1.
</event>
<event>
 7    1  0.1541902E-008  0.4614231E+02  0.7816164E-02  0.1320468E+00
        -11   -1    0    0    0    0  0.00000000000E+00  0.00000000000E+00  0.45593999997E+02  0.45594000000E+02  0.51100000000E-03 0.  1.
         11   -1    0    0    0    0 -0.00000000000E+00 -0.00000000000E+00 -0.45593999997E+02  0.45594000000E+02  0.51100000000E-03 0. -1.
    9900012    2    1    2    0    0 -0.36417562560E+02  0.94810393202E+01  0.24758543988E+02  0.46142306867E+02  0.99999006601E+01 0.  0.
         12    1    1    2    0    0  0.36417562560E+02 -0.94810393202E+01 -0.24758543988E+02  0.45045693133E+02  0.00000000000E+00 0. -1.
         11    1    3    3    0    0 -0.92883887756E+01  0.39531821363E+01  0.71646276758E+01  0.12378760239E+02  0.51100000000E-03 0. -1.
        -11    1    3    3    0    0 -0.14445527909E+02 -0.11089583838E+01  0.83223034259E+01  0.16708195589E+02  0.51100000000E-03 0.  1.
        -12    1    3    3    0    0 -0.12683645876E+02  0.66368155676E+01  0.92716128860E+01  0.17055351040E+02  0.00000000000E+00 0.  1.
</event>
<event>
 7    1  0.1541902E-008  0.4614232E+02  0.7816164E-02  0.1320468E+00
        -11   -1    0    0    0    0  0.00000000000E+00  0.00000000000E+00  0.45593999997E+02  0.45594000000E+02  0.51100000000E-03 0.  1.
         11   -1    0    0    0    0 -0.00000000000E+00 -0.00000000000E+00 -0.45593999997E+02  0.45594000000E+02  0.51100000000E-03 0. -1.
    9900012    2    1    2    0    0 -0.39434175276E+00 -0.29495121122E+02  0.34044026512E+02  0.46142318558E+02  0.10000007264E+02 0.  0.
         12    1    1    2    0    0  0.39434175276E+00  0.29495121122E+02 -0.34044026512E+02  0.45045681442E+02  0.00000000000E+00 0. -1.
         11    1    3    3    0    0  0.25894118796E+01 -0.71490023382E+01  0.13251694789E+02  0.15278111904E+02  0.51100000000E-03 0. -1.
        -11    1    3    3    0    0 -0.43075488513E+00 -0.14367925100E+02  0.12057005539E+02  0.18761508582E+02  0.51100000000E-03 0.  1.
         12    1    3    3    0    0 -0.25529987472E+01 -0.79781936836E+01  0.87353261844E+01  0.12102698071E+02  0.00000000000E+00 0. -1.
</event>
<event>
 7    1  0.1541902E-008  0.4614232E+02  0.7816164E-02  0.1320468E+00
        -11   -1    0    0    0    0  0.00000000000E+00  0.00000000000E+00  0.45593999997E+02  0.45594000000E+02  0.51100000000E-03 0.  1.
         11   -1    0    0    0    0 -0.00000000000E+00 -0.00000000000E+00 -0.45593999997E+02  0.45594000000E+02  0.51100000000E-03 0. -1.
    9900012    2    1    2    0    0  0.52658033587E+01  0.22751022937E+02  0.38519810781E+02  0.46142317052E+02  0.99999935320E+01 0.  0.
         12    1    1    2    0    0 -0.52658033587E+01 -0.22751022937E+02 -0.38519810781E+02  0.45045682948E+02  0.00000000000E+00 0. -1.
         11    1    3    3    0    0  0.13677948655E-01  0.48442785030E+01  0.23507882339E+01  0.53845544739E+01  0.51100000000E-03 0. -1.
        -11    1    3    3    0    0  0.33232016296E+01  0.14001678157E+02  0.28874604218E+02  0.32261950178E+02  0.51100000000E-03 0.  1.
         12    1    3    3    0    0  0.19289237805E+01  0.39050662772E+01  0.72944183284E+01  0.84958123997E+01  0.00000000000E+00 0. -1.
</event>
<event>
 7    1  0.1541902E-008  0.4614232E+02  0.7816164E-02  0.1320468E+00
        -11   -1    0    0    0    0  0.00000000000E+00  0.00000000000E+00  0.45593999997E+02  0.45594000000E+02  0.51100000000E-03 0.  1.
         11   -1    0    0    0    0 -0.00000000000E+00 -0.00000000000E+00 -0.45593999997E+02  0.45594000000E+02  0.51100000000E-03 0. -1.
    9900012    2    1    2    0    0 -0.21361074334E+02  0.39377957396E+02 -0.47111103197E+01  0.46142316679E+02  0.99999901370E+01 0.  0.
         12    1    1    2    0    0  0.21361074334E+02 -0.39377957396E+02  0.47111103197E+01  0.45045683321E+02  0.00000000000E+00 0. -1.
         11    1    3    3    0    0 -0.47256568472E+00 -0.34051622865E+00  0.25263998651E+00  0.63489908824E+00  0.51100000000E-03 0. -1.
        -11    1    3    3    0    0 -0.11632121575E+02  0.24850069922E+02 -0.54002290665E+00  0.27443102093E+02  0.51100000000E-03 0.  1.
         12    1    3    3    0    0 -0.92563870744E+01  0.14868403702E+02 -0.44237273996E+01  0.18064315498E+02  0.00000000000E+00 0. -1.
</event>
<event>
 7    1  0.1541902E-008  0.4614232E+02  0.7816164E-02  0.1320468E+00
        -11   -1    0    0    0    0  0.00000000000E+00  0.00000000000E+00  0.45593999997E+02  0.45594000000E+02  0.51100000000E-03 0.  1.
         11   -1    0    0    0    0 -0.00000000000E+00 -0.00000000000E+00 -0.45593999997E+02  0.45594000000E+02  0.51100000000E-03 0. -1.
    9900012    2    1    2    0    0 -0.22239805685E+02 -0.46077929978E+01  0.38900808282E+02  0.46142316542E+02  0.99999888812E+01 0.  0.
         12    1    1    2    0    0  0.22239805685E+02  0.46077929978E+01 -0.38900808282E+02  0.45045683458E+02  0.00000000000E+00 0. -1.
         11    1    3    3    0    0 -0.29099899702E+01  0.12861232312E+01  0.17346132067E+01  0.36236773905E+01  0.51100000000E-03 0. -1.
        -11    1    3    3    0    0 -0.18130065095E+02 -0.50866771499E+01  0.31761037649E+02  0.36923394448E+02  0.51100000000E-03 0.  1.
        -12    1    3    3    0    0 -0.11997506191E+01 -0.80723907912E+00  0.54051574266E+01  0.55952447029E+01  0.00000000000E+00 0.  1.
</event>
<event>
 7    1  0.1541902E-008  0.4614232E+02  0.7816164E-02  0.1320468E+00
        -11   -1    0    0    0    0  0.00000000000E+00  0.00000000000E+00  0.45593999997E+02  0.45594000000E+02  0.51100000000E-03 0. -1.
         11   -1    0    0    0    0 -0.00000000000E+00 -0.00000000000E+00 -0.45593999997E+02  0.45594000000E+02  0.51100000000E-03 0.  1.
    9900012    2    1    2    0    0 -0.11407812680E+02  0.35768913262E+02 -0.24890964137E+02  0.46142318279E+02  0.10000004721E+02 0.  0.
         12    1    1    2    0    0  0.11407812680E+02 -0.35768913262E+02  0.24890964137E+02  0.45045681721E+02  0.00000000000E+00 0. -1.
         11    1    3    3    0    0  0.82047616727E+00  0.23335891155E+01 -0.42390137056E+01  0.49079585123E+01  0.51100000000E-03 0. -1.
        -11    1    3    3    0    0 -0.47440554817E+01  0.10559703036E+02 -0.76821797961E+01  0.13893497662E+02  0.51100000000E-03 0.  1.
         12    1    3    3    0    0 -0.74842333654E+01  0.22875621111E+02 -0.12969770635E+02  0.27340862104E+02  0.00000000000E+00 0. -1.
</event>
<event>
 7    1  0.1541902E-008  0.4614232E+02  0.7816164E-02  0.1320468E+00
        -11   -1    0    0    0    0  0.00000000000E+00  0.00000000000E+00  0.45593999997E+02  0.45594000000E+02  0.51100000000E-03 0.  1.
         11   -1    0    0    0    0 -0.00000000000E+00 -0.00000000000E+00 -0.45593999997E+02  0.45594000000E+02  0.51100000000E-03 0. -1.
    9900012    2    1    2    0    0 -0.19684173753E+02  0.71483688461E+01  0.39881669779E+02  0.46142318100E+02  0.10000003087E+02 0.  0.
         12    1    1    2    0    0  0.19684173753E+02 -0.71483688461E+01 -0.39881669779E+02  0.45045681900E+02  0.00000000000E+00 0. -1.
         11    1    3    3    0    0 -0.13869142849E+02  0.39563088659E+01  0.25043786478E+02  0.28899770667E+02  0.51100000000E-03 0.  1.
        -11    1    3    3    0    0 -0.31987617072E+01  0.11104202897E+01  0.19063018057E+01  0.38857555912E+01  0.51100000000E-03 0. -1.
         12    1    3    3    0    0 -0.26162691963E+01  0.20816396905E+01  0.12931581496E+02  0.13356791841E+02  0.00000000000E+00 0. -1.
</event>
<event>
 7    1  0.1541902E-008  0.4614232E+02  0.7816164E-02  0.1320468E+00
        -11   -1    0    0    0    0  0.00000000000E+00  0.00000000000E+00  0.45593999997E+02  0.45594000000E+02  0.51100000000E-03 0. -1.
         11   -1    0    0    0    0 -0.00000000000E+00 -0.00000000000E+00 -0.45593999997E+02  0.45594000000E+02  0.51100000000E-03 0.  1.
    9900012    2    1    2    0    0  0.11651527174E+02 -0.26160962450E+02 -0.34770093579E+02  0.46142318195E+02  0.10000003955E+02 0.  0.
         12    1    1    2    0    0 -0.11651527174E+02  0.26160962450E+02  0.34770093579E+02  0.45045681805E+02  0.00000000000E+00 0. -1.
         11    1    3    3    0    0  0.12825048575E+00 -0.36539315610E+01 -0.33765360847E+01  0.49768122561E+01  0.51100000000E-03 0. -1.
        -11    1    3    3    0    0  0.49544600901E+01 -0.10395197090E+02 -0.80200163841E+01  0.14033084493E+02  0.51100000000E-03 0.  1.
        -12    1    3    3    0    0  0.65688165984E+01 -0.12111833799E+02 -0.23373541110E+02  0.27132421445E+02  0.00000000000E+00 0.  1.
</event>
<event>
 7    1  0.1541902E-008  0.4614232E+02  0.7816164E-02  0.1320468E+00
        -11   -1    0    0    0    0  0.00000000000E+00  0.00000000000E+00  0.45593999997E+02  0.45594000000E+02  0.51100000000E-03 0. -1.
         11   -1    0    0    0    0 -0.00000000000E+00 -0.00000000000E+00 -0.45593999997E+02  0.45594000000E+02  0.51100000000E-03 0.  1.
    9900012    2    1    2    0    0 -0.33427381736E+02  0.14215890649E+02 -0.26638921017E+02  0.46142317526E+02  0.99999978532E+01 0.  0.
         12    1    1    2    0    0  0.33427381736E+02 -0.14215890649E+02  0.26638921017E+02  0.45045682474E+02  0.00000000000E+00 0. -1.
         11    1    3    3    0    0 -0.28760896732E+01  0.13076713233E+01 -0.95638818416E+00  0.33009960191E+01  0.51100000000E-03 0. -1.
        -11    1    3    3    0    0 -0.87170363470E+01  0.16234849959E+01 -0.11302777508E+02  0.14365765064E+02  0.51100000000E-03 0.  1.
        -12    1    3    3    0    0 -0.21834255715E+02  0.11284734330E+02 -0.14379755324E+02  0.28475556443E+02  0.00000000000E+00 0.  1.
</event>
<event>
 7    1  0.1541902E-008  0.4614232E+02  0.7816164E-02  0.1320468E+00
        -11   -1    0    0    0    0  0.00000000000E+00  0.00000000000E+00  0.45593999997E+02  0.45594000000E+02  0.51100000000E-03 0.  1.
         11   -1    0    0    0    0 -0.00000000000E+00 -0.00000000000E+00 -0.45593999997E+02  0.45594000000E+02  0.51100000000E-03 0. -1.
    9900012    2    1    2    0    0  0.10135327226E+02  0.22942495196E+02  0.37416983692E+02  0.46142316384E+02  0.99999874427E+01 0.  0.
         12    1    1    2    0    0 -0.10135327226E+02 -0.22942495196E+02 -0.37416983692E+02  0.45045683616E+02  0.00000000000E+00 0. -1.
         11    1    3    3    0    0 -0.63208883587E+00  0.12032105816E+00  0.17663505462E+01  0.18798957329E+01  0.51100000000E-03 0. -1.
        -11    1    3    3    0    0  0.43083163290E+01  0.10425263098E+02  0.22003910769E+02  0.24726904166E+02  0.51100000000E-03 0.  1.
        -12    1    3    3    0    0  0.64590997332E+01  0.12396911040E+02  0.13646722377E+02  0.19535516485E+02  0.00000000000E+00 0.  1.
</event>
<event>
 7    1  0.1541902E-008  0.4614232E+02  0.7816164E-02  0.1320468E+00
        -11   -1    0    0    0    0  0.00000000000E+00  0.00000000000E+00  0.45593999997E+02  0.45594000000E+02  0.51100000000E-03 0.  1.
         11   -1    0    0    0    0 -0.00000000000E+00 -0.00000000000E+00 -0.45593999997E+02  0.45594000000E+02  0.51100000000E-03 0. -1.
    9900012    2    1    2    0    0  0.39964173045E+02  0.94864854664E+01  0.18492835204E+02  0.46142317770E+02  0.10000000080E+02 0.  0.
         12    1    1    2    0    0 -0.39964173045E+02 -0.94864854664E+01 -0.18492835204E+02  0.45045682230E+02  0.00000000000E+00 0. -1.
         11    1    3    3    0    0  0.78970474058E+01  0.36360274050E+01  0.13846762437E+01  0.88034868990E+01  0.51100000000E-03 0. -1.
        -11    1    3    3    0    0  0.17217825510E+02  0.12725675829E+01  0.61617623866E+01  0.18331400915E+02  0.51100000000E-03 0.  1.
         12    1    3    3    0    0  0.14849300129E+02  0.45778904786E+01  0.10946396574E+02  0.19007429955E+02  0.00000000000E+00 0. -1.
</event>
<event>
 7    1  0.1541902E-008  0.4614232E+02  0.7816164E-02  0.1320468E+00
        -11   -1    0    0    0    0  0.00000000000E+00  0.00000000000E+00  0.45593999997E+02  0.45594000000E+02  0.51100000000E-03 0.  1.
         11   -1    0    0    0    0 -0.00000000000E+00 -0.00000000000E+00 -0.45593999997E+02  0.45594000000E+02  0.51100000000E-03 0. -1.
    9900012    2    1    2    0    0  0.19925673554E+02  0.21296692401E+02  0.34329753230E+02  0.46142317292E+02  0.99999957230E+01 0.  0.
         12    1    1    2    0    0 -0.19925673554E+02 -0.21296692401E+02 -0.34329753230E+02  0.45045682708E+02  0.00000000000E+00 0. -1.
         11    1    3    3    0    0  0.14747491161E+02  0.10225372224E+02  0.23157717539E+02  0.29297211720E+02  0.51100000000E-03 0. -1.
        -11    1    3    3    0    0  0.24580406121E+00  0.15635749416E+01  0.29295252239E+01  0.33297604318E+01  0.51100000000E-03 0.  1.
         12    1    3    3    0    0  0.49323783315E+01  0.95077452360E+01  0.82425104665E+01  0.13515345141E+02  0.00000000000E+00 0. -1.
</event>
<event>
 7    1  0.1541902E-008  0.4614232E+02  0.7816164E-02  0.1320468E+00
        -11   -1    0    0    0    0  0.00000000000E+00  0.00000000000E+00  0.45593999997E+02  0.45594000000E+02  0.51100000000E-03 0. -1.
         11   -1    0    0    0    0 -0.00000000000E+00 -0.00000000000E+00 -0.45593999997E+02  0.45594000000E+02  0.51100000000E-03 0.  1.
    9900012    2    1    2    0    0 -0.32474775557E+02  0.30664124177E+02 -0.58492685860E+01  0.46142317610E+02  0.99999986187E+01 0.  0.
         12    1    1    2    0    0  0.32474775557E+02 -0.30664124177E+02  0.58492685860E+01  0.45045682390E+02  0.00000000000E+00 0. -1.
         11    1    3    3    0    0 -0.99353098884E+01  0.92177911284E+01 -0.54532309381E+01  0.14608757093E+02  0.51100000000E-03 0. -1.
        -11    1    3    3    0    0 -0.28341888140E+01  0.54551657875E+01 -0.32384514045E+00  0.61559999950E+01  0.51100000000E-03 0.  1.
         12    1    3    3    0    0 -0.19705276855E+02  0.15991167261E+02 -0.72192507428E-01  0.25377560522E+02  0.00000000000E+00 0. -1.
</event>
<event>
 7    1  0.1541902E-008  0.4614232E+02  0.7816164E-02  0.1320468E+00
        -11   -1    0    0    0    0  0.00000000000E+00  0.00000000000E+00  0.45593999997E+02  0.45594000000E+02  0.51100000000E-03 0.  1.
         11   -1    0    0    0    0 -0.00000000000E+00 -0.00000000000E+00 -0.45593999997E+02  0.45594000000E+02  0.51100000000E-03 0. -1.
    9900012    2    1    2    0    0  0.35103206690E+02 -0.14786743095E+02  0.24046422999E+02  0.46142319293E+02  0.10000013972E+02 0.  0.
         12    1    1    2    0    0 -0.35103206690E+02  0.14786743095E+02 -0.24046422999E+02  0.45045680707E+02  0.00000000000E+00 0. -1.
         11    1    3    3    0    0 -0.10805972317E+00  0.72228054047E+00  0.60748669789E+00  0.94995075248E+00  0.51100000000E-03 0. -1.
        -11    1    3    3    0    0  0.15704180114E+02 -0.51180877586E+01  0.93109241054E+01  0.18960733196E+02  0.51100000000E-03 0.  1.
         12    1    3    3    0    0  0.19507086299E+02 -0.10390935877E+02  0.14128012196E+02  0.26231635345E+02  0.00000000000E+00 0. -1.
</event>
<event>
 7    1  0.1541902E-008  0.4614232E+02  0.7816164E-02  0.1320468E+00
        -11   -1    0    0    0    0  0.00000000000E+00  0.00000000000E+00  0.45593999997E+02  0.45594000000E+02  0.51100000000E-03 0. -1.
         11   -1    0    0    0    0 -0.00000000000E+00 -0.00000000000E+00 -0.45593999997E+02  0.45594000000E+02  0.51100000000E-03 0.  1.
    9900012    2    1    2    0    0 -0.13752074932E+02 -0.37112388832E+02  0.21509638459E+02  0.46142317450E+02  0.99999971649E+01 0.  0.
         12    1    1    2    0    0  0.13752074932E+02  0.37112388832E+02 -0.21509638459E+02  0.45045682550E+02  0.00000000000E+00 0. -1.
         11    1    3    3    0    0 -0.14564141524E+01 -0.36461289130E+01  0.44666381425E+01  0.59469534041E+01  0.51100000000E-03 0. -1.
        -11    1    3    3    0    0  0.45035088783E+00 -0.44739693078E+01  0.68026682347E+00  0.45477445511E+01  0.51100000000E-03 0.  1.
        -12    1    3    3    0    0 -0.12746011667E+02 -0.28992290611E+02  0.16362733493E+02  0.35647619495E+02  0.00000000000E+00 0.  1.
</event>
<event>
 7    1  0.1541902E-008  0.4614232E+02  0.7816164E-02  0.1320468E+00
        -11   -1    0    0    0    0  0.00000000000E+00  0.00000000000E+00  0.45593999997E+02  0.45594000000E+02  0.51100000000E-03 0.  1.
         11   -1    0    0    0    0 -0.00000000000E+00 -0.00000000000E+00 -0.45593999997E+02  0.45594000000E+02  0.51100000000E-03 0. -1.
    9900012    2    1    2    0    0  0.42969600570E+01  0.20578448753E+02  0.39839393046E+02  0.46142315888E+02  0.99999829211E+01 0.  0.
         12    1    1    2    0    0 -0.42969600570E+01 -0.20578448753E+02 -0.39839393046E+02  0.45045684112E+02  0.00000000000E+00 0. -1.
         11    1    3    3    0    0  0.12022968350E+01  0.16210089342E+02  0.32584646040E+02  0.36413893941E+02  0.51100000000E-03 0. -1.
        -11    1    3    3    0    0  0.59105758605E+00  0.56856088076E+00 -0.32946498378E+00  0.88383142160E+00  0.51100000000E-03 0.  1.
        -12    1    3    3    0    0  0.25036056359E+01  0.37997985303E+01  0.75842119900E+01  0.88445905253E+01  0.00000000000E+00 0.  1.
</event>
<event>
 7    1  0.1541902E-008  0.4614232E+02  0.7816164E-02  0.1320468E+00
        -11   -1    0    0    0    0  0.00000000000E+00  0.00000000000E+00  0.45593999997E+02  0.45594000000E+02  0.51100000000E-03 0. -1.
         11   -1    0    0    0    0 -0.00000000000E+00 -0.00000000000E+00 -0.45593999997E+02  0.45594000000E+02  0.51100000000E-03 0.  1.
    9900012    2    1    2    0    0 -0.90042077865E+01 -0.27174331497E+02 -0.34779209564E+02  0.46142317987E+02  0.10000002057E+02 0.  0.
         12    1    1    2    0    0  0.90042077865E+01  0.27174331497E+02  0.34779209564E+02  0.45045682013E+02  0.00000000000E+00 0. -1.
         11    1    3    3    0    0  0.83608519195E+00 -0.30978635651E-01  0.10580975138E+00  0.84332324092E+00  0.51100000000E-03 0. -1.
        -11    1    3    3    0    0 -0.80264537396E+01 -0.23042616957E+02 -0.29940812411E+02  0.38624323993E+02  0.51100000000E-03 0.  1.
         12    1    3    3    0    0 -0.18138392388E+01 -0.41007359043E+01 -0.49442069044E+01  0.66746707525E+01  0.00000000000E+00 0. -1.
</event>
<event>
 7    1  0.1541902E-008  0.4614232E+02  0.7816164E-02  0.1320468E+00
        -11   -1    0    0    0    0  0.00000000000E+00  0.00000000000E+00  0.45593999997E+02  0.45594000000E+02  0.51100000000E-03 0. -1.
         11   -1    0    0    0    0 -0.00000000000E+00 -0.00000000000E+00 -0.45593999997E+02  0.45594000000E+02  0.51100000000E-03 0.  1.
    9900012    2    1    2    0    0  0.13551189828E+02 -0.31857053341E+02 -0.28820252214E+02  0.46142317288E+02  0.99999956868E+01 0.  0.
         12    1    1    2    0    0 -0.13551189828E+02  0.31857053341E+02  0.28820252214E+02  0.45045682712E+02  0.00000000000E+00 0. -1.
         11    1    3    3    0    0  0.58673251271E-01 -0.37949299118E+01 -0.19611814496E+01  0.42721386360E+01  0.51100000000E-03 0. -1.
        -11    1    3    3    0    0  0.81834419105E+01 -0.11977933530E+02 -0.81747487798E+01  0.16651310189E+02  0.51100000000E-03 0.  1.
        -12    1    3    3    0    0  0.53090746664E+01 -0.16084189899E+02 -0.18684321984E+02  0.25218868463E+02  0.00000000000E+00 0.  1.
</event>
<event>
 7    1  0.1541902E-008  0.4614232E+02  0.7816164E-02  0.1320468E+00
        -11   -1    0    0    0    0  0.00000000000E+00  0.00000000000E+00  0.45593999997E+02  0.45594000000E+02  0.51100000000E-03 0.  1.
         11   -1    0    0    0    0 -0.00000000000E+00 -0.00000000000E+00 -0.45593999997E+02  0.45594000000E+02  0.51100000000E-03 0. -1.
    9900012    2    1    2    0    0 -0.23085552214E+02  0.36198491377E+02  0.13632317333E+02  0.46142316801E+02  0.99999912408E+01 0.  0.
         12    1    1    2    0    0  0.23085552214E+02 -0.36198491377E+02 -0.13632317333E+02  0.45045683199E+02  0.00000000000E+00 0. -1.
         11    1    3    3    0    0 -0.55286594822E+01  0.35106238393E+01  0.11722625156E+01  0.66531763150E+01  0.51100000000E-03 0.  1.
        -11    1    3    3    0    0 -0.16273258658E+02  0.31187493476E+02  0.12895848289E+02  0.37467073545E+02  0.51100000000E-03 0. -1.
         12    1    3    3    0    0 -0.12836340742E+01  0.15003740616E+01 -0.43579347162E+00  0.20220669403E+01  0.00000000000E+00 0. -1.
</event>
<event>
 7    1  0.1541902E-008  0.4614232E+02  0.7816164E-02  0.1320468E+00
        -11   -1    0    0    0    0  0.00000000000E+00  0.00000000000E+00  0.45593999997E+02  0.45594000000E+02  0.51100000000E-03 0.  1.
         11   -1    0    0    0    0 -0.00000000000E+00 -0.00000000000E+00 -0.45593999997E+02  0.45594000000E+02  0.51100000000E-03 0. -1.
    9900012    2    1    2    0    0 -0.41588140596E+02 -0.15976130879E+02  0.66560709524E+01  0.46142317892E+02  0.10000001192E+02 0.  0.
         12    1    1    2    0    0  0.41588140596E+02  0.15976130879E+02 -0.66560709524E+01  0.45045682108E+02  0.00000000000E+00 0. -1.
         11    1    3    3    0    0 -0.56429380065E+01 -0.81121046452E+00  0.27353983415E+01  0.63232282981E+01  0.51100000000E-03 0. -1.
        -11    1    3    3    0    0 -0.11525853908E+02 -0.83478984791E+01  0.53987795496E+00  0.14241635643E+02  0.51100000000E-03 0.  1.
        -12    1    3    3    0    0 -0.24419348681E+02 -0.68170219349E+01  0.33807946560E+01  0.25577453950E+02  0.00000000000E+00 0.  1.
</event>
<event>
 7    1  0.1541902E-008  0.4614232E+02  0.7816164E-02  0.1320468E+00
        -11   -1    0    0    0    0  0.00000000000E+00  0.00000000000E+00  0.45593999997E+02  0.45594000000E+02  0.51100000000E-03 0. -1.
         11   -1    0    0    0    0 -0.00000000000E+00 -0.00000000000E+00 -0.45593999997E+02  0.45594000000E+02  0.51100000000E-03 0.  1.
    9900012    2    1    2    0    0  0.44336748306E+02 -0.74622891440E+01 -0.27714006400E+01  0.46142315733E+02  0.99999815050E+01 0.  0.
         12    1    1    2    0    0 -0.44336748306E+02  0.74622891440E+01  0.27714006400E+01  0.45045684267E+02  0.00000000000E+00 0. -1.
         11    1    3    3    0    0  0.82554968346E+01 -0.15605756601E+01  0.19035798722E+01  0.86146526900E+01  0.51100000000E-03 0. -1.
        -11    1    3    3    0    0  0.35096585554E+02 -0.52297051687E+01 -0.31955294138E+01  0.35627679438E+02  0.51100000000E-03 0.  1.
        -12    1    3    3    0    0  0.98466591741E+00 -0.67200831518E+00 -0.14794510985E+01  0.18999836045E+01  0.00000000000E+00 0.  1.
</event>
<event>
 7    1  0.1541902E-008  0.4614232E+02  0.7816164E-02  0.1320468E+00
        -11   -1    0    0    0    0  0.00000000000E+00  0.00000000000E+00  0.45593999997E+02  0.45594000000E+02  0.51100000000E-03 0.  1.
         11   -1    0    0    0    0 -0.00000000000E+00 -0.00000000000E+00 -0.45593999997E+02  0.45594000000E+02  0.51100000000E-03 0. -1.
    9900012    2    1    2    0    0  0.33665635818E+02  0.18943858281E+02  0.23170426136E+02  0.46142318199E+02  0.10000003997E+02 0.  0.
         12    1    1    2    0    0 -0.33665635818E+02 -0.18943858281E+02 -0.23170426136E+02  0.45045681801E+02  0.00000000000E+00 0. -1.
         11    1    3    3    0    0  0.66666229112E+01  0.33043589352E+01  0.46847976855E+00  0.74553418813E+01  0.51100000000E-03 0. -1.
        -11    1    3    3    0    0  0.12388743911E+02  0.55830307927E+01  0.99410493773E+01  0.16836735774E+02  0.51100000000E-03 0.  1.
        -12    1    3    3    0    0  0.14610268995E+02  0.10056468553E+02  0.12760896990E+02  0.21850240544E+02  0.00000000000E+00 0.  1.
</event>
<event>
 7    1  0.1541902E-008  0.4614232E+02  0.7816164E-02  0.1320468E+00
        -11   -1    0    0    0    0  0.00000000000E+00  0.00000000000E+00  0.45593999997E+02  0.45594000000E+02  0.51100000000E-03 0.  1.
         11   -1    0    0    0    0 -0.00000000000E+00 -0.00000000000E+00 -0.45593999997E+02  0.45594000000E+02  0.51100000000E-03 0. -1.
    9900012    2    1    2    0    0 -0.12594556408E+02  0.40714049040E+02  0.14589613797E+02  0.46142317952E+02  0.10000001745E+02 0.  0.
         12    1    1    2    0    0  0.12594556408E+02 -0.40714049040E+02 -0.14589613797E+02  0.45045682048E+02  0.00000000000E+00 0. -1.
         11    1    3    3    0    0 -0.18636317111E+00 -0.17384867067E+00  0.13375924715E+00  0.28783048684E+00  0.51100000000E-03 0. -1.
        -11    1    3    3    0    0 -0.43366366587E+01  0.11464137397E+02  0.80917483835E+01  0.14687043812E+02  0.51100000000E-03 0.  1.
        -12    1    3    3    0    0 -0.80715565784E+01  0.29423760314E+02  0.63641061665E+01  0.31167443654E+02  0.00000000000E+00 0.  1.
</event>
<event>
 7    1  0.1541902E-008  0.4614232E+02  0.7816164E-02  0.1320468E+00
        -11   -1    0    0    0    0  0.00000000000E+00  0.00000000000E+00  0.45593999997E+02  0.45594000000E+02  0.51100000000E-03 0.  1.
         11   -1    0    0    0    0 -0.00000000000E+00 -0.00000000000E+00 -0.45593999997E+02  0.45594000000E+02  0.51100000000E-03 0. -1.
    9900012    2    1    2    0    0 -0.37118958099E+02 -0.21437037307E+02  0.13847379080E+02  0.46142317341E+02  0.99999961669E+01 0.  0.
         12    1    1    2    0    0  0.37118958099E+02  0.21437037307E+02 -0.13847379080E+02  0.45045682659E+02  0.00000000000E+00 0. -1.
         11    1    3    3    0    0 -0.11399253644E+02 -0.46661243284E+01  0.33438667354E+01  0.12763116583E+02  0.51100000000E-03 0. -1.
        -11    1    3    3    0    0 -0.18372769306E+02 -0.82467578813E+01  0.88789152988E+01  0.22009152748E+02  0.51100000000E-03 0.  1.
        -12    1    3    3    0    0 -0.73469351487E+01 -0.85241550971E+01  0.16245970454E+01  0.11370048010E+02  0.00000000000E+00 0.  1.
</event>
<event>
 7    1  0.1541902E-008  0.4614232E+02  0.7816164E-02  0.1320468E+00
        -11   -1    0    0    0    0  0.00000000000E+00  0.00000000000E+00  0.45593999997E+02  0.45594000000E+02  0.51100000000E-03 0.  1.
         11   -1    0    0    0    0 -0.00000000000E+00 -0.00000000000E+00 -0.45593999997E+02  0.45594000000E+02  0.51100000000E-03 0. -1.
    9900012    2    1    2    0    0  0.26485862451E+02  0.23037707856E+02  0.28229002643E+02  0.46142317818E+02  0.10000000519E+02 0.  0.
         12    1    1    2    0    0 -0.26485862451E+02 -0.23037707856E+02 -0.28229002643E+02  0.45045682182E+02  0.00000000000E+00 0. -1.
         11    1    3    3    0    0 -0.70544723282E+00  0.81225864776E+00  0.94730959687E+00  0.14334628152E+01  0.51100000000E-03 0. -1.
        -11    1    3    3    0    0  0.82681236607E+01  0.83552160146E+01  0.11416158978E+02  0.16385975393E+02  0.51100000000E-03 0.  1.
        -12    1    3    3    0    0  0.18923186023E+02  0.13870233193E+02  0.15865534069E+02  0.28322879610E+02  0.00000000000E+00 0.  1.
</event>
<event>
 7    1  0.1541902E-008  0.4614232E+02  0.7816164E-02  0.1320468E+00
        -11   -1    0    0    0    0  0.00000000000E+00  0.00000000000E+00  0.45593999997E+02  0.45594000000E+02  0.51100000000E-03 0. -1.
         11   -1    0    0    0    0 -0.00000000000E+00 -0.00000000000E+00 -0.45593999997E+02  0.45594000000E+02  0.51100000000E-03 0.  1.
    9900012    2    1    2    0    0  0.54615039387E+01  0.42974763179E+00 -0.44711304682E+02  0.46142317913E+02  0.10000001384E+02 0.  0.
         12    1    1    2    0    0 -0.54615039387E+01 -0.42974763179E+00  0.44711304682E+02  0.45045682087E+02  0.00000000000E+00 0. -1.
         11    1    3    3    0    0  0.66837033075E+01 -0.17147730392E+01 -0.20819159028E+02  0.21932845674E+02  0.51100000000E-03 0. -1.
        -11    1    3    3    0    0 -0.54172361969E+00  0.26614850673E+01 -0.12828476833E+02  0.13112848103E+02  0.51100000000E-03 0.  1.
         12    1    3    3    0    0 -0.68047574902E+00 -0.51696439626E+00 -0.11063668821E+02  0.11096624136E+02  0.00000000000E+00 0. -1.
</event>
<event>
 7    1  0.1541902E-008  0.4614232E+02  0.7816164E-02  0.1320468E+00
        -11   -1    0    0    0    0  0.00000000000E+00  0.00000000000E+00  0.45593999997E+02  0.45594000000E+02  0.51100000000E-03 0.  1.
         11   -1    0    0    0    0 -0.00000000000E+00 -0.00000000000E+00 -0.45593999997E+02  0.45594000000E+02  0.51100000000E-03 0. -1.
    9900012    2    1    2    0    0 -0.42793861153E+02 -0.71366707041E+01  0.12118864251E+02  0.46142317722E+02  0.99999996458E+01 0.  0.
         12    1    1    2    0    0  0.42793861153E+02  0.71366707041E+01 -0.12118864251E+02  0.45045682278E+02  0.00000000000E+00 0. -1.
         11    1    3    3    0    0 -0.15104835106E+01 -0.23456641494E+01  0.88486141355E+00  0.29268892565E+01  0.51100000000E-03 0. -1.
        -11    1    3    3    0    0 -0.38373451685E+02 -0.48723288162E+01  0.95146479690E+01  0.39834531610E+02  0.51100000000E-03 0.  1.
        -12    1    3    3    0    0 -0.29099259572E+01  0.81322261481E-01  0.17193548686E+01  0.33808968560E+01  0.00000000000E+00 0.  1.
</event>
<event>
 7    1  0.1541902E-008  0.4614232E+02  0.7816164E-02  0.1320468E+00
        -11   -1    0    0    0    0  0.00000000000E+00  0.00000000000E+00  0.45593999997E+02  0.45594000000E+02  0.51100000000E-03 0. -1.
         11   -1    0    0    0    0 -0.00000000000E+00 -0.00000000000E+00 -0.45593999997E+02  0.45594000000E+02  0.51100000000E-03 0.  1.
    9900012    2    1    2    0    0 -0.30333522185E+02  0.33256309224E+02  0.17346009137E+01  0.46142317502E+02  0.99999976406E+01 0.  0.
         12    1    1    2    0    0  0.30333522185E+02 -0.33256309224E+02 -0.17346009137E+01  0.45045682498E+02  0.00000000000E+00 0. -1.
         11    1    3    3    0    0 -0.38277441996E+01  0.15285779519E+01  0.21017207483E+01  0.46265977324E+01  0.51100000000E-03 0. -1.
        -11    1    3    3    0    0 -0.25968276890E+02  0.31435713109E+02 -0.77271096231E+00  0.40781767320E+02  0.51100000000E-03 0.  1.
        -12    1    3    3    0    0 -0.53750109525E+00  0.29201816346E+00  0.40559112768E+00  0.73395244944E+00  0.00000000000E+00 0.  1.
</event>
<event>
 7    1  0.1541902E-008  0.4614232E+02  0.7816164E-02  0.1320468E+00
        -11   -1    0    0    0    0  0.00000000000E+00  0.00000000000E+00  0.45593999997E+02  0.45594000000E+02  0.51100000000E-03 0. -1.
         11   -1    0    0    0    0 -0.00000000000E+00 -0.00000000000E+00 -0.45593999997E+02  0.45594000000E+02  0.51100000000E-03 0.  1.
    9900012    2    1    2    0    0  0.25514821253E+02 -0.28565712320E+02 -0.23708801505E+02  0.46142319933E+02  0.10000019805E+02 0.  0.
         12    1    1    2    0    0 -0.25514821253E+02  0.28565712320E+02  0.23708801505E+02  0.45045680067E+02  0.00000000000E+00 0. -1.
         11    1    3    3    0    0  0.45402715083E+01 -0.61919928578E+01 -0.74657719834E+01  0.10709462754E+02  0.51100000000E-03 0. -1.
        -11    1    3    3    0    0  0.18168746419E+02 -0.19200021046E+02 -0.16547219545E+02  0.31185808143E+02  0.51100000000E-03 0.  1.
        -12    1    3    3    0    0  0.28058033256E+01 -0.31736984168E+01  0.30419002369E+00  0.42470490359E+01  0.00000000000E+00 0.  1.
</event>
<event>
 7    1  0.1541902E-008  0.4614232E+02  0.7816164E-02  0.1320468E+00
        -11   -1    0    0    0    0  0.00000000000E+00  0.00000000000E+00  0.45593999997E+02  0.45594000000E+02  0.51100000000E-03 0.  1.
         11   -1    0    0    0    0 -0.00000000000E+00 -0.00000000000E+00 -0.45593999997E+02  0.45594000000E+02  0.51100000000E-03 0. -1.
    9900012    2    1    2    0    0  0.27718041521E+02 -0.28063389951E+01  0.35397005181E+02  0.46142319407E+02  0.10000015009E+02 0.  0.
         12    1    1    2    0    0 -0.27718041521E+02  0.28063389951E+01 -0.35397005181E+02  0.45045680593E+02  0.00000000000E+00 0. -1.
         11    1    3    3    0    0  0.19230352503E+02 -0.46179501425E+01  0.18989316760E+02  0.27417623387E+02  0.51100000000E-03 0. -1.
        -11    1    3    3    0    0  0.78864103706E+01  0.18379747137E+01  0.16157046485E+02  0.18072735569E+02  0.51100000000E-03 0.  1.
         12    1    3    3    0    0  0.60127864739E+00 -0.26363566290E-01  0.25064193596E+00  0.65196045087E+00  0.00000000000E+00 0. -1.
</event>
<event>
 7    1  0.1541902E-008  0.4614232E+02  0.7816164E-02  0.1320468E+00
        -11   -1    0    0    0    0  0.00000000000E+00  0.00000000000E+00  0.45593999997E+02  0.45594000000E+02  0.51100000000E-03 0.  1.
         11   -1    0    0    0    0 -0.00000000000E+00 -0.00000000000E+00 -0.45593999997E+02  0.45594000000E+02  0.51100000000E-03 0. -1.
    9900012    2    1    2    0    0 -0.26752142722E+02  0.29985579539E+02  0.20354392175E+02  0.46142318727E+02  0.10000008812E+02 0.  0.
         12    1    1    2    0    0  0.26752142722E+02 -0.29985579539E+02 -0.20354392175E+02  0.45045681273E+02  0.00000000000E+00 0. -1.
         11    1    3    3    0    0 -0.17462215510E+01  0.63131420603E+01  0.18018278877E+01  0.67934995677E+01  0.51100000000E-03 0. -1.
        -11    1    3    3    0    0 -0.42025389277E+01  0.61397077197E+01  0.49036804840E+01  0.89108600523E+01  0.51100000000E-03 0.  1.
        -12    1    3    3    0    0 -0.20803382243E+02  0.17532729759E+02  0.13648883804E+02  0.30437959107E+02  0.00000000000E+00 0.  1.
</event>
<event>
 7    1  0.1541902E-008  0.4614232E+02  0.7816164E-02  0.1320468E+00
        -11   -1    0    0    0    0  0.00000000000E+00  0.00000000000E+00  0.45593999997E+02  0.45594000000E+02  0.51100000000E-03 0.  1.
         11   -1    0    0    0    0 -0.00000000000E+00 -0.00000000000E+00 -0.45593999997E+02  0.45594000000E+02  0.51100000000E-03 0. -1.
    9900012    2    1    2    0    0  0.28247187362E+02 -0.33953527196E+02  0.88525621217E+01  0.46142318086E+02  0.10000002967E+02 0.  0.
         12    1    1    2    0    0 -0.28247187362E+02  0.33953527196E+02 -0.88525621217E+01  0.45045681914E+02  0.00000000000E+00 0. -1.
         11    1    3    3    0    0  0.57342553036E+00 -0.10841703163E+01 -0.65806984206E+00  0.13918686331E+01  0.51100000000E-03 0.  1.
        -11    1    3    3    0    0  0.17834532059E+02 -0.25074912480E+02  0.94809088638E+01  0.32197972029E+02  0.51100000000E-03 0. -1.
        -12    1    3    3    0    0  0.98392297725E+01 -0.77944444001E+01  0.29723099993E-01  0.12552477424E+02  0.00000000000E+00 0.  1.
</event>
<event>
 7    1  0.1541902E-008  0.4614232E+02  0.7816164E-02  0.1320468E+00
        -11   -1    0    0    0    0  0.00000000000E+00  0.00000000000E+00  0.45593999997E+02  0.45594000000E+02  0.51100000000E-03 0.  1.
         11   -1    0    0    0    0 -0.00000000000E+00 -0.00000000000E+00 -0.45593999997E+02  0.45594000000E+02  0.51100000000E-03 0. -1.
    9900012    2    1    2    0    0  0.38184078213E+02 -0.19919116901E+02  0.13202971954E+02  0.46142317460E+02  0.99999972543E+01 0.  0.
         12    1    1    2    0    0 -0.38184078213E+02  0.19919116901E+02 -0.13202971954E+02  0.45045682540E+02  0.00000000000E+00 0. -1.
         11    1    3    3    0    0  0.99040696173E+01 -0.30355652602E+01  0.58120289470E+01  0.11877917838E+02  0.51100000000E-03 0. -1.
        -11    1    3    3    0    0  0.17485838479E+02 -0.89223069425E+01  0.17318156191E+01  0.19706884434E+02  0.51100000000E-03 0.  1.
        -12    1    3    3    0    0  0.10794170116E+02 -0.79612446983E+01  0.56591273878E+01  0.14557515188E+02  0.00000000000E+00 0.  1.
</event>
<event>
 7    1  0.1541902E-008  0.4614232E+02  0.7816164E-02  0.1320468E+00
        -11   -1    0    0    0    0  0.00000000000E+00  0.00000000000E+00  0.45593999997E+02  0.45594000000E+02  0.51100000000E-03 0. -1.
         11   -1    0    0    0    0 -0.00000000000E+00 -0.00000000000E+00 -0.45593999997E+02  0.45594000000E+02  0.51100000000E-03 0.  1.
    9900012    2    1    2    0    0  0.14327159855E+02  0.41918472585E+02  0.81662501823E+01  0.46142317683E+02  0.99999992836E+01 0.  0.
         12    1    1    2    0    0 -0.14327159855E+02 -0.41918472585E+02 -0.81662501823E+01  0.45045682317E+02  0.00000000000E+00 0. -1.
         11    1    3    3    0    0  0.10820907016E+02  0.33883822985E+02  0.73776147214E+01  0.36326776460E+02  0.51100000000E-03 0. -1.
        -11    1    3    3    0    0  0.38605316476E+01  0.75215592188E+01 -0.41005765898E+00  0.84643786085E+01  0.51100000000E-03 0.  1.
         12    1    3    3    0    0 -0.35427880862E+00  0.51309038152E+00  0.11986931199E+01  0.13511626140E+01  0.00000000000E+00 0. -1.
</event>
<event>
 7    1  0.1541902E-008  0.4614232E+02  0.7816164E-02  0.1320468E+00
        -11   -1    0    0    0    0  0.00000000000E+00  0.00000000000E+00  0.45593999997E+02  0.45594000000E+02  0.51100000000E-03 0.  1.
         11   -1    0    0    0    0 -0.00000000000E+00 -0.00000000000E+00 -0.45593999997E+02  0.45594000000E+02  0.51100000000E-03 0. -1.
    9900012    2    1    2    0    0 -0.16869847587E+02 -0.39718429174E+02  0.12921614443E+02  0.46142317704E+02  0.99999994813E+01 0.  0.
         12    1    1    2    0    0  0.16869847587E+02  0.39718429174E+02 -0.12921614443E+02  0.45045682296E+02  0.00000000000E+00 0. -1.
         11    1    3    3    0    0 -0.64521698295E+01 -0.14408705099E+02  0.43331318000E+01  0.16371234211E+02  0.51100000000E-03 0. -1.
        -11    1    3    3    0    0 -0.10268104346E+02 -0.25640174669E+02  0.91557420049E+01  0.29097768572E+02  0.51100000000E-03 0.  1.
        -12    1    3    3    0    0 -0.14957341114E+00  0.33045059338E+00 -0.56725936210E+00  0.67331492177E+00  0.00000000000E+00 0.  1.
</event>
<event>
 7    1  0.1541902E-008  0.4614232E+02  0.7816164E-02  0.1320468E+00
        -11   -1    0    0    0    0  0.00000000000E+00  0.00000000000E+00  0.45593999997E+02  0.45594000000E+02  0.51100000000E-03 0.  1.
         11   -1    0    0    0    0 -0.00000000000E+00 -0.00000000000E+00 -0.45593999997E+02  0.45594000000E+02  0.51100000000E-03 0. -1.
    9900012    2    1    2    0    0  0.24250073114E+02 -0.22504203913E+02  0.30571364910E+02  0.46142316608E+02  0.99999894830E+01 0.  0.
         12    1    1    2    0    0 -0.24250073114E+02  0.22504203913E+02 -0.30571364910E+02  0.45045683392E+02  0.00000000000E+00 0. -1.
         11    1    3    3    0    0  0.41648934339E+01 -0.49156639443E+01  0.76609251218E+01  0.10009988177E+02  0.51100000000E-03 0. -1.
        -11    1    3    3    0    0  0.16039078389E+02 -0.14614169503E+02  0.22230469849E+02  0.31064767435E+02  0.51100000000E-03 0.  1.
         12    1    3    3    0    0  0.40461012905E+01 -0.29743704655E+01  0.67996993979E+00  0.50675609951E+01  0.00000000000E+00 0. -1.
</event>
<event>
 7    1  0.1541902E-008  0.4614232E+02  0.7816164E-02  0.1320468E+00
        -11   -1    0    0    0    0  0.00000000000E+00  0.00000000000E+00  0.45593999997E+02  0.45594000000E+02  0.51100000000E-03 0. -1.
         11   -1    0    0    0    0 -0.00000000000E+00 -0.00000000000E+00 -0.45593999997E+02  0.45594000000E+02  0.51100000000E-03 0.  1.
    9900012    2    1    2    0    0  0.96665072363E+01  0.47753401488E+01 -0.43736351448E+02  0.46142315705E+02  0.99999812466E+01 0.  0.
         12    1    1    2    0    0 -0.96665072363E+01 -0.47753401488E+01  0.43736351448E+02  0.45045684295E+02  0.00000000000E+00 0. -1.
         11    1    3    3    0    0  0.65241861334E+01  0.66185205306E+01 -0.23688928100E+02  0.25446711645E+02  0.51100000000E-03 0. -1.
        -11    1    3    3    0    0  0.16261874773E+01  0.97835549829E-01 -0.14905200757E+02  0.14993967700E+02  0.51100000000E-03 0.  1.
         12    1    3    3    0    0  0.15161336256E+01 -0.19410159316E+01 -0.51422225898E+01  0.57016363599E+01  0.00000000000E+00 0. -1.
</event>
<event>
 7    1  0.1541902E-008  0.4614232E+02  0.7816164E-02  0.1320468E+00
        -11   -1    0    0    0    0  0.00000000000E+00  0.00000000000E+00  0.45593999997E+02  0.45594000000E+02  0.51100000000E-03 0. -1.
         11   -1    0    0    0    0 -0.00000000000E+00 -0.00000000000E+00 -0.45593999997E+02  0.45594000000E+02  0.51100000000E-03 0.  1.
    9900012    2    1    2    0    0  0.36580463803E+01 -0.31869324927E+02 -0.31624013329E+02  0.46142318812E+02  0.10000009586E+02 0.  0.
         12    1    1    2    0    0 -0.36580463803E+01  0.31869324927E+02  0.31624013329E+02  0.45045681188E+02  0.00000000000E+00 0. -1.
         11    1    3    3    0    0  0.63339868125E+01 -0.16486631721E+02 -0.19889964123E+02  0.26599606905E+02  0.51100000000E-03 0. -1.
        -11    1    3    3    0    0 -0.18444309453E+01 -0.12024316195E+02 -0.89725488268E+01  0.15115976256E+02  0.51100000000E-03 0.  1.
         12    1    3    3    0    0 -0.83150948691E+00 -0.33583770116E+01 -0.27615003787E+01  0.44267356506E+01  0.00000000000E+00 0. -1.
</event>
<event>
 7    1  0.1541902E-008  0.4614232E+02  0.7816164E-02  0.1320468E+00
        -11   -1    0    0    0    0  0.00000000000E+00  0.00000000000E+00  0.45593999997E+02  0.45594000000E+02  0.51100000000E-03 0. -1.
         11   -1    0    0    0    0 -0.00000000000E+00 -0.00000000000E+00 -0.45593999997E+02  0.45594000000E+02  0.51100000000E-03 0.  1.
    9900012    2    1    2    0    0  0.16756643483E+02 -0.32117578318E+02 -0.26772925691E+02  0.46142317767E+02  0.10000000050E+02 0.  0.
         12    1    1    2    0    0 -0.16756643483E+02  0.32117578318E+02  0.26772925691E+02  0.45045682233E+02  0.00000000000E+00 0. -1.
         11    1    3    3    0    0  0.38359312909E+01 -0.14311134886E+02 -0.95477154169E+01  0.17626168629E+02  0.51100000000E-03 0. -1.
        -11    1    3    3    0    0  0.12747465439E+02 -0.14970471082E+02 -0.13588144245E+02  0.23900848182E+02  0.51100000000E-03 0.  1.
        -12    1    3    3    0    0  0.17324675271E+00 -0.28359723490E+01 -0.36370660298E+01  0.46153009552E+01  0.00000000000E+00 0.  1.
</event>
<event>
 7    1  0.1541902E-008  0.4614232E+02  0.7816164E-02  0.1320468E+00
        -11   -1    0    0    0    0  0.00000000000E+00  0.00000000000E+00  0.45593999997E+02  0.45594000000E+02  0.51100000000E-03 0.  1.
         11   -1    0    0    0    0 -0.00000000000E+00 -0.00000000000E+00 -0.45593999997E+02  0.45594000000E+02  0.51100000000E-03 0. -1.
    9900012    2    1    2    0    0 -0.30479859250E+02 -0.14653996334E+02  0.29754863295E+02  0.46142319650E+02  0.10000017224E+02 0.  0.
         12    1    1    2    0    0  0.30479859250E+02  0.14653996334E+02 -0.29754863295E+02  0.45045680350E+02  0.00000000000E+00 0. -1.
         11    1    3    3    0    0 -0.19610862363E+02 -0.10552052074E+02  0.13733325663E+02  0.26163638119E+02  0.51100000000E-03 0. -1.
        -11    1    3    3    0    0 -0.10840456651E+02 -0.35943391924E+01  0.15463071680E+02  0.19223458603E+02  0.51100000000E-03 0.  1.
         12    1    3    3    0    0 -0.28540235695E-01 -0.50760506811E+00  0.55846595302E+00  0.75522292796E+00  0.00000000000E+00 0. -1.
</event>
<event>
 7    1  0.1541902E-008  0.4614232E+02  0.7816164E-02  0.1320468E+00
        -11   -1    0    0    0    0  0.00000000000E+00  0.00000000000E+00  0.45593999997E+02  0.45594000000E+02  0.51100000000E-03 0.  1.
         11   -1    0    0    0    0 -0.00000000000E+00 -0.00000000000E+00 -0.45593999997E+02  0.45594000000E+02  0.51100000000E-03 0. -1.
    9900012    2    1    2    0    0  0.27236563277E+02  0.13657913695E+02  0.33177470273E+02  0.46142317417E+02  0.99999968586E+01 0.  0.
         12    1    1    2    0    0 -0.27236563277E+02 -0.13657913695E+02 -0.33177470273E+02  0.45045682583E+02  0.00000000000E+00 0. -1.
         11    1    3    3    0    0 -0.60752019269E+00  0.69092833579E+00  0.50675666195E+00  0.10503643774E+01  0.51100000000E-03 0. -1.
        -11    1    3    3    0    0  0.14999313282E+02  0.87480728163E+01  0.20846680483E+02  0.27131020334E+02  0.51100000000E-03 0.  1.
        -12    1    3    3    0    0  0.12844770188E+02  0.42189125428E+01  0.11824033128E+02  0.17960932705E+02  0.00000000000E+00 0.  1.
</event>
<event>
 7    1  0.1541902E-008  0.4614232E+02  0.7816164E-02  0.1320468E+00
        -11   -1    0    0    0    0  0.00000000000E+00  0.00000000000E+00  0.45593999997E+02  0.45594000000E+02  0.51100000000E-03 0. -1.
         11   -1    0    0    0    0 -0.00000000000E+00 -0.00000000000E+00 -0.45593999997E+02  0.45594000000E+02  0.51100000000E-03 0.  1.
    9900012    2    1    2    0    0 -0.36389363153E+02  0.26251664508E+01 -0.26420375299E+02  0.46142317848E+02  0.10000000793E+02 0.  0.
         12    1    1    2    0    0  0.36389363153E+02 -0.26251664508E+01  0.26420375299E+02  0.45045682152E+02  0.00000000000E+00 0. -1.
         11    1    3    3    0    0 -0.86667927725E+01  0.47259289145E+01 -0.59441748824E+01  0.11523060199E+02  0.51100000000E-03 0. -1.
        -11    1    3    3    0    0 -0.17141048003E+02 -0.10814526608E+01 -0.14113646674E+02  0.22230161700E+02  0.51100000000E-03 0.  1.
         12    1    3    3    0    0 -0.10581522378E+02 -0.10193098029E+01 -0.63625537432E+01  0.12389095949E+02  0.00000000000E+00 0. -1.
</event>
<event>
 7    1  0.1541902E-008  0.4614232E+02  0.7816164E-02  0.1320468E+00
        -11   -1    0    0    0    0  0.00000000000E+00  0.00000000000E+00  0.45593999997E+02  0.45594000000E+02  0.51100000000E-03 0.  1.
         11   -1    0    0    0    0 -0.00000000000E+00 -0.00000000000E+00 -0.45593999997E+02  0.45594000000E+02  0.51100000000E-03 0. -1.
    9900012    2    1    2    0    0 -0.69565196946E+01 -0.44497829111E+02  0.81455252861E+00  0.46142318102E+02  0.10000003108E+02 0.  0.
         12    1    1    2    0    0  0.69565196946E+01  0.44497829111E+02 -0.81455252861E+00  0.45045681898E+02  0.00000000000E+00 0. -1.
         11    1    3    3    0    0 -0.12596919894E+00 -0.10707225180E+02 -0.32066272813E+01  0.11177790393E+02  0.51100000000E-03 0. -1.
        -11    1    3    3    0    0 -0.57375084694E+01 -0.17751910672E+02  0.22579856651E+01  0.18792228060E+02  0.51100000000E-03 0.  1.
         12    1    3    3    0    0 -0.10930420263E+01 -0.16038693259E+02  0.17631941448E+01  0.16172299649E+02  0.00000000000E+00 0. -1.
</event>
<event>
 7    1  0.1541902E-008  0.4614232E+02  0.7816164E-02  0.1320468E+00
        -11   -1    0    0    0    0  0.00000000000E+00  0.00000000000E+00  0.45593999997E+02  0.45594000000E+02  0.51100000000E-03 0.  1.
         11   -1    0    0    0    0 -0.00000000000E+00 -0.00000000000E+00 -0.45593999997E+02  0.45594000000E+02  0.51100000000E-03 0. -1.
    9900012    2    1    2    0    0 -0.18393006905E+02 -0.21504374540E+02  0.35048147269E+02  0.46142318138E+02  0.10000003441E+02 0.  0.
         12    1    1    2    0    0  0.18393006905E+02  0.21504374540E+02 -0.35048147269E+02  0.45045681862E+02  0.00000000000E+00 0. -1.
         11    1    3    3    0    0 -0.16352834975E+01 -0.36837918542E+01  0.20202611953E+01  0.45084287840E+01  0.51100000000E-03 0. -1.
        -11    1    3    3    0    0 -0.32817389239E+01 -0.80773024017E+01  0.11489327406E+02  0.14422803783E+02  0.51100000000E-03 0.  1.
        -12    1    3    3    0    0 -0.13475984483E+02 -0.97432802844E+01  0.21538558668E+02  0.27211085571E+02  0.00000000000E+00 0.  1.
</event>
<event>
 7    1  0.1541902E-008  0.4614232E+02  0.7816164E-02  0.1320468E+00
        -11   -1    0    0    0    0  0.00000000000E+00  0.00000000000E+00  0.45593999997E+02  0.45594000000E+02  0.51100000000E-03 0. -1.
         11   -1    0    0    0    0 -0.00000000000E+00 -0.00000000000E+00 -0.45593999997E+02  0.45594000000E+02  0.51100000000E-03 0.  1.
    9900012    2    1    2    0    0 -0.12916138702E+02  0.43096519787E+02 -0.22308799323E+01  0.46142317832E+02  0.10000000645E+02 0.  0.
         12    1    1    2    0    0  0.12916138702E+02 -0.43096519787E+02  0.22308799323E+01  0.45045682168E+02  0.00000000000E+00 0. -1.
         11    1    3    3    0    0 -0.18969109895E+01  0.20190061471E+01 -0.17349227552E+01  0.32687328358E+01  0.51100000000E-03 0. -1.
        -11    1    3    3    0    0 -0.33496176195E+01  0.19783166141E+02  0.16847588218E+01  0.20135342394E+02  0.51100000000E-03 0.  1.
        -12    1    3    3    0    0 -0.76696100929E+01  0.21294347499E+02 -0.21807159989E+01  0.22738242602E+02  0.00000000000E+00 0.  1.
</event>
<event>
 7    1  0.1541902E-008  0.4614232E+02  0.7816164E-02  0.1320468E+00
        -11   -1    0    0    0    0  0.00000000000E+00  0.00000000000E+00  0.45593999997E+02  0.45594000000E+02  0.51100000000E-03 0. -1.
         11   -1    0    0    0    0 -0.00000000000E+00 -0.00000000000E+00 -0.45593999997E+02  0.45594000000E+02  0.51100000000E-03 0.  1.
    9900012    2    1    2    0    0 -0.13028852188E+02 -0.12190462279E+01 -0.43103090599E+02  0.46142317829E+02  0.10000000617E+02 0.  0.
         12    1    1    2    0    0  0.13028852188E+02  0.12190462279E+01  0.43103090599E+02  0.45045682171E+02  0.00000000000E+00 0. -1.
         11    1    3    3    0    0 -0.54161357539E+01 -0.21542225594E+01 -0.70003306045E+01  0.91093265489E+01  0.51100000000E-03 0. -1.
        -11    1    3    3    0    0 -0.35407963364E+01  0.11856488289E+01 -0.23260700899E+02  0.23558506073E+02  0.51100000000E-03 0.  1.
        -12    1    3    3    0    0 -0.40719200977E+01 -0.25047249737E+00 -0.12842059096E+02  0.13474485207E+02  0.00000000000E+00 0.  1.
</event>
<event>
 7    1  0.1541902E-008  0.4614232E+02  0.7816164E-02  0.1320468E+00
        -11   -1    0    0    0    0  0.00000000000E+00  0.00000000000E+00  0.45593999997E+02  0.45594000000E+02  0.51100000000E-03 0.  1.
         11   -1    0    0    0    0 -0.00000000000E+00 -0.00000000000E+00 -0.45593999997E+02  0.45594000000E+02  0.51100000000E-03 0. -1.
    9900012    2    1    2    0    0  0.14518246160E+00 -0.41684729977E+02  0.17072661429E+02  0.46142316972E+02  0.99999928077E+01 0.  0.
         12    1    1    2    0    0 -0.14518246160E+00  0.41684729977E+02 -0.17072661429E+02  0.45045683028E+02  0.00000000000E+00 0. -1.
         11    1    3    3    0    0  0.67167052741E+00 -0.37341874128E+00  0.59990228921E+00  0.97491839220E+00  0.51100000000E-03 0. -1.
        -11    1    3    3    0    0 -0.62270300423E+00 -0.37966745667E+02  0.17290195606E+02  0.41723043991E+02  0.51100000000E-03 0.  1.
        -12    1    3    3    0    0  0.96214938419E-01 -0.33445655686E+01 -0.81743646645E+00  0.34443545888E+01  0.00000000000E+00 0.  1.
</event>
<event>
 7    1  0.1541902E-008  0.4614232E+02  0.7816164E-02  0.1320468E+00
        -11   -1    0    0    0    0  0.00000000000E+00  0.00000000000E+00  0.45593999997E+02  0.45594000000E+02  0.51100000000E-03 0.  1.
         11   -1    0    0    0    0 -0.00000000000E+00 -0.00000000000E+00 -0.45593999997E+02  0.45594000000E+02  0.51100000000E-03 0. -1.
    9900012    2    1    2    0    0 -0.32882620870E+02 -0.19119694194E+02  0.24130562296E+02  0.46142317653E+02  0.99999990171E+01 0.  0.
         12    1    1    2    0    0  0.32882620870E+02  0.19119694194E+02 -0.24130562296E+02  0.45045682347E+02  0.00000000000E+00 0. -1.
         11    1    3    3    0    0 -0.87057086669E+01 -0.59899414934E+01  0.24758699352E+01  0.10853510708E+02  0.51100000000E-03 0. -1.
        -11    1    3    3    0    0 -0.20326415139E+02 -0.92674093650E+01  0.16375893439E+02  0.27698698795E+02  0.51100000000E-03 0.  1.
         12    1    3    3    0    0 -0.38504970645E+01 -0.38623433353E+01  0.52787989219E+01  0.75901081509E+01  0.00000000000E+00 0. -1.
</event>
<event>
 7    1  0.1541902E-008  0.4614232E+02  0.7816164E-02  0.1320468E+00
        -11   -1    0    0    0    0  0.00000000000E+00  0.00000000000E+00  0.45593999997E+02  0.45594000000E+02  0.51100000000E-03 0. -1.
         11   -1    0    0    0    0 -0.00000000000E+00 -0.00000000000E+00 -0.45593999997E+02  0.45594000000E+02  0.51100000000E-03 0.  1.
    9900012    2    1    2    0    0 -0.23278386803E+02  0.25704517748E+02 -0.28749051402E+02  0.46142317839E+02  0.10000000707E+02 0.  0.
         12    1    1    2    0    0  0.23278386803E+02 -0.25704517748E+02  0.28749051402E+02  0.45045682161E+02  0.00000000000E+00 0. -1.
         11    1    3    3    0    0 -0.76927368490E+01  0.86595571239E+01 -0.51432762524E+01  0.12673571741E+02  0.51100000000E-03 0. -1.
        -11    1    3    3    0    0 -0.13170847563E+02  0.10878972692E+02 -0.17637062880E+02  0.24553803364E+02  0.51100000000E-03 0.  1.
         12    1    3    3    0    0 -0.24148023912E+01  0.61659879324E+01 -0.59687122699E+01  0.89149427330E+01  0.00000000000E+00 0. -1.
</event>
<event>
 7    1  0.1541902E-008  0.4614232E+02  0.7816164E-02  0.1320468E+00
        -11   -1    0    0    0    0  0.00000000000E+00  0.00000000000E+00  0.45593999997E+02  0.45594000000E+02  0.51100000000E-03 0.  1.
         11   -1    0    0    0    0 -0.00000000000E+00 -0.00000000000E+00 -0.45593999997E+02  0.45594000000E+02  0.51100000000E-03 0. -1.
    9900012    2    1    2    0    0 -0.15256478127E+02  0.29163907817E+00  0.42382408335E+02  0.46142315251E+02  0.99999771122E+01 0.  0.
         12    1    1    2    0    0  0.15256478127E+02 -0.29163907817E+00 -0.42382408335E+02  0.45045684749E+02  0.00000000000E+00 0. -1.
         11    1    3    3    0    0  0.12394934780E+01 -0.28443099412E+00  0.50029154652E+01  0.51620159323E+01  0.51100000000E-03 0. -1.
        -11    1    3    3    0    0 -0.11965841056E+02  0.11348301631E+01  0.23960392950E+02  0.26806148963E+02  0.51100000000E-03 0.  1.
         12    1    3    3    0    0 -0.45301305494E+01 -0.55876009077E+00  0.13419099920E+02  0.14174150356E+02  0.00000000000E+00 0. -1.
</event>
<event>
 7    1  0.1541902E-008  0.4614232E+02  0.7816164E-02  0.1320468E+00
        -11   -1    0    0    0    0  0.00000000000E+00  0.00000000000E+00  0.45593999997E+02  0.45594000000E+02  0.51100000000E-03 0.  1.
         11   -1    0    0    0    0 -0.00000000000E+00 -0.00000000000E+00 -0.45593999997E+02  0.45594000000E+02  0.51100000000E-03 0. -1.
    9900012    2    1    2    0    0 -0.22428226692E+02  0.35235965262E+02 -0.16867573970E+02  0.46142315943E+02  0.99999834252E+01 0.  0.
         12    1    1    2    0    0  0.22428226692E+02 -0.35235965262E+02  0.16867573970E+02  0.45045684057E+02  0.00000000000E+00 0. -1.
         11    1    3    3    0    0 -0.89297409116E+01  0.14846950800E+02 -0.96964001558E+01  0.19854279061E+02  0.51100000000E-03 0. -1.
        -11    1    3    3    0    0 -0.90604843022E+01  0.12753396594E+02 -0.13325354396E+01  0.15700864672E+02  0.51100000000E-03 0.  1.
        -12    1    3    3    0    0 -0.44380014785E+01  0.76356178680E+01 -0.58386383747E+01  0.10587172211E+02  0.00000000000E+00 0.  1.
</event>
<event>
 7    1  0.1541902E-008  0.4614232E+02  0.7816164E-02  0.1320468E+00
        -11   -1    0    0    0    0  0.00000000000E+00  0.00000000000E+00  0.45593999997E+02  0.45594000000E+02  0.51100000000E-03 0.  1.
         11   -1    0    0    0    0 -0.00000000000E+00 -0.00000000000E+00 -0.45593999997E+02  0.45594000000E+02  0.51100000000E-03 0. -1.
    9900012    2    1    2    0    0  0.32417584788E+02 -0.25460133231E+02  0.18165771160E+02  0.46142318415E+02  0.10000005963E+02 0.  0.
         12    1    1    2    0    0 -0.32417584788E+02  0.25460133231E+02 -0.18165771160E+02  0.45045681585E+02  0.00000000000E+00 0. -1.
         11    1    3    3    0    0  0.19501209070E+02 -0.17274787943E+02  0.90392263632E+01  0.27575769566E+02  0.51100000000E-03 0. -1.
        -11    1    3    3    0    0  0.94746836448E+01 -0.33688282818E+01  0.70991256433E+01  0.12309192472E+02  0.51100000000E-03 0.  1.
        -12    1    3    3    0    0  0.34416920732E+01 -0.48165170067E+01  0.20274191531E+01  0.62573563767E+01  0.00000000000E+00 0.  1.
</event>
<event>
 7    1  0.1541902E-008  0.4614232E+02  0.7816164E-02  0.1320468E+00
        -11   -1    0    0    0    0  0.00000000000E+00  0.00000000000E+00  0.45593999997E+02  0.45594000000E+02  0.51100000000E-03 0.  1.
         11   -1    0    0    0    0 -0.00000000000E+00 -0.00000000000E+00 -0.45593999997E+02  0.45594000000E+02  0.51100000000E-03 0. -1.
    9900012    2    1    2    0    0  0.25750989497E+02  0.30588807463E+02  0.20744275182E+02  0.46142317022E+02  0.99999932601E+01 0.  0.
         12    1    1    2    0    0 -0.25750989497E+02 -0.30588807463E+02 -0.20744275182E+02  0.45045682978E+02  0.00000000000E+00 0. -1.
         11    1    3    3    0    0 -0.38878405424E+00  0.72230745763E+00  0.20864615639E+01  0.22419195398E+01  0.51100000000E-03 0. -1.
        -11    1    3    3    0    0  0.24038647978E+02  0.28208308694E+02  0.17392440390E+02  0.40939739361E+02  0.51100000000E-03 0.  1.
        -12    1    3    3    0    0  0.21011255736E+01  0.16581913115E+01  0.12653732280E+01  0.29606581207E+01  0.00000000000E+00 0.  1.
</event>
<event>
 7    1  0.1541902E-008  0.4614232E+02  0.7816164E-02  0.1320468E+00
        -11   -1    0    0    0    0  0.00000000000E+00  0.00000000000E+00  0.45593999997E+02  0.45594000000E+02  0.51100000000E-03 0.  1.
         11   -1    0    0    0    0 -0.00000000000E+00 -0.00000000000E+00 -0.45593999997E+02  0.45594000000E+02  0.51100000000E-03 0. -1.
    9900012    2    1    2    0    0 -0.32465429624E+02 -0.26550058005E+02 -0.16437878940E+02  0.46142316913E+02  0.99999922664E+01 0.  0.
         12    1    1    2    0    0  0.32465429624E+02  0.26550058005E+02  0.16437878940E+02  0.45045683087E+02  0.00000000000E+00 0. -1.
         11    1    3    3    0    0 -0.10346844027E+02 -0.11125457037E+02 -0.22414755677E+01  0.15357642676E+02  0.51100000000E-03 0. -1.
        -11    1    3    3    0    0 -0.12136037609E+02 -0.58289642743E+01 -0.73221589821E+01  0.15325607518E+02  0.51100000000E-03 0.  1.
        -12    1    3    3    0    0 -0.99825479886E+01 -0.95956366933E+01 -0.68742443898E+01  0.15459066719E+02  0.00000000000E+00 0.  1.
</event>
<event>
 7    1  0.1541902E-008  0.4614232E+02  0.7816164E-02  0.1320468E+00
        -11   -1    0    0    0    0  0.00000000000E+00  0.00000000000E+00  0.45593999997E+02  0.45594000000E+02  0.51100000000E-03 0. -1.
         11   -1    0    0    0    0 -0.00000000000E+00 -0.00000000000E+00 -0.45593999997E+02  0.45594000000E+02  0.51100000000E-03 0.  1.
    9900012    2    1    2    0    0 -0.77243532312E+01  0.40365970818E+02 -0.18440076152E+02  0.46142316062E+02  0.99999845058E+01 0.  0.
         12    1    1    2    0    0  0.77243532312E+01 -0.40365970818E+02  0.18440076152E+02  0.45045683938E+02  0.00000000000E+00 0. -1.
         11    1    3    3    0    0 -0.24925326399E+00  0.21831420130E+00 -0.48074058698E+00  0.58386646863E+00  0.51100000000E-03 0. -1.
        -11    1    3    3    0    0 -0.44289492309E+01  0.86641532554E+01 -0.73555552497E+01  0.12197841457E+02  0.51100000000E-03 0.  1.
        -12    1    3    3    0    0 -0.30461507363E+01  0.31483503362E+02 -0.10603780315E+02  0.33360608136E+02  0.00000000000E+00 0.  1.
</event>
<event>
 7    1  0.1541902E-008  0.4614232E+02  0.7816164E-02  0.1320468E+00
        -11   -1    0    0    0    0  0.00000000000E+00  0.00000000000E+00  0.45593999997E+02  0.45594000000E+02  0.51100000000E-03 0.  1.
         11   -1    0    0    0    0 -0.00000000000E+00 -0.00000000000E+00 -0.45593999997E+02  0.45594000000E+02  0.51100000000E-03 0. -1.
    9900012    2    1    2    0    0 -0.11706708811E+02  0.16545850827E+02  0.40228115117E+02  0.46142318114E+02  0.10000003214E+02 0.  0.
         12    1    1    2    0    0  0.11706708811E+02 -0.16545850827E+02 -0.40228115117E+02  0.45045681886E+02  0.00000000000E+00 0. -1.
         11    1    3    3    0    0 -0.25649542225E-01  0.54222964397E+00  0.27320286252E+01  0.27854356133E+01  0.51100000000E-03 0. -1.
        -11    1    3    3    0    0 -0.10644735189E+02  0.12580050453E+02  0.22198861446E+02  0.27647016229E+02  0.51100000000E-03 0.  1.
        -12    1    3    3    0    0 -0.10363240797E+01  0.34235707297E+01  0.15297225046E+02  0.15709866271E+02  0.00000000000E+00 0.  1.
</event>
<event>
 7    1  0.1541902E-008  0.4614232E+02  0.7816164E-02  0.1320468E+00
        -11   -1    0    0    0    0  0.00000000000E+00  0.00000000000E+00  0.45593999997E+02  0.45594000000E+02  0.51100000000E-03 0.  1.
         11   -1    0    0    0    0 -0.00000000000E+00 -0.00000000000E+00 -0.45593999997E+02  0.45594000000E+02  0.51100000000E-03 0. -1.
    9900012    2    1    2    0    0  0.44071412219E+02  0.70768527384E+01  0.60615412810E+01  0.46142317606E+02  0.99999985865E+01 0.  0.
         12    1    1    2    0    0 -0.44071412219E+02 -0.70768527384E+01 -0.60615412810E+01  0.45045682394E+02  0.00000000000E+00 0. -1.
         11    1    3    3    0    0  0.30672469792E+02  0.73598767727E+01  0.36709206030E+01  0.31756004906E+02  0.51100000000E-03 0. -1.
        -11    1    3    3    0    0  0.10110575718E+02 -0.44302334581E+00  0.37931291084E+01  0.10807767564E+02  0.51100000000E-03 0.  1.
         12    1    3    3    0    0  0.32883667088E+01  0.15999931146E+00 -0.14025084304E+01  0.35785451357E+01  0.00000000000E+00 0. -1.
</event>
<event>
 7    1  0.1541902E-008  0.4614232E+02  0.7816164E-02  0.1320468E+00
        -11   -1    0    0    0    0  0.00000000000E+00  0.00000000000E+00  0.45593999997E+02  0.45594000000E+02  0.51100000000E-03 0.  1.
         11   -1    0    0    0    0 -0.00000000000E+00 -0.00000000000E+00 -0.45593999997E+02  0.45594000000E+02  0.51100000000E-03 0. -1.
    9900012    2    1    2    0    0 -0.62422070831E+01  0.87925090358E+01  0.43736026330E+02  0.46142319146E+02  0.10000012631E+02 0.  0.
         12    1    1    2    0    0  0.62422070831E+01 -0.87925090358E+01 -0.43736026330E+02  0.45045680854E+02  0.00000000000E+00 0. -1.
         11    1    3    3    0    0 -0.42542079253E+00  0.24038813562E+01  0.15915457153E+02  0.16101596352E+02  0.51100000000E-03 0. -1.
        -11    1    3    3    0    0 -0.36111036082E+01  0.36305960342E+01  0.25005669868E+02  0.25524592507E+02  0.51100000000E-03 0.  1.
         12    1    3    3    0    0 -0.22056826824E+01  0.27580316454E+01  0.28148993091E+01  0.45161302874E+01  0.00000000000E+00 0. -1.
</event>
<event>
 7    1  0.1541902E-008  0.4614232E+02  0.7816164E-02  0.1320468E+00
        -11   -1    0    0    0    0  0.00000000000E+00  0.00000000000E+00  0.45593999997E+02  0.45594000000E+02  0.51100000000E-03 0.  1.
         11   -1    0    0    0    0 -0.00000000000E+00 -0.00000000000E+00 -0.45593999997E+02  0.45594000000E+02  0.51100000000E-03 0. -1.
    9900012    2    1    2    0    0  0.12981972517E+02 -0.26216945691E+02  0.34252789498E+02  0.46142318296E+02  0.10000004875E+02 0.  0.
         12    1    1    2    0    0 -0.12981972517E+02  0.26216945691E+02 -0.34252789498E+02  0.45045681704E+02  0.00000000000E+00 0. -1.
         11    1    3    3    0    0  0.28322002423E+01 -0.63153648074E+01  0.10737801920E+02  0.12775193979E+02  0.51100000000E-03 0. -1.
        -11    1    3    3    0    0  0.73156477755E+01 -0.10010324413E+02  0.80177581023E+01  0.14765152979E+02  0.51100000000E-03 0.  1.
        -12    1    3    3    0    0  0.28341244987E+01 -0.98912564708E+01  0.15497229475E+02  0.18601971338E+02  0.00000000000E+00 0.  1.
</event>
<event>
 7    1  0.1541902E-008  0.4614232E+02  0.7816164E-02  0.1320468E+00
        -11   -1    0    0    0    0  0.00000000000E+00  0.00000000000E+00  0.45593999997E+02  0.45594000000E+02  0.51100000000E-03 0. -1.
         11   -1    0    0    0    0 -0.00000000000E+00 -0.00000000000E+00 -0.45593999997E+02  0.45594000000E+02  0.51100000000E-03 0.  1.
    9900012    2    1    2    0    0 -0.20349016317E+02  0.30698340020E+02 -0.25935361155E+02  0.46142317596E+02  0.99999984935E+01 0.  0.
         12    1    1    2    0    0  0.20349016317E+02 -0.30698340020E+02  0.25935361155E+02  0.45045682404E+02  0.00000000000E+00 0. -1.
         11    1    3    3    0    0 -0.16165189126E+01  0.60438259979E+01 -0.49495549691E+01  0.79774094004E+01  0.51100000000E-03 0. -1.
        -11    1    3    3    0    0 -0.13303988725E+02  0.21978961450E+02 -0.18303810982E+02  0.31545211350E+02  0.51100000000E-03 0.  1.
        -12    1    3    3    0    0 -0.54285086798E+01  0.26755525713E+01 -0.26819952038E+01  0.66196968451E+01  0.00000000000E+00 0.  1.
</event>
<event>
 7    1  0.1541902E-008  0.4614232E+02  0.7816164E-02  0.1320468E+00
        -11   -1    0    0    0    0  0.00000000000E+00  0.00000000000E+00  0.45593999997E+02  0.45594000000E+02  0.51100000000E-03 0.  1.
         11   -1    0    0    0    0 -0.00000000000E+00 -0.00000000000E+00 -0.45593999997E+02  0.45594000000E+02  0.51100000000E-03 0. -1.
    9900012    2    1    2    0    0  0.84837026669E+01 -0.15383185807E+02  0.41478884371E+02  0.46142318018E+02  0.10000002343E+02 0.  0.
         12    1    1    2    0    0 -0.84837026669E+01  0.15383185807E+02 -0.41478884371E+02  0.45045681982E+02  0.00000000000E+00 0. -1.
         11    1    3    3    0    0  0.36756331506E+01 -0.36962045981E+01  0.21967170993E+02  0.22577174517E+02  0.51100000000E-03 0. -1.
        -11    1    3    3    0    0  0.44296393144E+01 -0.10373300381E+02  0.19018543631E+02  0.22111808324E+02  0.51100000000E-03 0.  1.
        -12    1    3    3    0    0  0.37843020192E+00 -0.13136808286E+01  0.49316974746E+00  0.14533351771E+01  0.00000000000E+00 0.  1.
</event>
<event>
 7    1  0.1541902E-008  0.4614232E+02  0.7816164E-02  0.1320468E+00
        -11   -1    0    0    0    0  0.00000000000E+00  0.00000000000E+00  0.45593999997E+02  0.45594000000E+02  0.51100000000E-03 0.  1.
         11   -1    0    0    0    0 -0.00000000000E+00 -0.00000000000E+00 -0.45593999997E+02  0.45594000000E+02  0.51100000000E-03 0. -1.
    9900012    2    1    2    0    0  0.25991607259E+02  0.31690279309E+02  0.18688928885E+02  0.46142317483E+02  0.99999974649E+01 0.  0.
         12    1    1    2    0    0 -0.25991607259E+02 -0.31690279309E+02 -0.18688928885E+02  0.45045682517E+02  0.00000000000E+00 0. -1.
         11    1    3    3    0    0  0.27968864506E+01  0.82726595077E+01  0.15342592839E+01  0.88664209780E+01  0.51100000000E-03 0. -1.
        -11    1    3    3    0    0  0.18698497787E+02  0.17258484931E+02  0.12614223728E+02  0.28400840870E+02  0.51100000000E-03 0.  1.
        -12    1    3    3    0    0  0.44962230213E+01  0.61591348697E+01  0.45404458727E+01  0.88750556349E+01  0.00000000000E+00 0.  1.
</event>
<event>
 7    1  0.1541902E-008  0.4614232E+02  0.7816164E-02  0.1320468E+00
        -11   -1    0    0    0    0  0.00000000000E+00  0.00000000000E+00  0.45593999997E+02  0.45594000000E+02  0.51100000000E-03 0. -1.
         11   -1    0    0    0    0 -0.00000000000E+00 -0.00000000000E+00 -0.45593999997E+02  0.45594000000E+02  0.51100000000E-03 0.  1.
    9900012    2    1    2    0    0  0.43551284889E+02  0.92120380441E+01 -0.68947376846E+01  0.46142317986E+02  0.10000002048E+02 0.  0.
         12    1    1    2    0    0 -0.43551284889E+02 -0.92120380441E+01  0.68947376846E+01  0.45045682014E+02  0.00000000000E+00 0. -1.
         11    1    3    3    0    0  0.11418964646E+02  0.28181235057E+01  0.10456308177E+01  0.11807959932E+02  0.51100000000E-03 0.  1.
        -11    1    3    3    0    0  0.22453796145E+01 -0.53073756878E+00 -0.20686944775E+01  0.30988560926E+01  0.51100000000E-03 0. -1.
        -12    1    3    3    0    0  0.29886940628E+02  0.69246521072E+01 -0.58716740248E+01  0.31235501961E+02  0.00000000000E+00 0.  1.
</event>
<event>
 7    1  0.1541902E-008  0.4614232E+02  0.7816164E-02  0.1320468E+00
        -11   -1    0    0    0    0  0.00000000000E+00  0.00000000000E+00  0.45593999997E+02  0.45594000000E+02  0.51100000000E-03 0.  1.
         11   -1    0    0    0    0 -0.00000000000E+00 -0.00000000000E+00 -0.45593999997E+02  0.45594000000E+02  0.51100000000E-03 0. -1.
    9900012    2    1    2    0    0 -0.95015782392E+01 -0.32105957294E+02  0.30133719058E+02  0.46142317553E+02  0.99999981038E+01 0.  0.
         12    1    1    2    0    0  0.95015782392E+01  0.32105957294E+02 -0.30133719058E+02  0.45045682447E+02  0.00000000000E+00 0. -1.
         11    1    3    3    0    0 -0.26607705110E+01 -0.79775576725E+01  0.13625980522E+02  0.16012135135E+02  0.51100000000E-03 0. -1.
        -11    1    3    3    0    0 -0.18608018536E+01 -0.50296009910E+01  0.24357507346E+01  0.58900213556E+01  0.51100000000E-03 0.  1.
         12    1    3    3    0    0 -0.49800058746E+01 -0.19098798631E+02  0.14071987801E+02  0.24240161062E+02  0.00000000000E+00 0. -1.
</event>
<event>
 7    1  0.1541902E-008  0.4614232E+02  0.7816164E-02  0.1320468E+00
        -11   -1    0    0    0    0  0.00000000000E+00  0.00000000000E+00  0.45593999997E+02  0.45594000000E+02  0.51100000000E-03 0.  1.
         11   -1    0    0    0    0 -0.00000000000E+00 -0.00000000000E+00 -0.45593999997E+02  0.45594000000E+02  0.51100000000E-03 0. -1.
    9900012    2    1    2    0    0  0.88302245650E+01 -0.43898895081E+02 -0.49017953402E+01  0.46142318157E+02  0.10000003606E+02 0.  0.
         12    1    1    2    0    0 -0.88302245650E+01  0.43898895081E+02  0.49017953402E+01  0.45045681843E+02  0.00000000000E+00 0. -1.
         11    1    3    3    0    0  0.52535472283E+01 -0.17154725898E+02  0.21741955184E+01  0.18072396231E+02  0.51100000000E-03 0. -1.
        -11    1    3    3    0    0  0.10646308064E+01 -0.15241404064E+02 -0.52495254268E+01  0.16155226834E+02  0.51100000000E-03 0.  1.
         12    1    3    3    0    0  0.25120465302E+01 -0.11502765119E+02 -0.18264654317E+01  0.11914695092E+02  0.00000000000E+00 0. -1.
</event>
<event>
 7    1  0.1541902E-008  0.4614232E+02  0.7816164E-02  0.1320468E+00
        -11   -1    0    0    0    0  0.00000000000E+00  0.00000000000E+00  0.45593999997E+02  0.45594000000E+02  0.51100000000E-03 0.  1.
         11   -1    0    0    0    0 -0.00000000000E+00 -0.00000000000E+00 -0.45593999997E+02  0.45594000000E+02  0.51100000000E-03 0. -1.
    9900012    2    1    2    0    0  0.95348662363E+01  0.23185378079E+02  0.37425101352E+02  0.46142316056E+02  0.99999844486E+01 0.  0.
         12    1    1    2    0    0 -0.95348662363E+01 -0.23185378079E+02 -0.37425101352E+02  0.45045683944E+02  0.00000000000E+00 0. -1.
         11    1    3    3    0    0  0.45915765608E+01  0.65808692847E+01  0.76079348781E+01  0.11057625840E+02  0.51100000000E-03 0. -1.
        -11    1    3    3    0    0  0.48571018778E+01  0.16532148287E+02  0.25557377356E+02  0.30823414853E+02  0.51100000000E-03 0.  1.
         12    1    3    3    0    0  0.86187797742E-01  0.72360506605E-01  0.42597891183E+01  0.42612753621E+01  0.00000000000E+00 0. -1.
</event>
<event>
 7    1  0.1541902E-008  0.4614232E+02  0.7816164E-02  0.1320468E+00
        -11   -1    0    0    0    0  0.00000000000E+00  0.00000000000E+00  0.45593999997E+02  0.45594000000E+02  0.51100000000E-03 0.  1.
         11   -1    0    0    0    0 -0.00000000000E+00 -0.00000000000E+00 -0.45593999997E+02  0.45594000000E+02  0.51100000000E-03 0. -1.
    9900012    2    1    2    0    0 -0.35058232081E+02  0.49751623576E+01  0.27843878700E+02  0.46142318096E+02  0.10000003057E+02 0.  0.
         12    1    1    2    0    0  0.35058232081E+02 -0.49751623576E+01 -0.27843878700E+02  0.45045681904E+02  0.00000000000E+00 0. -1.
         11    1    3    3    0    0 -0.55560704188E+01  0.43053050938E+01  0.45753911544E+01  0.83868811203E+01  0.51100000000E-03 0. -1.
        -11    1    3    3    0    0 -0.86368984717E+01 -0.14397933003E+01  0.65315743753E+01  0.10923849323E+02  0.51100000000E-03 0.  1.
         12    1    3    3    0    0 -0.20865263190E+02  0.21096505642E+01  0.16736913170E+02  0.26831587653E+02  0.00000000000E+00 0. -1.
</event>
<event>
 7    1  0.1541902E-008  0.4614232E+02  0.7816164E-02  0.1320468E+00
        -11   -1    0    0    0    0  0.00000000000E+00  0.00000000000E+00  0.45593999997E+02  0.45594000000E+02  0.51100000000E-03 0. -1.
         11   -1    0    0    0    0 -0.00000000000E+00 -0.00000000000E+00 -0.45593999997E+02  0.45594000000E+02  0.51100000000E-03 0.  1.
    9900012    2    1    2    0    0  0.16605616401E+02 -0.41800353149E+02  0.24693168328E+01  0.46142317132E+02  0.99999942636E+01 0.  0.
         12    1    1    2    0    0 -0.16605616401E+02  0.41800353149E+02 -0.24693168328E+01  0.45045682868E+02  0.00000000000E+00 0. -1.
         11    1    3    3    0    0  0.12765417191E+01 -0.27862833852E+01  0.22237970396E+01  0.37865825486E+01  0.51100000000E-03 0. -1.
        -11    1    3    3    0    0  0.46791675389E+01 -0.15476051080E+02  0.27471222256E+01  0.16399678249E+02  0.51100000000E-03 0.  1.
        -12    1    3    3    0    0  0.10649907143E+02 -0.23538018684E+02 -0.25016024323E+01  0.25956056334E+02  0.00000000000E+00 0.  1.
</event>
<event>
 7    1  0.1541902E-008  0.4614232E+02  0.7816164E-02  0.1320468E+00
        -11   -1    0    0    0    0  0.00000000000E+00  0.00000000000E+00  0.45593999997E+02  0.45594000000E+02  0.51100000000E-03 0.  1.
         11   -1    0    0    0    0 -0.00000000000E+00 -0.00000000000E+00 -0.45593999997E+02  0.45594000000E+02  0.51100000000E-03 0. -1.
    9900012    2    1    2    0    0  0.16180222231E+02  0.41419452972E+02  0.71932473440E+01  0.46142317818E+02  0.10000000515E+02 0.  0.
         12    1    1    2    0    0 -0.16180222231E+02 -0.41419452972E+02 -0.71932473440E+01  0.45045682182E+02  0.00000000000E+00 0. -1.
         11    1    3    3    0    0  0.65321654264E+01  0.12588430226E+02  0.38468448455E+00  0.14187520683E+02  0.51100000000E-03 0. -1.
        -11    1    3    3    0    0  0.10812965747E+02  0.26179519363E+02  0.61411653092E+01  0.28982777195E+02  0.51100000000E-03 0.  1.
         12    1    3    3    0    0 -0.11649089420E+01  0.26515033826E+01  0.66739755030E+00  0.29720199396E+01  0.00000000000E+00 0. -1.
</event>
<event>
 7    1  0.1541902E-008  0.4614232E+02  0.7816164E-02  0.1320468E+00
        -11   -1    0    0    0    0  0.00000000000E+00  0.00000000000E+00  0.45593999997E+02  0.45594000000E+02  0.51100000000E-03 0. -1.
         11   -1    0    0    0    0 -0.00000000000E+00 -0.00000000000E+00 -0.45593999997E+02  0.45594000000E+02  0.51100000000E-03 0.  1.
    9900012    2    1    2    0    0 -0.22854525200E+02 -0.24739502491E+02 -0.29912225162E+02  0.46142317413E+02  0.99999968268E+01 0.  0.
         12    1    1    2    0    0  0.22854525200E+02  0.24739502491E+02  0.29912225162E+02  0.45045682587E+02  0.00000000000E+00 0. -1.
         11    1    3    3    0    0 -0.92721057721E+01 -0.12879996227E+02 -0.13225945701E+02  0.20658942088E+02  0.51100000000E-03 0. -1.
        -11    1    3    3    0    0 -0.50744788168E+01 -0.29558251306E+01 -0.17560722819E+01  0.61295209915E+01  0.51100000000E-03 0.  1.
        -12    1    3    3    0    0 -0.85079406111E+01 -0.89036811329E+01 -0.14930207179E+02  0.19353854333E+02  0.00000000000E+00 0.  1.
</event>
<event>
 7    1  0.1541902E-008  0.4614232E+02  0.7816164E-02  0.1320468E+00
        -11   -1    0    0    0    0  0.00000000000E+00  0.00000000000E+00  0.45593999997E+02  0.45594000000E+02  0.51100000000E-03 0.  1.
         11   -1    0    0    0    0 -0.00000000000E+00 -0.00000000000E+00 -0.45593999997E+02  0.45594000000E+02  0.51100000000E-03 0. -1.
    9900012    2    1    2    0    0  0.32460709061E+02 -0.87170727780E+00  0.31219481455E+02  0.46142317314E+02  0.99999959230E+01 0.  0.
         12    1    1    2    0    0 -0.32460709061E+02  0.87170727780E+00 -0.31219481455E+02  0.45045682686E+02  0.00000000000E+00 0. -1.
         11    1    3    3    0    0  0.27929970941E+02 -0.99207485343E+00  0.21576045810E+02  0.35307127359E+02  0.51100000000E-03 0. -1.
        -11    1    3    3    0    0  0.42247231236E+01  0.97366244508E-01  0.70194256499E+01  0.81932961848E+01  0.51100000000E-03 0.  1.
         12    1    3    3    0    0  0.30601499662E+00  0.23001331117E-01  0.26240099952E+01  0.26418937705E+01  0.00000000000E+00 0. -1.
</event>
<event>
 7    1  0.1541902E-008  0.4614232E+02  0.7816164E-02  0.1320468E+00
        -11   -1    0    0    0    0  0.00000000000E+00  0.00000000000E+00  0.45593999997E+02  0.45594000000E+02  0.51100000000E-03 0. -1.
         11   -1    0    0    0    0 -0.00000000000E+00 -0.00000000000E+00 -0.45593999997E+02  0.45594000000E+02  0.51100000000E-03 0.  1.
    9900012    2    1    2    0    0  0.19162261376E+02  0.14482030244E+02 -0.38107633760E+02  0.46142320831E+02  0.10000027996E+02 0.  0.
         12    1    1    2    0    0 -0.19162261376E+02 -0.14482030244E+02  0.38107633760E+02  0.45045679169E+02  0.00000000000E+00 0. -1.
         11    1    3    3    0    0 -0.11849676579E+01  0.53604506198E+00 -0.17315061635E+01  0.21655499334E+01  0.51100000000E-03 0. -1.
        -11    1    3    3    0    0  0.19000838005E+02  0.12668503677E+02 -0.34085953427E+02  0.41028953821E+02  0.51100000000E-03 0.  1.
         12    1    3    3    0    0  0.13463910291E+01  0.12774815046E+01 -0.22901741688E+01  0.29478170773E+01  0.00000000000E+00 0. -1.
</event>
<event>
 7    1  0.1541902E-008  0.4614232E+02  0.7816164E-02  0.1320468E+00
        -11   -1    0    0    0    0  0.00000000000E+00  0.00000000000E+00  0.45593999997E+02  0.45594000000E+02  0.51100000000E-03 0. -1.
         11   -1    0    0    0    0 -0.00000000000E+00 -0.00000000000E+00 -0.45593999997E+02  0.45594000000E+02  0.51100000000E-03 0.  1.
    9900012    2    1    2    0    0 -0.44238231249E+02  0.84599566143E+01 -0.72215109686E+00  0.46142317941E+02  0.10000001639E+02 0.  0.
         12    1    1    2    0    0  0.44238231249E+02 -0.84599566143E+01  0.72215109686E+00  0.45045682059E+02  0.00000000000E+00 0. -1.
         11    1    3    3    0    0 -0.12124859011E+02 -0.87284630826E-01  0.51186745875E+00  0.12135972692E+02  0.51100000000E-03 0. -1.
        -11    1    3    3    0    0 -0.16443060188E+02  0.43942003415E+01 -0.41888089172E+01  0.17527958962E+02  0.51100000000E-03 0.  1.
         12    1    3    3    0    0 -0.15670312051E+02  0.41530409036E+01  0.29547903616E+01  0.16478386286E+02  0.00000000000E+00 0. -1.
</event>
<event>
 7    1  0.1541902E-008  0.4614232E+02  0.7816164E-02  0.1320468E+00
        -11   -1    0    0    0    0  0.00000000000E+00  0.00000000000E+00  0.45593999997E+02  0.45594000000E+02  0.51100000000E-03 0.  1.
         11   -1    0    0    0    0 -0.00000000000E+00 -0.00000000000E+00 -0.45593999997E+02  0.45594000000E+02  0.51100000000E-03 0. -1.
    9900012    2    1    2    0    0  0.63114963932E+01  0.93450233637E+01  0.43611341143E+02  0.46142317358E+02  0.99999963260E+01 0.  0.
         12    1    1    2    0    0 -0.63114963932E+01 -0.93450233637E+01 -0.43611341143E+02  0.45045682642E+02  0.00000000000E+00 0. -1.
         11    1    3    3    0    0 -0.12322877251E+01 -0.28635345240E+00  0.11159404294E+01  0.16869661053E+01  0.51100000000E-03 0. -1.
        -11    1    3    3    0    0  0.70308089584E+01  0.83761815670E+01  0.30843674173E+02  0.32724989366E+02  0.51100000000E-03 0.  1.
         12    1    3    3    0    0  0.51297515988E+00  0.12551952491E+01  0.11651726540E+02  0.11730361887E+02  0.00000000000E+00 0. -1.
</event>
<event>
 7    1  0.1541902E-008  0.4614232E+02  0.7816164E-02  0.1320468E+00
        -11   -1    0    0    0    0  0.00000000000E+00  0.00000000000E+00  0.45593999997E+02  0.45594000000E+02  0.51100000000E-03 0.  1.
         11   -1    0    0    0    0 -0.00000000000E+00 -0.00000000000E+00 -0.45593999997E+02  0.45594000000E+02  0.51100000000E-03 0. -1.
    9900012    2    1    2    0    0  0.57460343453E+01  0.33970804274E+02  0.29018633751E+02  0.46142316983E+02  0.99999929035E+01 0.  0.
         12    1    1    2    0    0 -0.57460343453E+01 -0.33970804274E+02 -0.29018633751E+02  0.45045683017E+02  0.00000000000E+00 0. -1.
         11    1    3    3    0    0  0.13504386893E+01  0.19345774232E+02  0.14925156253E+02  0.24471267943E+02  0.51100000000E-03 0. -1.
        -11    1    3    3    0    0  0.25580579908E+01  0.11596241933E+02  0.13663088527E+02  0.18102388682E+02  0.51100000000E-03 0.  1.
         12    1    3    3    0    0  0.18375376652E+01  0.30287881098E+01  0.43038897031E+00  0.35686603580E+01  0.00000000000E+00 0. -1.
</event>
<event>
 7    1  0.1541902E-008  0.4614232E+02  0.7816164E-02  0.1320468E+00
        -11   -1    0    0    0    0  0.00000000000E+00  0.00000000000E+00  0.45593999997E+02  0.45594000000E+02  0.51100000000E-03 0.  1.
         11   -1    0    0    0    0 -0.00000000000E+00 -0.00000000000E+00 -0.45593999997E+02  0.45594000000E+02  0.51100000000E-03 0. -1.
    9900012    2    1    2    0    0 -0.17415503280E+02  0.20912383077E+02  0.35895486307E+02  0.46142318102E+02  0.10000003107E+02 0.  0.
         12    1    1    2    0    0  0.17415503280E+02 -0.20912383077E+02 -0.35895486307E+02  0.45045681898E+02  0.00000000000E+00 0. -1.
         11    1    3    3    0    0  0.46982313822E+00  0.10839239309E+01  0.97235284336E+00  0.15300637838E+01  0.51100000000E-03 0. -1.
        -11    1    3    3    0    0 -0.12292593569E+02  0.17721514977E+02  0.24893488828E+02  0.32936996463E+02  0.51100000000E-03 0.  1.
        -12    1    3    3    0    0 -0.55927328494E+01  0.21069441685E+01  0.10029644636E+02  0.11675257855E+02  0.00000000000E+00 0.  1.
</event>
<event>
 7    1  0.1541902E-008  0.4614232E+02  0.7816164E-02  0.1320468E+00
        -11   -1    0    0    0    0  0.00000000000E+00  0.00000000000E+00  0.45593999997E+02  0.45594000000E+02  0.51100000000E-03 0.  1.
         11   -1    0    0    0    0 -0.00000000000E+00 -0.00000000000E+00 -0.45593999997E+02  0.45594000000E+02  0.51100000000E-03 0. -1.
    9900012    2    1    2    0    0  0.20181195607E+00 -0.35587511429E+02  0.27615247770E+02  0.46142316442E+02  0.99999879729E+01 0.  0.
         12    1    1    2    0    0 -0.20181195607E+00  0.35587511429E+02 -0.27615247770E+02  0.45045683558E+02  0.00000000000E+00 0. -1.
         11    1    3    3    0    0  0.27446147959E+01 -0.18863259996E+02  0.11250978862E+02  0.22134588626E+02  0.51100000000E-03 0. -1.
        -11    1    3    3    0    0 -0.13845151387E+01 -0.10269962657E+02  0.13038767838E+02  0.16655283911E+02  0.51100000000E-03 0.  1.
        -12    1    3    3    0    0 -0.11582877012E+01 -0.64542887771E+01  0.33255010696E+01  0.73524439053E+01  0.00000000000E+00 0.  1.
</event>
<event>
 7    1  0.1541902E-008  0.4614232E+02  0.7816164E-02  0.1320468E+00
        -11   -1    0    0    0    0  0.00000000000E+00  0.00000000000E+00  0.45593999997E+02  0.45594000000E+02  0.51100000000E-03 0. -1.
         11   -1    0    0    0    0 -0.00000000000E+00 -0.00000000000E+00 -0.45593999997E+02  0.45594000000E+02  0.51100000000E-03 0.  1.
    9900012    2    1    2    0    0 -0.20135647318E+02 -0.23087284863E+02 -0.33024940429E+02  0.46142315350E+02  0.99999780132E+01 0.  0.
         12    1    1    2    0    0  0.20135647318E+02  0.23087284863E+02  0.33024940429E+02  0.45045684650E+02  0.00000000000E+00 0. -1.
         11    1    3    3    0    0 -0.60745744773E+01 -0.10120286955E+02 -0.17331670257E+02  0.20969202591E+02  0.51100000000E-03 0. -1.
        -11    1    3    3    0    0 -0.54483802223E+01 -0.67640804174E+01 -0.95527424723E+01  0.12910945742E+02  0.51100000000E-03 0.  1.
         12    1    3    3    0    0 -0.86126926187E+01 -0.62029174906E+01 -0.61405276990E+01  0.12262167017E+02  0.00000000000E+00 0. -1.
</event>
<event>
 7    1  0.1541902E-008  0.4614232E+02  0.7816164E-02  0.1320468E+00
        -11   -1    0    0    0    0  0.00000000000E+00  0.00000000000E+00  0.45593999997E+02  0.45594000000E+02  0.51100000000E-03 0.  1.
         11   -1    0    0    0    0 -0.00000000000E+00 -0.00000000000E+00 -0.45593999997E+02  0.45594000000E+02  0.51100000000E-03 0. -1.
    9900012    2    1    2    0    0  0.17988022372E+02 -0.13151646270E+02  0.39148165040E+02  0.46142316805E+02  0.99999912824E+01 0.  0.
         12    1    1    2    0    0 -0.17988022372E+02  0.13151646270E+02 -0.39148165040E+02  0.45045683195E+02  0.00000000000E+00 0. -1.
         11    1    3    3    0    0  0.16155280893E+01  0.50305715416E+00  0.35682887690E+01  0.39491369320E+01  0.51100000000E-03 0. -1.
        -11    1    3    3    0    0  0.12329321029E+02 -0.86398324918E+01  0.30412688869E+02  0.33935092559E+02  0.51100000000E-03 0.  1.
        -12    1    3    3    0    0  0.40431732531E+01 -0.50148709327E+01  0.51671874028E+01  0.82580873137E+01  0.00000000000E+00 0.  1.
</event>
<event>
 7    1  0.1541902E-008  0.4614232E+02  0.7816164E-02  0.1320468E+00
        -11   -1    0    0    0    0  0.00000000000E+00  0.00000000000E+00  0.45593999997E+02  0.45594000000E+02  0.51100000000E-03 0.  1.
         11   -1    0    0    0    0 -0.00000000000E+00 -0.00000000000E+00 -0.45593999997E+02  0.45594000000E+02  0.51100000000E-03 0. -1.
    9900012    2    1    2    0    0 -0.40176964862E+02  0.19187862507E+02  0.68374639028E+01  0.46142317790E+02  0.10000000267E+02 0.  0.
         12    1    1    2    0    0  0.40176964862E+02 -0.19187862507E+02 -0.68374639028E+01  0.45045682210E+02  0.00000000000E+00 0. -1.
         11    1    3    3    0    0 -0.92106061175E+01  0.61592794962E+01  0.56888267533E+01  0.12455309673E+02  0.51100000000E-03 0. -1.
        -11    1    3    3    0    0 -0.44581457446E+01  0.11859077255E+01  0.56657124817E+00  0.46478429248E+01  0.51100000000E-03 0.  1.
         12    1    3    3    0    0 -0.26508213000E+02  0.11842675285E+02  0.58206590132E+00  0.29039165192E+02  0.00000000000E+00 0. -1.
</event>
<event>
 7    1  0.1541902E-008  0.4614232E+02  0.7816164E-02  0.1320468E+00
        -11   -1    0    0    0    0  0.00000000000E+00  0.00000000000E+00  0.45593999997E+02  0.45594000000E+02  0.51100000000E-03 0.  1.
         11   -1    0    0    0    0 -0.00000000000E+00 -0.00000000000E+00 -0.45593999997E+02  0.45594000000E+02  0.51100000000E-03 0. -1.
    9900012    2    1    2    0    0 -0.12588637421E+02  0.43126050325E+02 -0.32838232537E+01  0.46142317589E+02  0.99999984278E+01 0.  0.
         12    1    1    2    0    0  0.12588637421E+02 -0.43126050325E+02  0.32838232537E+01  0.45045682411E+02  0.00000000000E+00 0. -1.
         11    1    3    3    0    0 -0.36627690952E+01  0.59161351517E+01 -0.31246192463E+01  0.76275669957E+01  0.51100000000E-03 0. -1.
        -11    1    3    3    0    0 -0.59344431672E+00  0.90587063301E+01 -0.10780049059E+01  0.91419052374E+01  0.51100000000E-03 0.  1.
         12    1    3    3    0    0 -0.83324240086E+01  0.28151208843E+02  0.91880089853E+00  0.29372845356E+02  0.00000000000E+00 0. -1.
</event>
<event>
 7    1  0.1541902E-008  0.4614232E+02  0.7816164E-02  0.1320468E+00
        -11   -1    0    0    0    0  0.00000000000E+00  0.00000000000E+00  0.45593999997E+02  0.45594000000E+02  0.51100000000E-03 0. -1.
         11   -1    0    0    0    0 -0.00000000000E+00 -0.00000000000E+00 -0.45593999997E+02  0.45594000000E+02  0.51100000000E-03 0.  1.
    9900012    2    1    2    0    0  0.41600211265E+01 -0.28503683350E+02 -0.34631600808E+02  0.46142317468E+02  0.99999973256E+01 0.  0.
         12    1    1    2    0    0 -0.41600211265E+01  0.28503683350E+02  0.34631600808E+02  0.45045682532E+02  0.00000000000E+00 0. -1.
         11    1    3    3    0    0  0.32596195378E+01 -0.85018271834E+01 -0.16665570587E+02  0.18990719529E+02  0.51100000000E-03 0. -1.
        -11    1    3    3    0    0  0.19808503557E+00 -0.16919633042E+02 -0.16613055469E+02  0.23713009768E+02  0.51100000000E-03 0.  1.
         12    1    3    3    0    0  0.70231655311E+00 -0.30822231250E+01 -0.13529747514E+01  0.34385881711E+01  0.00000000000E+00 0. -1.
</event>
<event>
 7    1  0.1541902E-008  0.4614232E+02  0.7816164E-02  0.1320468E+00
        -11   -1    0    0    0    0  0.00000000000E+00  0.00000000000E+00  0.45593999997E+02  0.45594000000E+02  0.51100000000E-03 0. -1.
         11   -1    0    0    0    0 -0.00000000000E+00 -0.00000000000E+00 -0.45593999997E+02  0.45594000000E+02  0.51100000000E-03 0.  1.
    9900012    2    1    2    0    0  0.20123227812E+02  0.25658130764E+02 -0.31077796283E+02  0.46142318812E+02  0.10000009584E+02 0.  0.
         12    1    1    2    0    0 -0.20123227812E+02 -0.25658130764E+02  0.31077796283E+02  0.45045681188E+02  0.00000000000E+00 0. -1.
         11    1    3    3    0    0  0.23990448221E+01  0.38914382876E+00 -0.92444746292E+00  0.26002792832E+01  0.51100000000E-03 0. -1.
        -11    1    3    3    0    0  0.54794847561E+01  0.91480695551E+01 -0.68527907050E+01  0.12675672388E+02  0.51100000000E-03 0.  1.
        -12    1    3    3    0    0  0.12244698234E+02  0.16120917380E+02 -0.23300558115E+02  0.30866367141E+02  0.00000000000E+00 0.  1.
</event>
<event>
 7    1  0.1541902E-008  0.4614232E+02  0.7816164E-02  0.1320468E+00
        -11   -1    0    0    0    0  0.00000000000E+00  0.00000000000E+00  0.45593999997E+02  0.45594000000E+02  0.51100000000E-03 0. -1.
         11   -1    0    0    0    0 -0.00000000000E+00 -0.00000000000E+00 -0.45593999997E+02  0.45594000000E+02  0.51100000000E-03 0.  1.
    9900012    2    1    2    0    0  0.29823317714E+02  0.85393068552E+01 -0.32661345123E+02  0.46142317563E+02  0.99999981901E+01 0.  0.
         12    1    1    2    0    0 -0.29823317714E+02 -0.85393068552E+01  0.32661345123E+02  0.45045682437E+02  0.00000000000E+00 0. -1.
         11    1    3    3    0    0  0.18384941394E+02  0.28977327971E+01 -0.16999835078E+02  0.25207088653E+02  0.51100000000E-03 0. -1.
        -11    1    3    3    0    0  0.98767804780E+01  0.56207467935E+01 -0.10253170035E+02  0.15305916606E+02  0.51100000000E-03 0.  1.
         12    1    3    3    0    0  0.15615958418E+01  0.20827264646E-01 -0.54083400099E+01  0.56293123035E+01  0.00000000000E+00 0. -1.
</event>
<event>
 7    1  0.1541902E-008  0.4614232E+02  0.7816164E-02  0.1320468E+00
        -11   -1    0    0    0    0  0.00000000000E+00  0.00000000000E+00  0.45593999997E+02  0.45594000000E+02  0.51100000000E-03 0.  1.
         11   -1    0    0    0    0 -0.00000000000E+00 -0.00000000000E+00 -0.45593999997E+02  0.45594000000E+02  0.51100000000E-03 0. -1.
    9900012    2    1    2    0    0 -0.19621684955E+02 -0.25683316580E+02  0.31376268612E+02  0.46142317598E+02  0.99999985168E+01 0.  0.
         12    1    1    2    0    0  0.19621684955E+02  0.25683316580E+02 -0.31376268612E+02  0.45045682402E+02  0.00000000000E+00 0. -1.
         11    1    3    3    0    0 -0.60196528010E+01 -0.76077685575E+01  0.90488802160E+01  0.13266370856E+02  0.51100000000E-03 0. -1.
        -11    1    3    3    0    0 -0.13316432317E+02 -0.16139644025E+02  0.16255016464E+02  0.26496057054E+02  0.51100000000E-03 0.  1.
         12    1    3    3    0    0 -0.28559983670E+00 -0.19359039977E+01  0.60723719317E+01  0.63798896881E+01  0.00000000000E+00 0. -1.
</event>
<event>
 7    1  0.1541902E-008  0.4614232E+02  0.7816164E-02  0.1320468E+00
        -11   -1    0    0    0    0  0.00000000000E+00  0.00000000000E+00  0.45593999997E+02  0.45594000000E+02  0.51100000000E-03 0.  1.
         11   -1    0    0    0    0 -0.00000000000E+00 -0.00000000000E+00 -0.45593999997E+02  0.45594000000E+02  0.51100000000E-03 0. -1.
    9900012    2    1    2    0    0 -0.40356517001E+01 -0.66957450668E+01  0.44362078392E+02  0.46142317789E+02  0.10000000253E+02 0.  0.
         12    1    1    2    0    0  0.40356517001E+01  0.66957450668E+01 -0.44362078392E+02  0.45045682211E+02  0.00000000000E+00 0. -1.
         11    1    3    3    0    0  0.13706632856E+01 -0.58537799204E+01  0.14426161730E+02  0.15628806728E+02  0.51100000000E-03 0. -1.
        -11    1    3    3    0    0 -0.13685054580E+01 -0.12268758871E+01  0.10365328529E+02  0.10527016073E+02  0.51100000000E-03 0.  1.
         12    1    3    3    0    0 -0.40378095277E+01  0.38491074070E+00  0.19570588132E+02  0.19986494988E+02  0.00000000000E+00 0. -1.
</event>
<event>
 7    1  0.1541902E-008  0.4614232E+02  0.7816164E-02  0.1320468E+00
        -11   -1    0    0    0    0  0.00000000000E+00  0.00000000000E+00  0.45593999997E+02  0.45594000000E+02  0.51100000000E-03 0. -1.
         11   -1    0    0    0    0 -0.00000000000E+00 -0.00000000000E+00 -0.45593999997E+02  0.45594000000E+02  0.51100000000E-03 0.  1.
    9900012    2    1    2    0    0 -0.44997564110E+02  0.44731054993E+00  0.20328735897E+01  0.46142318324E+02  0.10000005136E+02 0.  0.
         12    1    1    2    0    0  0.44997564110E+02 -0.44731054993E+00 -0.20328735897E+01  0.45045681676E+02  0.00000000000E+00 0. -1.
         11    1    3    3    0    0 -0.29031978607E+02 -0.21171931852E+01 -0.74657191950E+00  0.29118647955E+02  0.51100000000E-03 0. -1.
        -11    1    3    3    0    0 -0.88476192439E+01  0.34489079750E+01  0.26131028079E+01  0.98490425449E+01  0.51100000000E-03 0.  1.
         12    1    3    3    0    0 -0.71179662595E+01 -0.88440423988E+00  0.16634270136E+00  0.71746278248E+01  0.00000000000E+00 0. -1.
</event>
<event>
 7    1  0.1541902E-008  0.4614232E+02  0.7816164E-02  0.1320468E+00
        -11   -1    0    0    0    0  0.00000000000E+00  0.00000000000E+00  0.45593999997E+02  0.45594000000E+02  0.51100000000E-03 0. -1.
         11   -1    0    0    0    0 -0.00000000000E+00 -0.00000000000E+00 -0.45593999997E+02  0.45594000000E+02  0.51100000000E-03 0.  1.
    9900012    2    1    2    0    0 -0.30511739778E+02  0.21335368167E+02 -0.25356444445E+02  0.46142317921E+02  0.10000001461E+02 0.  0.
         12    1    1    2    0    0  0.30511739778E+02 -0.21335368167E+02  0.25356444445E+02  0.45045682079E+02  0.00000000000E+00 0. -1.
         11    1    3    3    0    0 -0.92260434627E+01  0.26797157099E+01 -0.56808746226E+01  0.11161231608E+02  0.51100000000E-03 0. -1.
        -11    1    3    3    0    0 -0.10489573915E+02  0.76928765837E+01 -0.57260043178E+01  0.14212622445E+02  0.51100000000E-03 0.  1.
         12    1    3    3    0    0 -0.10796122400E+02  0.10962775873E+02 -0.13949565504E+02  0.20768463869E+02  0.00000000000E+00 0. -1.
</event>
<event>
 7    1  0.1541902E-008  0.4614232E+02  0.7816164E-02  0.1320468E+00
        -11   -1    0    0    0    0  0.00000000000E+00  0.00000000000E+00  0.45593999997E+02  0.45594000000E+02  0.51100000000E-03 0.  1.
         11   -1    0    0    0    0 -0.00000000000E+00 -0.00000000000E+00 -0.45593999997E+02  0.45594000000E+02  0.51100000000E-03 0. -1.
    9900012    2    1    2    0    0 -0.13311110523E+02  0.27377444842E+02  0.33202459507E+02  0.46142318002E+02  0.10000002194E+02 0.  0.
         12    1    1    2    0    0  0.13311110523E+02 -0.27377444842E+02 -0.33202459507E+02  0.45045681998E+02  0.00000000000E+00 0. -1.
         11    1    3    3    0    0 -0.28629964757E+01  0.10805348399E+01  0.61323315460E+01  0.68534513066E+01  0.51100000000E-03 0. -1.
        -11    1    3    3    0    0 -0.69443617155E+01  0.17328217256E+02  0.15723716334E+02  0.24407509674E+02  0.51100000000E-03 0.  1.
        -12    1    3    3    0    0 -0.35037523313E+01  0.89686927459E+01  0.11346411627E+02  0.14881357021E+02  0.00000000000E+00 0.  1.
</event>
<event>
 7    1  0.1541902E-008  0.4614232E+02  0.7816164E-02  0.1320468E+00
        -11   -1    0    0    0    0  0.00000000000E+00  0.00000000000E+00  0.45593999997E+02  0.45594000000E+02  0.51100000000E-03 0.  1.
         11   -1    0    0    0    0 -0.00000000000E+00 -0.00000000000E+00 -0.45593999997E+02  0.45594000000E+02  0.51100000000E-03 0. -1.
    9900012    2    1    2    0    0  0.43827830532E+02 -0.30990903858E+01  0.99312822079E+01  0.46142318113E+02  0.10000003211E+02 0.  0.
         12    1    1    2    0    0 -0.43827830532E+02  0.30990903858E+01 -0.99312822079E+01  0.45045681887E+02  0.00000000000E+00 0. -1.
         11    1    3    3    0    0  0.24566052273E+00  0.11283430858E+01 -0.20235325267E+00  0.11723712346E+01  0.51100000000E-03 0. -1.
        -11    1    3    3    0    0  0.36087719451E+02 -0.32521129494E+01  0.78465249949E+01  0.37073814055E+02  0.51100000000E-03 0.  1.
        -12    1    3    3    0    0  0.74944505579E+01 -0.97532052217E+00  0.22871104657E+01  0.78961328236E+01  0.00000000000E+00 0.  1.
</event>
<event>
 7    1  0.1541902E-008  0.4614232E+02  0.7816164E-02  0.1320468E+00
        -11   -1    0    0    0    0  0.00000000000E+00  0.00000000000E+00  0.45593999997E+02  0.45594000000E+02  0.51100000000E-03 0. -1.
         11   -1    0    0    0    0 -0.00000000000E+00 -0.00000000000E+00 -0.45593999997E+02  0.45594000000E+02  0.51100000000E-03 0.  1.
    9900012    2    1    2    0    0 -0.23798318981E+02  0.10106572761E+02 -0.36886455635E+02  0.46142318647E+02  0.10000008074E+02 0.  0.
         12    1    1    2    0    0  0.23798318981E+02 -0.10106572761E+02  0.36886455635E+02  0.45045681353E+02  0.00000000000E+00 0. -1.
         11    1    3    3    0    0 -0.56565239080E+01  0.36930212033E+01 -0.55330620985E+01  0.87320928063E+01  0.51100000000E-03 0. -1.
        -11    1    3    3    0    0 -0.16612847940E+02  0.33455987311E+01 -0.25236885059E+02  0.30398686079E+02  0.51100000000E-03 0.  1.
        -12    1    3    3    0    0 -0.15289471335E+01  0.30679528267E+01 -0.61165084766E+01  0.70115397616E+01  0.00000000000E+00 0.  1.
</event>
<event>
 7    1  0.1541902E-008  0.4614232E+02  0.7816164E-02  0.1320468E+00
        -11   -1    0    0    0    0  0.00000000000E+00  0.00000000000E+00  0.45593999997E+02  0.45594000000E+02  0.51100000000E-03 0.  1.
         11   -1    0    0    0    0 -0.00000000000E+00 -0.00000000000E+00 -0.45593999997E+02  0.45594000000E+02  0.51100000000E-03 0. -1.
    9900012    2    1    2    0    0  0.29511668792E+02 -0.32896267746E+02 -0.87184028372E+01  0.46142316805E+02  0.99999912808E+01 0.  0.
         12    1    1    2    0    0 -0.29511668792E+02  0.32896267746E+02  0.87184028372E+01  0.45045683195E+02  0.00000000000E+00 0. -1.
         11    1    3    3    0    0  0.24550773968E+01 -0.54293782928E+01 -0.22060848444E+01  0.63539251075E+01  0.51100000000E-03 0. -1.
        -11    1    3    3    0    0  0.21628893073E+02 -0.23061857367E+02 -0.24705875585E+01  0.31713752284E+02  0.51100000000E-03 0.  1.
        -12    1    3    3    0    0  0.54276983224E+01 -0.44050320855E+01 -0.40417304343E+01  0.80746394134E+01  0.00000000000E+00 0.  1.
</event>
<event>
 7    1  0.1541902E-008  0.4614232E+02  0.7816164E-02  0.1320468E+00
        -11   -1    0    0    0    0  0.00000000000E+00  0.00000000000E+00  0.45593999997E+02  0.45594000000E+02  0.51100000000E-03 0.  1.
         11   -1    0    0    0    0 -0.00000000000E+00 -0.00000000000E+00 -0.45593999997E+02  0.45594000000E+02  0.51100000000E-03 0. -1.
    9900012    2    1    2    0    0  0.13889175754E+02 -0.41433570458E+02  0.10929936519E+02  0.46142317895E+02  0.10000001220E+02 0.  0.
         12    1    1    2    0    0 -0.13889175754E+02  0.41433570458E+02 -0.10929936519E+02  0.45045682105E+02  0.00000000000E+00 0. -1.
         11    1    3    3    0    0  0.92427541620E+00 -0.97034892413E+01 -0.97545307669E+00  0.97960960319E+01  0.51100000000E-03 0. -1.
        -11    1    3    3    0    0  0.73084956932E+01 -0.15119617508E+02  0.57175303590E+01  0.17739985811E+02  0.51100000000E-03 0.  1.
         12    1    3    3    0    0  0.56564046443E+01 -0.16610463708E+02  0.61878592368E+01  0.18606236052E+02  0.00000000000E+00 0. -1.
</event>
<event>
 7    1  0.1541902E-008  0.4614232E+02  0.7816164E-02  0.1320468E+00
        -11   -1    0    0    0    0  0.00000000000E+00  0.00000000000E+00  0.45593999997E+02  0.45594000000E+02  0.51100000000E-03 0. -1.
         11   -1    0    0    0    0 -0.00000000000E+00 -0.00000000000E+00 -0.45593999997E+02  0.45594000000E+02  0.51100000000E-03 0.  1.
    9900012    2    1    2    0    0 -0.30674234108E+02  0.30917811932E+02  0.11501899003E+02  0.46142318592E+02  0.10000007577E+02 0.  0.
         12    1    1    2    0    0  0.30674234108E+02 -0.30917811932E+02 -0.11501899003E+02  0.45045681408E+02  0.00000000000E+00 0. -1.
         11    1    3    3    0    0 -0.18449020441E+02  0.13793467115E+02  0.78509265536E+01  0.24336456979E+02  0.51100000000E-03 0. -1.
        -11    1    3    3    0    0 -0.96383253191E+01  0.12108129250E+02  0.44562582499E+01  0.16104730570E+02  0.51100000000E-03 0.  1.
         12    1    3    3    0    0 -0.25868883487E+01  0.50162155680E+01 -0.80528580001E+00  0.57011310433E+01  0.00000000000E+00 0. -1.
</event>
<event>
 7    1  0.1541902E-008  0.4614232E+02  0.7816164E-02  0.1320468E+00
        -11   -1    0    0    0    0  0.00000000000E+00  0.00000000000E+00  0.45593999997E+02  0.45594000000E+02  0.51100000000E-03 0.  1.
         11   -1    0    0    0    0 -0.00000000000E+00 -0.00000000000E+00 -0.45593999997E+02  0.45594000000E+02  0.51100000000E-03 0. -1.
    9900012    2    1    2    0    0 -0.52588552331E+01  0.20212074536E+01  0.44691975159E+02  0.46142317837E+02  0.10000000688E+02 0.  0.
         12    1    1    2    0    0  0.52588552331E+01 -0.20212074536E+01 -0.44691975159E+02  0.45045682163E+02  0.00000000000E+00 0. -1.
         11    1    3    3    0    0 -0.15475296655E+01  0.34157861476E+01  0.13374632400E+02  0.13890400828E+02  0.51100000000E-03 0. -1.
        -11    1    3    3    0    0 -0.13801861533E+01 -0.63727378673E+00  0.28403986701E+02  0.28444639081E+02  0.51100000000E-03 0.  1.
         12    1    3    3    0    0 -0.23311394143E+01 -0.75730490733E+00  0.29133560586E+01  0.38072779273E+01  0.00000000000E+00 0. -1.
</event>
<event>
 7    1  0.1541902E-008  0.4614232E+02  0.7816164E-02  0.1320468E+00
        -11   -1    0    0    0    0  0.00000000000E+00  0.00000000000E+00  0.45593999997E+02  0.45594000000E+02  0.51100000000E-03 0.  1.
         11   -1    0    0    0    0 -0.00000000000E+00 -0.00000000000E+00 -0.45593999997E+02  0.45594000000E+02  0.51100000000E-03 0. -1.
    9900012    2    1    2    0    0 -0.36791296042E+02  0.15790462960E+02  0.20644014204E+02  0.46142317550E+02  0.99999980727E+01 0.  0.
         12    1    1    2    0    0  0.36791296042E+02 -0.15790462960E+02 -0.20644014204E+02  0.45045682450E+02  0.00000000000E+00 0. -1.
         11    1    3    3    0    0 -0.11697420810E+01  0.19061936601E+00  0.22221655804E+01  0.25184623100E+01  0.51100000000E-03 0. -1.
        -11    1    3    3    0    0 -0.25421465900E+02  0.10016552303E+02  0.16261993012E+02  0.31796771307E+02  0.51100000000E-03 0.  1.
        -12    1    3    3    0    0 -0.10200088062E+02  0.55832912909E+01  0.21598556111E+01  0.11827083933E+02  0.00000000000E+00 0.  1.
</event>
<event>
 7    1  0.1541902E-008  0.4614232E+02  0.7816164E-02  0.1320468E+00
        -11   -1    0    0    0    0  0.00000000000E+00  0.00000000000E+00  0.45593999997E+02  0.45594000000E+02  0.51100000000E-03 0.  1.
         11   -1    0    0    0    0 -0.00000000000E+00 -0.00000000000E+00 -0.45593999997E+02  0.45594000000E+02  0.51100000000E-03 0. -1.
    9900012    2    1    2    0    0  0.27954435935E+02  0.25599749339E+02  0.24337531960E+02  0.46142321888E+02  0.10000037630E+02 0.  0.
         12    1    1    2    0    0 -0.27954435935E+02 -0.25599749339E+02 -0.24337531960E+02  0.45045678112E+02  0.00000000000E+00 0. -1.
         11    1    3    3    0    0  0.73277562270E+00  0.47675851064E+01  0.36058267368E+01  0.60223595523E+01  0.51100000000E-03 0. -1.
        -11    1    3    3    0    0  0.12014276781E+02  0.82263303839E+01  0.96932319828E+01  0.17492115500E+02  0.51100000000E-03 0.  1.
         12    1    3    3    0    0  0.15207383532E+02  0.12605833849E+02  0.11038473241E+02  0.22627846835E+02  0.00000000000E+00 0. -1.
</event>
<event>
 7    1  0.1541902E-008  0.4614232E+02  0.7816164E-02  0.1320468E+00
        -11   -1    0    0    0    0  0.00000000000E+00  0.00000000000E+00  0.45593999997E+02  0.45594000000E+02  0.51100000000E-03 0.  1.
         11   -1    0    0    0    0 -0.00000000000E+00 -0.00000000000E+00 -0.45593999997E+02  0.45594000000E+02  0.51100000000E-03 0. -1.
    9900012    2    1    2    0    0 -0.40313601621E+02 -0.30047946478E+01  0.19872043160E+02  0.46142319120E+02  0.10000012394E+02 0.  0.
         12    1    1    2    0    0  0.40313601621E+02  0.30047946478E+01 -0.19872043160E+02  0.45045680880E+02  0.00000000000E+00 0. -1.
         11    1    3    3    0    0 -0.24645335435E+02 -0.36157976495E+01  0.16750939146E+02  0.30017670028E+02  0.51100000000E-03 0.  1.
        -11    1    3    3    0    0 -0.12397406977E+02 -0.32312368034E+00  0.21451254554E+01  0.12585772609E+02  0.51100000000E-03 0. -1.
        -12    1    3    3    0    0 -0.32708592090E+01  0.93412668202E+00  0.97597855846E+00  0.35388764841E+01  0.00000000000E+00 0.  1.
</event>
<event>
 7    1  0.1541902E-008  0.4614232E+02  0.7816164E-02  0.1320468E+00
        -11   -1    0    0    0    0  0.00000000000E+00  0.00000000000E+00  0.45593999997E+02  0.45594000000E+02  0.51100000000E-03 0.  1.
         11   -1    0    0    0    0 -0.00000000000E+00 -0.00000000000E+00 -0.45593999997E+02  0.45594000000E+02  0.51100000000E-03 0. -1.
    9900012    2    1    2    0    0  0.15977234429E+02 -0.41176764956E+02  0.88496087236E+01  0.46142316890E+02  0.99999920561E+01 0.  0.
         12    1    1    2    0    0 -0.15977234429E+02  0.41176764956E+02 -0.88496087236E+01  0.45045683110E+02  0.00000000000E+00 0. -1.
         11    1    3    3    0    0  0.84554396945E+01 -0.13049096294E+02  0.21584118351E+01  0.15698156466E+02  0.51100000000E-03 0. -1.
        -11    1    3    3    0    0  0.27917179608E+01 -0.29713926378E+01  0.48867914647E+00  0.41062965004E+01  0.51100000000E-03 0.  1.
        -12    1    3    3    0    0  0.47300767742E+01 -0.25156276024E+02  0.62025177420E+01  0.26337863923E+02  0.00000000000E+00 0.  1.
</event>
<event>
 7    1  0.1541902E-008  0.4614232E+02  0.7816164E-02  0.1320468E+00
        -11   -1    0    0    0    0  0.00000000000E+00  0.00000000000E+00  0.45593999997E+02  0.45594000000E+02  0.51100000000E-03 0.  1.
         11   -1    0    0    0    0 -0.00000000000E+00 -0.00000000000E+00 -0.45593999997E+02  0.45594000000E+02  0.51100000000E-03 0. -1.
    9900012    2    1    2    0    0  0.45034818944E+02 -0.98599790537E+00  0.80243751651E-01  0.46142317097E+02  0.99999939431E+01 0.  0.
         12    1    1    2    0    0 -0.45034818944E+02  0.98599790537E+00 -0.80243751651E-01  0.45045682903E+02  0.00000000000E+00 0. -1.
         11    1    3    3    0    0  0.33752553181E-01  0.50514970853E+00 -0.10772825142E+00  0.51761095443E+00  0.51100000000E-03 0. -1.
        -11    1    3    3    0    0  0.38699542463E+02 -0.36489761339E+01  0.11878507271E+01  0.38889337913E+02  0.51100000000E-03 0.  1.
        -12    1    3    3    0    0  0.63015239275E+01  0.21578285200E+01 -0.99987872401E+00  0.67353682299E+01  0.00000000000E+00 0.  1.
</event>
<event>
 7    1  0.1541902E-008  0.4614232E+02  0.7816164E-02  0.1320468E+00
        -11   -1    0    0    0    0  0.00000000000E+00  0.00000000000E+00  0.45593999997E+02  0.45594000000E+02  0.51100000000E-03 0.  1.
         11   -1    0    0    0    0 -0.00000000000E+00 -0.00000000000E+00 -0.45593999997E+02  0.45594000000E+02  0.51100000000E-03 0. -1.
    9900012    2    1    2    0    0 -0.27439502002E+02  0.35691314925E+02  0.15222408888E+01  0.46142318204E+02  0.10000004038E+02 0.  0.
         12    1    1    2    0    0  0.27439502002E+02 -0.35691314925E+02 -0.15222408888E+01  0.45045681796E+02  0.00000000000E+00 0. -1.
         11    1    3    3    0    0 -0.74224334147E+01  0.13263110846E+02 -0.30525692329E+01  0.15502283906E+02  0.51100000000E-03 0. -1.
        -11    1    3    3    0    0 -0.12262031161E+02  0.14312258570E+02  0.46602558604E+01  0.19414328175E+02  0.51100000000E-03 0.  1.
        -12    1    3    3    0    0 -0.77550374261E+01  0.81159455088E+01 -0.85445738641E-01  0.11225706123E+02  0.00000000000E+00 0.  1.
</event>
<event>
 7    1  0.1541902E-008  0.4614232E+02  0.7816164E-02  0.1320468E+00
        -11   -1    0    0    0    0  0.00000000000E+00  0.00000000000E+00  0.45593999997E+02  0.45594000000E+02  0.51100000000E-03 0.  1.
         11   -1    0    0    0    0 -0.00000000000E+00 -0.00000000000E+00 -0.45593999997E+02  0.45594000000E+02  0.51100000000E-03 0. -1.
    9900012    2    1    2    0    0 -0.24406247107E+02 -0.35967988049E+02  0.11821693521E+02  0.46142317634E+02  0.99999988424E+01 0.  0.
         12    1    1    2    0    0  0.24406247107E+02  0.35967988049E+02 -0.11821693521E+02  0.45045682366E+02  0.00000000000E+00 0. -1.
         11    1    3    3    0    0 -0.17494689167E+02 -0.25195757238E+02  0.95431112905E+01  0.32124154544E+02  0.51100000000E-03 0. -1.
        -11    1    3    3    0    0 -0.93786349464E+00 -0.61859473358E+01  0.47905761212E+00  0.62749524965E+01  0.51100000000E-03 0.  1.
         12    1    3    3    0    0 -0.59736944456E+01 -0.45862834750E+01  0.17995246181E+01  0.77432105934E+01  0.00000000000E+00 0. -1.
</event>
<event>
 7    1  0.1541902E-008  0.4614232E+02  0.7816164E-02  0.1320468E+00
        -11   -1    0    0    0    0  0.00000000000E+00  0.00000000000E+00  0.45593999997E+02  0.45594000000E+02  0.51100000000E-03 0. -1.
         11   -1    0    0    0    0 -0.00000000000E+00 -0.00000000000E+00 -0.45593999997E+02  0.45594000000E+02  0.51100000000E-03 0.  1.
    9900012    2    1    2    0    0  0.38252777723E+02 -0.83956089356E+01 -0.22256504135E+02  0.46142320638E+02  0.10000026230E+02 0.  0.
         12    1    1    2    0    0 -0.38252777723E+02  0.83956089356E+01  0.22256504135E+02  0.45045679362E+02  0.00000000000E+00 0. -1.
         11    1    3    3    0    0  0.11955578204E+02 -0.42900108083E+01 -0.83403194599E+01  0.15195426018E+02  0.51100000000E-03 0.  1.
        -11    1    3    3    0    0  0.22850166818E+00  0.10139619416E+01 -0.24008848185E+00  0.10667589098E+01  0.51100000000E-03 0. -1.
         12    1    3    3    0    0  0.26068697851E+02 -0.51195600689E+01 -0.13676096194E+02  0.29880135710E+02  0.00000000000E+00 0. -1.
</event>
<event>
 7    1  0.1541902E-008  0.4614232E+02  0.7816164E-02  0.1320468E+00
        -11   -1    0    0    0    0  0.00000000000E+00  0.00000000000E+00  0.45593999997E+02  0.45594000000E+02  0.51100000000E-03 0.  1.
         11   -1    0    0    0    0 -0.00000000000E+00 -0.00000000000E+00 -0.45593999997E+02  0.45594000000E+02  0.51100000000E-03 0. -1.
    9900012    2    1    2    0    0  0.41424707842E+02 -0.26163887282E+01  0.17500328878E+02  0.46142318513E+02  0.10000006856E+02 0.  0.
         12    1    1    2    0    0 -0.41424707842E+02  0.26163887282E+01 -0.17500328878E+02  0.45045681487E+02  0.00000000000E+00 0. -1.
         11    1    3    3    0    0  0.84591567301E+01  0.27545762585E+01  0.49857144913E+01  0.10198155333E+02  0.51100000000E-03 0. -1.
        -11    1    3    3    0    0  0.27373053086E+02 -0.53073057833E+01  0.11905656681E+02  0.30318248485E+02  0.51100000000E-03 0.  1.
         12    1    3    3    0    0  0.55924980263E+01 -0.63659203418E-01  0.60895770575E+00  0.56259146950E+01  0.00000000000E+00 0. -1.
</event>
<event>
 7    1  0.1541902E-008  0.4614232E+02  0.7816164E-02  0.1320468E+00
        -11   -1    0    0    0    0  0.00000000000E+00  0.00000000000E+00  0.45593999997E+02  0.45594000000E+02  0.51100000000E-03 0.  1.
         11   -1    0    0    0    0 -0.00000000000E+00 -0.00000000000E+00 -0.45593999997E+02  0.45594000000E+02  0.51100000000E-03 0. -1.
    9900012    2    1    2    0    0 -0.62231039609E+01 -0.27632732447E+02  0.35025968696E+02  0.46142318648E+02  0.10000008084E+02 0.  0.
         12    1    1    2    0    0  0.62231039609E+01  0.27632732447E+02 -0.35025968696E+02  0.45045681352E+02  0.00000000000E+00 0. -1.
         11    1    3    3    0    0  0.48763896722E+00 -0.97176369508E-01  0.26945991605E+00  0.56554744860E+00  0.51100000000E-03 0.  1.
        -11    1    3    3    0    0 -0.38245708213E+00 -0.17997330553E+02  0.22314259149E+02  0.28670129788E+02  0.51100000000E-03 0. -1.
        -12    1    3    3    0    0 -0.63282858460E+01 -0.95382255242E+01  0.12442249632E+02  0.16906641411E+02  0.00000000000E+00 0.  1.
</event>
<event>
 7    1  0.1541902E-008  0.4614232E+02  0.7816164E-02  0.1320468E+00
        -11   -1    0    0    0    0  0.00000000000E+00  0.00000000000E+00  0.45593999997E+02  0.45594000000E+02  0.51100000000E-03 0.  1.
         11   -1    0    0    0    0 -0.00000000000E+00 -0.00000000000E+00 -0.45593999997E+02  0.45594000000E+02  0.51100000000E-03 0. -1.
    9900012    2    1    2    0    0  0.24660233467E+02 -0.99056719556E+01  0.36371195792E+02  0.46142319465E+02  0.10000015538E+02 0.  0.
         12    1    1    2    0    0 -0.24660233467E+02  0.99056719556E+01 -0.36371195792E+02  0.45045680535E+02  0.00000000000E+00 0. -1.
         11    1    3    3    0    0  0.16806381454E+02 -0.30750764457E+01  0.18955981434E+02  0.25519400172E+02  0.51100000000E-03 0. -1.
        -11    1    3    3    0    0  0.74249477338E+01 -0.46740432097E+01  0.14811108911E+02  0.17214687805E+02  0.51100000000E-03 0.  1.
         12    1    3    3    0    0  0.42890427888E+00 -0.21565523002E+01  0.26041054465E+01  0.34082314887E+01  0.00000000000E+00 0. -1.
</event>
<event>
 7    1  0.1541902E-008  0.4614232E+02  0.7816164E-02  0.1320468E+00
        -11   -1    0    0    0    0  0.00000000000E+00  0.00000000000E+00  0.45593999997E+02  0.45594000000E+02  0.51100000000E-03 0. -1.
         11   -1    0    0    0    0 -0.00000000000E+00 -0.00000000000E+00 -0.45593999997E+02  0.45594000000E+02  0.51100000000E-03 0.  1.
    9900012    2    1    2    0    0 -0.43235182552E+02  0.79533216350E+01 -0.98273705212E+01  0.46142317113E+02  0.99999940933E+01 0.  0.
         12    1    1    2    0    0  0.43235182552E+02 -0.79533216350E+01  0.98273705212E+01  0.45045682887E+02  0.00000000000E+00 0. -1.
         11    1    3    3    0    0 -0.18775980837E+02  0.77167023687E+01 -0.59021280902E+01  0.21140484103E+02  0.51100000000E-03 0. -1.
        -11    1    3    3    0    0 -0.19502558511E+02  0.14913665521E+01 -0.27093343305E+01  0.19746251681E+02  0.51100000000E-03 0.  1.
         12    1    3    3    0    0 -0.49566432046E+01 -0.12547472858E+01 -0.12159081006E+01  0.52555813302E+01  0.00000000000E+00 0. -1.
</event>
<event>
 7    1  0.1541902E-008  0.4614232E+02  0.7816164E-02  0.1320468E+00
        -11   -1    0    0    0    0  0.00000000000E+00  0.00000000000E+00  0.45593999997E+02  0.45594000000E+02  0.51100000000E-03 0. -1.
         11   -1    0    0    0    0 -0.00000000000E+00 -0.00000000000E+00 -0.45593999997E+02  0.45594000000E+02  0.51100000000E-03 0.  1.
    9900012    2    1    2    0    0 -0.76673636347E+01  0.18997407291E+01 -0.44347671967E+02  0.46142317756E+02  0.99999999524E+01 0.  0.
         12    1    1    2    0    0  0.76673636347E+01 -0.18997407291E+01  0.44347671967E+02  0.45045682244E+02  0.00000000000E+00 0. -1.
         11    1    3    3    0    0  0.40822688295E+00 -0.22784493131E+01 -0.52655321428E+01  0.57518526988E+01  0.51100000000E-03 0. -1.
        -11    1    3    3    0    0 -0.66345124994E+00  0.21060571905E+01 -0.52780867988E+01  0.57213499253E+01  0.51100000000E-03 0.  1.
         12    1    3    3    0    0 -0.74121392677E+01  0.20721328518E+01 -0.33804053025E+02  0.34669115132E+02  0.00000000000E+00 0. -1.
</event>
<event>
 7    1  0.1541902E-008  0.4614232E+02  0.7816164E-02  0.1320468E+00
        -11   -1    0    0    0    0  0.00000000000E+00  0.00000000000E+00  0.45593999997E+02  0.45594000000E+02  0.51100000000E-03 0.  1.
         11   -1    0    0    0    0 -0.00000000000E+00 -0.00000000000E+00 -0.45593999997E+02  0.45594000000E+02  0.51100000000E-03 0. -1.
    9900012    2    1    2    0    0  0.36377500092E+02  0.25757589515E+02  0.65067252964E+01  0.46142318691E+02  0.10000008475E+02 0.  0.
         12    1    1    2    0    0 -0.36377500092E+02 -0.25757589515E+02 -0.65067252964E+01  0.45045681309E+02  0.00000000000E+00 0. -1.
         11    1    3    3    0    0  0.14255120306E+00  0.10047214253E+01 -0.61710834175E+00  0.11876905971E+01  0.51100000000E-03 0. -1.
        -11    1    3    3    0    0  0.79535282855E+01  0.77868140790E+01  0.39971028143E+01  0.11826661273E+02  0.51100000000E-03 0.  1.
         12    1    3    3    0    0  0.28281420603E+02  0.16966054011E+02  0.31267308239E+01  0.33127966821E+02  0.00000000000E+00 0. -1.
</event>
<event>
 7    1  0.1541902E-008  0.4614232E+02  0.7816164E-02  0.1320468E+00
        -11   -1    0    0    0    0  0.00000000000E+00  0.00000000000E+00  0.45593999997E+02  0.45594000000E+02  0.51100000000E-03 0. -1.
         11   -1    0    0    0    0 -0.00000000000E+00 -0.00000000000E+00 -0.45593999997E+02  0.45594000000E+02  0.51100000000E-03 0.  1.
    9900012    2    1    2    0    0  0.23108817356E+02 -0.18223197295E+02 -0.34102947395E+02  0.46142318961E+02  0.10000010939E+02 0.  0.
         12    1    1    2    0    0 -0.23108817356E+02  0.18223197295E+02  0.34102947395E+02  0.45045681039E+02  0.00000000000E+00 0. -1.
         11    1    3    3    0    0  0.61480934079E+01 -0.45329424554E+01 -0.52289612831E+01  0.92568167432E+01  0.51100000000E-03 0. -1.
        -11    1    3    3    0    0  0.13051921988E+02 -0.11164527527E+02 -0.26703992652E+02  0.31750630959E+02  0.51100000000E-03 0.  1.
        -12    1    3    3    0    0  0.39088019600E+01 -0.25257273129E+01 -0.21699934599E+01  0.51348712582E+01  0.00000000000E+00 0.  1.
</event>
<event>
 7    1  0.1541902E-008  0.4614232E+02  0.7816164E-02  0.1320468E+00
        -11   -1    0    0    0    0  0.00000000000E+00  0.00000000000E+00  0.45593999997E+02  0.45594000000E+02  0.51100000000E-03 0.  1.
         11   -1    0    0    0    0 -0.00000000000E+00 -0.00000000000E+00 -0.45593999997E+02  0.45594000000E+02  0.51100000000E-03 0. -1.
    9900012    2    1    2    0    0 -0.14217150065E+02 -0.32721015928E+02  0.27501296256E+02  0.46142317243E+02  0.99999952726E+01 0.  0.
         12    1    1    2    0    0  0.14217150065E+02  0.32721015928E+02 -0.27501296256E+02  0.45045682757E+02  0.00000000000E+00 0. -1.
         11    1    3    3    0    0  0.61470914781E+00  0.37698994796E+00  0.48614790070E+00  0.86967166203E+00  0.51100000000E-03 0. -1.
        -11    1    3    3    0    0 -0.90942368236E+01 -0.18129156861E+02  0.14423202995E+02  0.24887753149E+02  0.51100000000E-03 0.  1.
         12    1    3    3    0    0 -0.57376223890E+01 -0.14968849014E+02  0.12591945360E+02  0.20384892432E+02  0.00000000000E+00 0. -1.
</event>
<event>
 7    1  0.1541902E-008  0.4614232E+02  0.7816164E-02  0.1320468E+00
        -11   -1    0    0    0    0  0.00000000000E+00  0.00000000000E+00  0.45593999997E+02  0.45594000000E+02  0.51100000000E-03 0.  1.
         11   -1    0    0    0    0 -0.00000000000E+00 -0.00000000000E+00 -0.45593999997E+02  0.45594000000E+02  0.51100000000E-03 0. -1.
    9900012    2    1    2    0    0 -0.44810221114E+02  0.45480835957E+01  0.68744508515E+00  0.46142316951E+02  0.99999926097E+01 0.  0.
         12    1    1    2    0    0  0.44810221114E+02 -0.45480835957E+01 -0.68744508515E+00  0.45045683049E+02  0.00000000000E+00 0. -1.
         11    1    3    3    0    0 -0.89561380495E+01 -0.25056515824E+01  0.87366375343E+00  0.93409842752E+01  0.51100000000E-03 0. -1.
        -11    1    3    3    0    0 -0.32117401439E+02  0.55917108367E+01  0.10040677103E+01  0.32615990825E+02  0.51100000000E-03 0.  1.
        -12    1    3    3    0    0 -0.37366816253E+01  0.14620243414E+01 -0.11902863786E+01  0.41853418506E+01  0.00000000000E+00 0.  1.
</event>
<event>
 7    1  0.1541902E-008  0.4614232E+02  0.7816164E-02  0.1320468E+00
        -11   -1    0    0    0    0  0.00000000000E+00  0.00000000000E+00  0.45593999997E+02  0.45594000000E+02  0.51100000000E-03 0. -1.
         11   -1    0    0    0    0 -0.00000000000E+00 -0.00000000000E+00 -0.45593999997E+02  0.45594000000E+02  0.51100000000E-03 0.  1.
    9900012    2    1    2    0    0  0.26045044432E+02  0.35666325077E+02 -0.88703129456E+01  0.46142317236E+02  0.99999952101E+01 0.  0.
         12    1    1    2    0    0 -0.26045044432E+02 -0.35666325077E+02  0.88703129456E+01  0.45045682764E+02  0.00000000000E+00 0. -1.
         11    1    3    3    0    0  0.15016301595E+02  0.19759194132E+02 -0.86657418718E+01  0.26287071894E+02  0.51100000000E-03 0.  1.
        -11    1    3    3    0    0  0.28945313101E+01  0.50124858612E+01 -0.20367096220E+01  0.61360828188E+01  0.51100000000E-03 0. -1.
         12    1    3    3    0    0  0.81342115264E+01  0.10894645084E+02  0.18321385482E+01  0.13719162523E+02  0.00000000000E+00 0. -1.
</event>
<event>
 7    1  0.1541902E-008  0.4614232E+02  0.7816164E-02  0.1320468E+00
        -11   -1    0    0    0    0  0.00000000000E+00  0.00000000000E+00  0.45593999997E+02  0.45594000000E+02  0.51100000000E-03 0.  1.
         11   -1    0    0    0    0 -0.00000000000E+00 -0.00000000000E+00 -0.45593999997E+02  0.45594000000E+02  0.51100000000E-03 0. -1.
    9900012    2    1    2    0    0  0.15501661559E+02 -0.42233603424E+02 -0.22659831713E+01  0.46142318198E+02  0.10000003985E+02 0.  0.
         12    1    1    2    0    0 -0.15501661559E+02  0.42233603424E+02  0.22659831713E+01  0.45045681802E+02  0.00000000000E+00 0. -1.
         11    1    3    3    0    0  0.68203961266E+01 -0.20138777237E+02  0.55681138616E-01  0.21262437597E+02  0.51100000000E-03 0. -1.
        -11    1    3    3    0    0  0.17420156283E+01 -0.13687312549E+02 -0.35327592005E+00  0.13802244289E+02  0.51100000000E-03 0.  1.
         12    1    3    3    0    0  0.69392498040E+01 -0.84075136382E+01 -0.19683883899E+01  0.11077636313E+02  0.00000000000E+00 0. -1.
</event>
<event>
 7    1  0.1541902E-008  0.4614232E+02  0.7816164E-02  0.1320468E+00
        -11   -1    0    0    0    0  0.00000000000E+00  0.00000000000E+00  0.45593999997E+02  0.45594000000E+02  0.51100000000E-03 0.  1.
         11   -1    0    0    0    0 -0.00000000000E+00 -0.00000000000E+00 -0.45593999997E+02  0.45594000000E+02  0.51100000000E-03 0. -1.
    9900012    2    1    2    0    0 -0.33104890739E+02 -0.48706814774E+01  0.30157191519E+02  0.46142317308E+02  0.99999958691E+01 0.  0.
         12    1    1    2    0    0  0.33104890739E+02  0.48706814774E+01 -0.30157191519E+02  0.45045682692E+02  0.00000000000E+00 0. -1.
         11    1    3    3    0    0 -0.47519764012E+00  0.10295092583E-01 -0.55557756739E+00  0.73115352739E+00  0.51100000000E-03 0. -1.
        -11    1    3    3    0    0 -0.14276070302E+02 -0.27892812105E+01  0.99668585677E+01  0.17633052569E+02  0.51100000000E-03 0.  1.
        -12    1    3    3    0    0 -0.18353622796E+02 -0.20916953595E+01  0.20745910519E+02  0.27778111211E+02  0.00000000000E+00 0.  1.
</event>
<event>
 7    1  0.1541902E-008  0.4614232E+02  0.7816164E-02  0.1320468E+00
        -11   -1    0    0    0    0  0.00000000000E+00  0.00000000000E+00  0.45593999997E+02  0.45594000000E+02  0.51100000000E-03 0. -1.
         11   -1    0    0    0    0 -0.00000000000E+00 -0.00000000000E+00 -0.45593999997E+02  0.45594000000E+02  0.51100000000E-03 0.  1.
    9900012    2    1    2    0    0  0.93313937445E+01  0.28641130666E+02 -0.33492151990E+02  0.46142317411E+02  0.99999968033E+01 0.  0.
         12    1    1    2    0    0 -0.93313937445E+01 -0.28641130666E+02  0.33492151990E+02  0.45045682589E+02  0.00000000000E+00 0. -1.
         11    1    3    3    0    0  0.15422212159E+01  0.69157070929E+01 -0.52906788906E+01  0.88428917361E+01  0.51100000000E-03 0. -1.
        -11    1    3    3    0    0 -0.87023817941E+00  0.88408641166E+01 -0.10585512115E+02  0.13819235139E+02  0.51100000000E-03 0.  1.
        -12    1    3    3    0    0  0.86594107080E+01  0.12884559456E+02 -0.17615960985E+02  0.23480190536E+02  0.00000000000E+00 0.  1.
</event>
<event>
 7    1  0.1541902E-008  0.4614232E+02  0.7816164E-02  0.1320468E+00
        -11   -1    0    0    0    0  0.00000000000E+00  0.00000000000E+00  0.45593999997E+02  0.45594000000E+02  0.51100000000E-03 0.  1.
         11   -1    0    0    0    0 -0.00000000000E+00 -0.00000000000E+00 -0.45593999997E+02  0.45594000000E+02  0.51100000000E-03 0. -1.
    9900012    2    1    2    0    0 -0.26565090961E+02 -0.31024375581E+02 -0.18997304283E+02  0.46142317544E+02  0.99999980177E+01 0.  0.
         12    1    1    2    0    0  0.26565090961E+02  0.31024375581E+02  0.18997304283E+02  0.45045682456E+02  0.00000000000E+00 0. -1.
         11    1    3    3    0    0 -0.14193641969E+02 -0.10780438635E+02 -0.94548788525E+01  0.20176026960E+02  0.51100000000E-03 0. -1.
        -11    1    3    3    0    0 -0.10495568212E+02 -0.13514845050E+02 -0.59942028347E+01  0.18131146039E+02  0.51100000000E-03 0.  1.
         12    1    3    3    0    0 -0.18758807792E+01 -0.67290918954E+01 -0.35482225962E+01  0.78351445441E+01  0.00000000000E+00 0. -1.
</event>
<event>
 7    1  0.1541902E-008  0.4614232E+02  0.7816164E-02  0.1320468E+00
        -11   -1    0    0    0    0  0.00000000000E+00  0.00000000000E+00  0.45593999997E+02  0.45594000000E+02  0.51100000000E-03 0. -1.
         11   -1    0    0    0    0 -0.00000000000E+00 -0.00000000000E+00 -0.45593999997E+02  0.45594000000E+02  0.51100000000E-03 0.  1.
    9900012    2    1    2    0    0 -0.17485805293E+02 -0.17997110109E+02 -0.37409412798E+02  0.46142317355E+02  0.99999962969E+01 0.  0.
         12    1    1    2    0    0  0.17485805293E+02  0.17997110109E+02  0.37409412798E+02  0.45045682645E+02  0.00000000000E+00 0. -1.
         11    1    3    3    0    0  0.71893795283E-01 -0.24145278948E+01 -0.15031559183E+01  0.28450995850E+01  0.51100000000E-03 0. -1.
        -11    1    3    3    0    0 -0.81298463743E+01 -0.10994239105E+02 -0.19143415541E+02  0.23525264173E+02  0.51100000000E-03 0.  1.
        -12    1    3    3    0    0 -0.94278527145E+01 -0.45883431095E+01 -0.16762841339E+02  0.19771953597E+02  0.00000000000E+00 0.  1.
</event>
<event>
 7    1  0.1541902E-008  0.4614232E+02  0.7816164E-02  0.1320468E+00
        -11   -1    0    0    0    0  0.00000000000E+00  0.00000000000E+00  0.45593999997E+02  0.45594000000E+02  0.51100000000E-03 0. -1.
         11   -1    0    0    0    0 -0.00000000000E+00 -0.00000000000E+00 -0.45593999997E+02  0.45594000000E+02  0.51100000000E-03 0.  1.
    9900012    2    1    2    0    0  0.35072704382E+02 -0.86810855621E+01 -0.26900886354E+02  0.46142317345E+02  0.99999962091E+01 0.  0.
         12    1    1    2    0    0 -0.35072704382E+02  0.86810855621E+01  0.26900886354E+02  0.45045682655E+02  0.00000000000E+00 0. -1.
         11    1    3    3    0    0  0.16541049598E+02  0.63356605344E+00 -0.11090854695E+02  0.19925229882E+02  0.51100000000E-03 0. -1.
        -11    1    3    3    0    0  0.10421824996E+02 -0.56055186134E+01 -0.10611729252E+02  0.15894812775E+02  0.51100000000E-03 0.  1.
         12    1    3    3    0    0  0.81098297886E+01 -0.37091330021E+01 -0.51983024069E+01  0.10322274688E+02  0.00000000000E+00 0. -1.
</event>
<event>
 7    1  0.1541902E-008  0.4614232E+02  0.7816164E-02  0.1320468E+00
        -11   -1    0    0    0    0  0.00000000000E+00  0.00000000000E+00  0.45593999997E+02  0.45594000000E+02  0.51100000000E-03 0. -1.
         11   -1    0    0    0    0 -0.00000000000E+00 -0.00000000000E+00 -0.45593999997E+02  0.45594000000E+02  0.51100000000E-03 0.  1.
    9900012    2    1    2    0    0 -0.16960110610E+02  0.33195358202E+02 -0.25289055545E+02  0.46142317761E+02  0.99999999986E+01 0.  0.
         12    1    1    2    0    0  0.16960110610E+02 -0.33195358202E+02  0.25289055545E+02  0.45045682239E+02  0.00000000000E+00 0. -1.
         11    1    3    3    0    0 -0.11221112203E+01  0.77204399966E+00 -0.12165843319E+01  0.18262703047E+01  0.51100000000E-03 0. -1.
        -11    1    3    3    0    0 -0.77455558521E+01  0.16713214426E+02 -0.17654541836E+02  0.25514858801E+02  0.51100000000E-03 0.  1.
        -12    1    3    3    0    0 -0.80924435372E+01  0.15710099776E+02 -0.64179293765E+01  0.18801188656E+02  0.00000000000E+00 0.  1.
</event>
<event>
 7    1  0.1541902E-008  0.4614232E+02  0.7816164E-02  0.1320468E+00
        -11   -1    0    0    0    0  0.00000000000E+00  0.00000000000E+00  0.45593999997E+02  0.45594000000E+02  0.51100000000E-03 0. -1.
         11   -1    0    0    0    0 -0.00000000000E+00 -0.00000000000E+00 -0.45593999997E+02  0.45594000000E+02  0.51100000000E-03 0.  1.
    9900012    2    1    2    0    0 -0.40819314584E+02 -0.78473756832E+00 -0.19033685982E+02  0.46142318096E+02  0.10000003050E+02 0.  0.
         12    1    1    2    0    0  0.40819314584E+02  0.78473756832E+00  0.19033685982E+02  0.45045681904E+02  0.00000000000E+00 0. -1.
         11    1    3    3    0    0 -0.47998796726E+01  0.26170063887E+00  0.80988256647E+00  0.48747555968E+01  0.51100000000E-03 0. -1.
        -11    1    3    3    0    0 -0.22366959045E+02 -0.22352445713E+01 -0.12474710673E+02  0.25707889487E+02  0.51100000000E-03 0.  1.
        -12    1    3    3    0    0 -0.13652475867E+02  0.11888063642E+01 -0.73688578751E+01  0.15559673012E+02  0.00000000000E+00 0.  1.
</event>
<event>
 7    1  0.1541902E-008  0.4614232E+02  0.7816164E-02  0.1320468E+00
        -11   -1    0    0    0    0  0.00000000000E+00  0.00000000000E+00  0.45593999997E+02  0.45594000000E+02  0.51100000000E-03 0.  1.
         11   -1    0    0    0    0 -0.00000000000E+00 -0.00000000000E+00 -0.45593999997E+02  0.45594000000E+02  0.51100000000E-03 0. -1.
    9900012    2    1    2    0    0 -0.36221396324E+02  0.22412439549E+02 -0.14656276831E+02  0.46142318201E+02  0.10000004007E+02 0.  0.
         12    1    1    2    0    0  0.36221396324E+02 -0.22412439549E+02  0.14656276831E+02  0.45045681799E+02  0.00000000000E+00 0. -1.
         11    1    3    3    0    0 -0.15056043419E+02  0.59037299807E+01 -0.40810995942E+01  0.16679144021E+02  0.51100000000E-03 0. -1.
        -11    1    3    3    0    0 -0.21126975210E+02  0.15583179744E+02 -0.92254051829E+01  0.27826114955E+02  0.51100000000E-03 0.  1.
         12    1    3    3    0    0 -0.38377694704E-01  0.92552982482E+00 -0.13497720542E+01  0.16370592238E+01  0.00000000000E+00 0. -1.
</event>
<event>
 7    1  0.1541902E-008  0.4614232E+02  0.7816164E-02  0.1320468E+00
        -11   -1    0    0    0    0  0.00000000000E+00  0.00000000000E+00  0.45593999997E+02  0.45594000000E+02  0.51100000000E-03 0.  1.
         11   -1    0    0    0    0 -0.00000000000E+00 -0.00000000000E+00 -0.45593999997E+02  0.45594000000E+02  0.51100000000E-03 0. -1.
    9900012    2    1    2    0    0 -0.35791448216E+02 -0.21553570355E+02  0.16838325029E+02  0.46142319295E+02  0.10000013983E+02 0.  0.
         12    1    1    2    0    0  0.35791448216E+02  0.21553570355E+02 -0.16838325029E+02  0.45045680705E+02  0.00000000000E+00 0. -1.
         11    1    3    3    0    0 -0.18695543580E+02 -0.14518411516E+02  0.66987290357E+01  0.24600418566E+02  0.51100000000E-03 0.  1.
        -11    1    3    3    0    0 -0.78801852959E-01 -0.30944698251E-01  0.98453363424E+00  0.98816701243E+00  0.51100000000E-03 0. -1.
        -12    1    3    3    0    0 -0.17017102783E+02 -0.70042141412E+01  0.91550623595E+01  0.20553733716E+02  0.00000000000E+00 0.  1.
</event>
<event>
 7    1  0.1541902E-008  0.4614232E+02  0.7816164E-02  0.1320468E+00
        -11   -1    0    0    0    0  0.00000000000E+00  0.00000000000E+00  0.45593999997E+02  0.45594000000E+02  0.51100000000E-03 0.  1.
         11   -1    0    0    0    0 -0.00000000000E+00 -0.00000000000E+00 -0.45593999997E+02  0.45594000000E+02  0.51100000000E-03 0. -1.
    9900012    2    1    2    0    0 -0.43168104252E+02  0.12639863311E+02  0.24211585825E+01  0.46142318985E+02  0.10000011163E+02 0.  0.
         12    1    1    2    0    0  0.43168104252E+02 -0.12639863311E+02 -0.24211585825E+01  0.45045681015E+02  0.00000000000E+00 0. -1.
         11    1    3    3    0    0 -0.23582392836E+02  0.92424923394E+01 -0.28585478578E+01  0.25489688359E+02  0.51100000000E-03 0.  1.
        -11    1    3    3    0    0 -0.10357939723E+02  0.85906655053E+00  0.29069312833E+01  0.10792365838E+02  0.51100000000E-03 0. -1.
        -12    1    3    3    0    0 -0.92277716925E+01  0.25383044210E+01  0.23727751570E+01  0.98602647879E+01  0.00000000000E+00 0.  1.
</event>
<event>
 7    1  0.1541902E-008  0.4614232E+02  0.7816164E-02  0.1320468E+00
        -11   -1    0    0    0    0  0.00000000000E+00  0.00000000000E+00  0.45593999997E+02  0.45594000000E+02  0.51100000000E-03 0. -1.
         11   -1    0    0    0    0 -0.00000000000E+00 -0.00000000000E+00 -0.45593999997E+02  0.45594000000E+02  0.51100000000E-03 0.  1.
    9900012    2    1    2    0    0  0.33562860307E+02  0.26270981302E+02 -0.14576810917E+02  0.46142317997E+02  0.10000002152E+02 0.  0.
         12    1    1    2    0    0 -0.33562860307E+02 -0.26270981302E+02  0.14576810917E+02  0.45045682003E+02  0.00000000000E+00 0. -1.
         11    1    3    3    0    0  0.76940946802E+01  0.91676466171E+01 -0.14541452817E+01  0.12056507629E+02  0.51100000000E-03 0. -1.
        -11    1    3    3    0    0  0.16614931303E+02  0.12460356749E+02 -0.63624553296E+01  0.21720894793E+02  0.51100000000E-03 0.  1.
         12    1    3    3    0    0  0.92538343237E+01  0.46429779366E+01 -0.67602103056E+01  0.12364915575E+02  0.00000000000E+00 0. -1.
</event>
<event>
 7    1  0.1541902E-008  0.4614232E+02  0.7816164E-02  0.1320468E+00
        -11   -1    0    0    0    0  0.00000000000E+00  0.00000000000E+00  0.45593999997E+02  0.45594000000E+02  0.51100000000E-03 0.  1.
         11   -1    0    0    0    0 -0.00000000000E+00 -0.00000000000E+00 -0.45593999997E+02  0.45594000000E+02  0.51100000000E-03 0. -1.
    9900012    2    1    2    0    0 -0.16905399365E+02 -0.17726166176E+02  0.37803491720E+02  0.46142317841E+02  0.10000000726E+02 0.  0.
         12    1    1    2    0    0  0.16905399365E+02  0.17726166176E+02 -0.37803491720E+02  0.45045682159E+02  0.00000000000E+00 0. -1.
         11    1    3    3    0    0 -0.49681715439E+01 -0.85154265055E+01  0.11413888324E+02  0.15082177031E+02  0.51100000000E-03 0. -1.
        -11    1    3    3    0    0 -0.46053141328E+01 -0.35425144217E-02  0.77822204298E+01  0.90427808715E+01  0.51100000000E-03 0.  1.
        -12    1    3    3    0    0 -0.73319136878E+01 -0.92071971558E+01  0.18607382967E+02  0.22017359938E+02  0.00000000000E+00 0.  1.
</event>
<event>
 7    1  0.1541902E-008  0.4614232E+02  0.7816164E-02  0.1320468E+00
        -11   -1    0    0    0    0  0.00000000000E+00  0.00000000000E+00  0.45593999997E+02  0.45594000000E+02  0.51100000000E-03 0.  1.
         11   -1    0    0    0    0 -0.00000000000E+00 -0.00000000000E+00 -0.45593999997E+02  0.45594000000E+02  0.51100000000E-03 0. -1.
    9900012    2    1    2    0    0 -0.36494586484E+02 -0.43044624816E+01  0.26052452063E+02  0.46142317650E+02  0.99999989870E+01 0.  0.
         12    1    1    2    0    0  0.36494586484E+02  0.43044624816E+01 -0.26052452063E+02  0.45045682350E+02  0.00000000000E+00 0. -1.
         11    1    3    3    0    0 -0.22255045232E+01  0.10446423386E+01  0.47997912100E+01  0.53927862853E+01  0.51100000000E-03 0. -1.
        -11    1    3    3    0    0 -0.20188312534E+02 -0.27555266689E+01  0.11153469728E+02  0.23228447590E+02  0.51100000000E-03 0.  1.
        -12    1    3    3    0    0 -0.14080769427E+02 -0.25935781512E+01  0.10099191125E+02  0.17521083775E+02  0.00000000000E+00 0.  1.
</event>
<event>
 7    1  0.1541902E-008  0.4614232E+02  0.7816164E-02  0.1320468E+00
        -11   -1    0    0    0    0  0.00000000000E+00  0.00000000000E+00  0.45593999997E+02  0.45594000000E+02  0.51100000000E-03 0. -1.
         11   -1    0    0    0    0 -0.00000000000E+00 -0.00000000000E+00 -0.45593999997E+02  0.45594000000E+02  0.51100000000E-03 0.  1.
    9900012    2    1    2    0    0 -0.28867164071E+02 -0.32832065654E+02  0.10856135977E+02  0.46142318909E+02  0.10000010467E+02 0.  0.
         12    1    1    2    0    0  0.28867164071E+02  0.32832065654E+02 -0.10856135977E+02  0.45045681091E+02  0.00000000000E+00 0. -1.
         11    1    3    3    0    0  0.39670684758E+00 -0.21865593615E+01  0.80558835971E-01  0.22237149438E+01  0.51100000000E-03 0. -1.
        -11    1    3    3    0    0 -0.26305150298E+02 -0.28608721922E+02  0.89157918578E+01  0.39873691162E+02  0.51100000000E-03 0.  1.
        -12    1    3    3    0    0 -0.29587206204E+01 -0.20367843708E+01  0.18597852829E+01  0.40449128027E+01  0.00000000000E+00 0.  1.
</event>
<event>
 7    1  0.1541902E-008  0.4614232E+02  0.7816164E-02  0.1320468E+00
        -11   -1    0    0    0    0  0.00000000000E+00  0.00000000000E+00  0.45593999997E+02  0.45594000000E+02  0.51100000000E-03 0.  1.
         11   -1    0    0    0    0 -0.00000000000E+00 -0.00000000000E+00 -0.45593999997E+02  0.45594000000E+02  0.51100000000E-03 0. -1.
    9900012    2    1    2    0    0 -0.52556066677E+01 -0.18864765647E+02  0.40566153804E+02  0.46142316313E+02  0.99999867966E+01 0.  0.
         12    1    1    2    0    0  0.52556066677E+01  0.18864765647E+02 -0.40566153804E+02  0.45045683687E+02  0.00000000000E+00 0. -1.
         11    1    3    3    0    0  0.16814382542E+01 -0.23795632019E+01  0.28764203013E+01  0.40943069798E+01  0.51100000000E-03 0. -1.
        -11    1    3    3    0    0 -0.75453311220E+01 -0.13907113806E+02  0.30030117199E+02  0.33943302364E+02  0.51100000000E-03 0.  1.
        -12    1    3    3    0    0  0.60828620012E+00 -0.25780886393E+01  0.76596163038E+01  0.81047069690E+01  0.00000000000E+00 0.  1.
</event>
<event>
 7    1  0.1541902E-008  0.4614232E+02  0.7816164E-02  0.1320468E+00
        -11   -1    0    0    0    0  0.00000000000E+00  0.00000000000E+00  0.45593999997E+02  0.45594000000E+02  0.51100000000E-03 0. -1.
         11   -1    0    0    0    0 -0.00000000000E+00 -0.00000000000E+00 -0.45593999997E+02  0.45594000000E+02  0.51100000000E-03 0.  1.
    9900012    2    1    2    0    0  0.11793337014E+01  0.27158705429E+02 -0.35918344214E+02  0.46142316970E+02  0.99999927859E+01 0.  0.
         12    1    1    2    0    0 -0.11793337014E+01 -0.27158705429E+02  0.35918344214E+02  0.45045683030E+02  0.00000000000E+00 0. -1.
         11    1    3    3    0    0 -0.26729645925E+00  0.10831490432E+02 -0.18983132099E+02  0.21857537302E+02  0.51100000000E-03 0. -1.
        -11    1    3    3    0    0 -0.22982240063E+00  0.15390709547E+02 -0.14194311333E+02  0.20938128694E+02  0.51100000000E-03 0.  1.
         12    1    3    3    0    0  0.16764525612E+01  0.93650545025E+00 -0.27409007817E+01  0.33466509743E+01  0.00000000000E+00 0. -1.
</event>
<event>
 7    1  0.1541902E-008  0.4614232E+02  0.7816164E-02  0.1320468E+00
        -11   -1    0    0    0    0  0.00000000000E+00  0.00000000000E+00  0.45593999997E+02  0.45594000000E+02  0.51100000000E-03 0.  1.
         11   -1    0    0    0    0 -0.00000000000E+00 -0.00000000000E+00 -0.45593999997E+02  0.45594000000E+02  0.51100000000E-03 0. -1.
    9900012    2    1    2    0    0  0.24184164245E+02 -0.33635925692E+02  0.17687966911E+02  0.46142317955E+02  0.10000001771E+02 0.  0.
         12    1    1    2    0    0 -0.24184164245E+02  0.33635925692E+02 -0.17687966911E+02  0.45045682045E+02  0.00000000000E+00 0. -1.
         11    1    3    3    0    0  0.93287192048E+01 -0.10718128556E+02  0.74041825908E+01  0.16022646531E+02  0.51100000000E-03 0. -1.
        -11    1    3    3    0    0  0.13238933317E+02 -0.20114306103E+02  0.61191365301E+01  0.24845492499E+02  0.51100000000E-03 0.  1.
         12    1    3    3    0    0  0.16165117239E+01 -0.28034910329E+01  0.41646477899E+01  0.52741789256E+01  0.00000000000E+00 0. -1.
</event>
<event>
 7    1  0.1541902E-008  0.4614232E+02  0.7816164E-02  0.1320468E+00
        -11   -1    0    0    0    0  0.00000000000E+00  0.00000000000E+00  0.45593999997E+02  0.45594000000E+02  0.51100000000E-03 0. -1.
         11   -1    0    0    0    0 -0.00000000000E+00 -0.00000000000E+00 -0.45593999997E+02  0.45594000000E+02  0.51100000000E-03 0.  1.
    9900012    2    1    2    0    0  0.12378419569E+02  0.36019476284E+02 -0.24051730551E+02  0.46142315575E+02  0.99999800675E+01 0.  0.
         12    1    1    2    0    0 -0.12378419569E+02 -0.36019476284E+02  0.24051730551E+02  0.45045684425E+02  0.00000000000E+00 0. -1.
         11    1    3    3    0    0  0.12598563715E+01  0.12867353370E+02 -0.79062861799E+01  0.15154714852E+02  0.51100000000E-03 0. -1.
        -11    1    3    3    0    0 -0.31791106515E-02  0.53917998274E+01 -0.44403859796E+01  0.69848796263E+01  0.51100000000E-03 0.  1.
         12    1    3    3    0    0  0.11121742308E+02  0.17760323086E+02 -0.11705058392E+02  0.24002721097E+02  0.00000000000E+00 0. -1.
</event>
<event>
 7    1  0.1541902E-008  0.4614232E+02  0.7816164E-02  0.1320468E+00
        -11   -1    0    0    0    0  0.00000000000E+00  0.00000000000E+00  0.45593999997E+02  0.45594000000E+02  0.51100000000E-03 0. -1.
         11   -1    0    0    0    0 -0.00000000000E+00 -0.00000000000E+00 -0.45593999997E+02  0.45594000000E+02  0.51100000000E-03 0.  1.
    9900012    2    1    2    0    0 -0.28876349504E+02  0.34491692206E+02  0.23649593142E+01  0.46142318471E+02  0.10000006474E+02 0.  0.
         12    1    1    2    0    0  0.28876349504E+02 -0.34491692206E+02 -0.23649593142E+01  0.45045681529E+02  0.00000000000E+00 0. -1.
         11    1    3    3    0    0 -0.16922617598E+00  0.35124906985E+01 -0.11025397344E+00  0.35182928538E+01  0.51100000000E-03 0. -1.
        -11    1    3    3    0    0 -0.20422586733E+02  0.18517783903E+02  0.22311610472E+01  0.27658063009E+02  0.51100000000E-03 0.  1.
        -12    1    3    3    0    0 -0.82845365949E+01  0.12461417604E+02  0.24405224049E+00  0.14965962608E+02  0.00000000000E+00 0.  1.
</event>
<event>
 7    1  0.1541902E-008  0.4614232E+02  0.7816164E-02  0.1320468E+00
        -11   -1    0    0    0    0  0.00000000000E+00  0.00000000000E+00  0.45593999997E+02  0.45594000000E+02  0.51100000000E-03 0.  1.
         11   -1    0    0    0    0 -0.00000000000E+00 -0.00000000000E+00 -0.45593999997E+02  0.45594000000E+02  0.51100000000E-03 0. -1.
    9900012    2    1    2    0    0 -0.14016145814E+02  0.41207600583E+02  0.11601498128E+02  0.46142318208E+02  0.10000004071E+02 0.  0.
         12    1    1    2    0    0  0.14016145814E+02 -0.41207600583E+02 -0.11601498128E+02  0.45045681792E+02  0.00000000000E+00 0. -1.
         11    1    3    3    0    0 -0.37953711517E+01  0.10690844314E+02  0.76167584431E+01  0.13664333272E+02  0.51100000000E-03 0.  1.
        -11    1    3    3    0    0 -0.73794284165E+01  0.24008307443E+02  0.35045410189E+01  0.25360137974E+02  0.51100000000E-03 0. -1.
         12    1    3    3    0    0 -0.28413462456E+01  0.65084488265E+01  0.48019866626E+00  0.71178469620E+01  0.00000000000E+00 0. -1.
</event>
<event>
 7    1  0.1541902E-008  0.4614232E+02  0.7816164E-02  0.1320468E+00
        -11   -1    0    0    0    0  0.00000000000E+00  0.00000000000E+00  0.45593999997E+02  0.45594000000E+02  0.51100000000E-03 0.  1.
         11   -1    0    0    0    0 -0.00000000000E+00 -0.00000000000E+00 -0.45593999997E+02  0.45594000000E+02  0.51100000000E-03 0. -1.
    9900012    2    1    2    0    0  0.41280779179E+02 -0.20080967164E+01  0.17915866810E+02  0.46142318013E+02  0.10000002301E+02 0.  0.
         12    1    1    2    0    0 -0.41280779179E+02  0.20080967164E+01 -0.17915866810E+02  0.45045681987E+02  0.00000000000E+00 0. -1.
         11    1    3    3    0    0  0.54619155554E+01 -0.44593902011E+00  0.11277223118E+01  0.55949210019E+01  0.51100000000E-03 0. -1.
        -11    1    3    3    0    0  0.11267618347E+02 -0.32642874390E+01  0.21909385385E+01  0.11933775917E+02  0.51100000000E-03 0.  1.
        -12    1    3    3    0    0  0.24551245277E+02  0.17021297427E+01  0.14597205960E+02  0.28613621095E+02  0.00000000000E+00 0.  1.
</event>
<event>
 7    1  0.1541902E-008  0.4614232E+02  0.7816164E-02  0.1320468E+00
        -11   -1    0    0    0    0  0.00000000000E+00  0.00000000000E+00  0.45593999997E+02  0.45594000000E+02  0.51100000000E-03 0.  1.
         11   -1    0    0    0    0 -0.00000000000E+00 -0.00000000000E+00 -0.45593999997E+02  0.45594000000E+02  0.51100000000E-03 0. -1.
    9900012    2    1    2    0    0 -0.18956358561E+02 -0.26466848198E+02 -0.31133196392E+02  0.46142317621E+02  0.99999987220E+01 0.  0.
         12    1    1    2    0    0  0.18956358561E+02  0.26466848198E+02  0.31133196392E+02  0.45045682379E+02  0.00000000000E+00 0. -1.
         11    1    3    3    0    0 -0.44772203816E+01 -0.10769296074E+02 -0.14941876943E+02  0.18954760012E+02  0.51100000000E-03 0. -1.
        -11    1    3    3    0    0 -0.12704725584E+02 -0.15328431928E+02 -0.13973784064E+02  0.24323600039E+02  0.51100000000E-03 0.  1.
         12    1    3    3    0    0 -0.17744125958E+01 -0.36912019587E+00 -0.22175353855E+01  0.28639575703E+01  0.00000000000E+00 0. -1.
</event>
<event>
 7    1  0.1541902E-008  0.4614232E+02  0.7816164E-02  0.1320468E+00
        -11   -1    0    0    0    0  0.00000000000E+00  0.00000000000E+00  0.45593999997E+02  0.45594000000E+02  0.51100000000E-03 0. -1.
         11   -1    0    0    0    0 -0.00000000000E+00 -0.00000000000E+00 -0.45593999997E+02  0.45594000000E+02  0.51100000000E-03 0.  1.
    9900012    2    1    2    0    0 -0.22286837834E+02  0.32582292595E+02 -0.21698030870E+02  0.46142317909E+02  0.10000001350E+02 0.  0.
         12    1    1    2    0    0  0.22286837834E+02 -0.32582292595E+02  0.21698030870E+02  0.45045682091E+02  0.00000000000E+00 0. -1.
         11    1    3    3    0    0 -0.10798763799E+02  0.19012657070E+02 -0.12306381200E+02  0.25090664537E+02  0.51100000000E-03 0. -1.
        -11    1    3    3    0    0 -0.20291228644E+01  0.30616542118E+01 -0.50835147111E+01  0.62716176693E+01  0.51100000000E-03 0.  1.
         12    1    3    3    0    0 -0.94589511712E+01  0.10507981314E+02 -0.43081349592E+01  0.14780035703E+02  0.00000000000E+00 0. -1.
</event>
<event>
 7    1  0.1541902E-008  0.4614232E+02  0.7816164E-02  0.1320468E+00
        -11   -1    0    0    0    0  0.00000000000E+00  0.00000000000E+00  0.45593999997E+02  0.45594000000E+02  0.51100000000E-03 0. -1.
         11   -1    0    0    0    0 -0.00000000000E+00 -0.00000000000E+00 -0.45593999997E+02  0.45594000000E+02  0.51100000000E-03 0.  1.
    9900012    2    1    2    0    0  0.43231100855E+02 -0.84692091668E+01  0.94052068158E+01  0.46142317629E+02  0.99999987908E+01 0.  0.
         12    1    1    2    0    0 -0.43231100855E+02  0.84692091668E+01 -0.94052068158E+01  0.45045682371E+02  0.00000000000E+00 0. -1.
         11    1    3    3    0    0  0.12652171937E+01 -0.15334996069E+01  0.52402514272E+00  0.20559664888E+01  0.51100000000E-03 0. -1.
        -11    1    3    3    0    0  0.30115044325E+02 -0.36756653267E+01  0.30782849800E+01  0.30494298630E+02  0.51100000000E-03 0.  1.
        -12    1    3    3    0    0  0.11850839337E+02 -0.32600442332E+01  0.58028966930E+01  0.13592052510E+02  0.00000000000E+00 0.  1.
</event>
<event>
 7    1  0.1541902E-008  0.4614232E+02  0.7816164E-02  0.1320468E+00
        -11   -1    0    0    0    0  0.00000000000E+00  0.00000000000E+00  0.45593999997E+02  0.45594000000E+02  0.51100000000E-03 0. -1.
         11   -1    0    0    0    0 -0.00000000000E+00 -0.00000000000E+00 -0.45593999997E+02  0.45594000000E+02  0.51100000000E-03 0.  1.
    9900012    2    1    2    0    0 -0.27558356205E+02 -0.22925927882E+02 -0.27277322517E+02  0.46142317747E+02  0.99999998707E+01 0.  0.
         12    1    1    2    0    0  0.27558356205E+02  0.22925927882E+02  0.27277322517E+02  0.45045682253E+02  0.00000000000E+00 0. -1.
         11    1    3    3    0    0 -0.27208315251E+00 -0.81352683399E+00 -0.34843020707E+00  0.92588283375E+00  0.51100000000E-03 0. -1.
        -11    1    3    3    0    0 -0.21316012102E+02 -0.13727242477E+02 -0.22893527560E+02  0.34160257060E+02  0.51100000000E-03 0.  1.
        -12    1    3    3    0    0 -0.59702609496E+01 -0.83851585707E+01 -0.40353647499E+01  0.11056177853E+02  0.00000000000E+00 0.  1.
</event>
<event>
 7    1  0.1541902E-008  0.4614232E+02  0.7816164E-02  0.1320468E+00
        -11   -1    0    0    0    0  0.00000000000E+00  0.00000000000E+00  0.45593999997E+02  0.45594000000E+02  0.51100000000E-03 0.  1.
         11   -1    0    0    0    0 -0.00000000000E+00 -0.00000000000E+00 -0.45593999997E+02  0.45594000000E+02  0.51100000000E-03 0. -1.
    9900012    2    1    2    0    0  0.22634655831E+02 -0.20515222653E+02  0.33104552432E+02  0.46142318777E+02  0.10000009264E+02 0.  0.
         12    1    1    2    0    0 -0.22634655831E+02  0.20515222653E+02 -0.33104552432E+02  0.45045681223E+02  0.00000000000E+00 0. -1.
         11    1    3    3    0    0  0.11260145305E+02 -0.54407270386E+01  0.10777871401E+02  0.16509236663E+02  0.51100000000E-03 0. -1.
        -11    1    3    3    0    0  0.37576591899E+01 -0.71138867277E+01  0.12526120251E+02  0.14887278991E+02  0.51100000000E-03 0.  1.
        -12    1    3    3    0    0  0.76168513361E+01 -0.79606088867E+01  0.98005607802E+01  0.14745803123E+02  0.00000000000E+00 0.  1.
</event>
<event>
 7    1  0.1541902E-008  0.4614232E+02  0.7816164E-02  0.1320468E+00
        -11   -1    0    0    0    0  0.00000000000E+00  0.00000000000E+00  0.45593999997E+02  0.45594000000E+02  0.51100000000E-03 0.  1.
         11   -1    0    0    0    0 -0.00000000000E+00 -0.00000000000E+00 -0.45593999997E+02  0.45594000000E+02  0.51100000000E-03 0. -1.
    9900012    2    1    2    0    0  0.33997477704E+02  0.29549839614E+02  0.30328200064E+00  0.46142317727E+02  0.99999996894E+01 0.  0.
         12    1    1    2    0    0 -0.33997477704E+02 -0.29549839614E+02 -0.30328200064E+00  0.45045682273E+02  0.00000000000E+00 0. -1.
         11    1    3    3    0    0  0.26626350665E+01  0.55297229701E+01 -0.16015258734E+01  0.63428973670E+01  0.51100000000E-03 0. -1.
        -11    1    3    3    0    0  0.23486883086E+02  0.19548343289E+02  0.29821020198E+01  0.30702839203E+02  0.51100000000E-03 0.  1.
        -12    1    3    3    0    0  0.78479595514E+01  0.44717733554E+01 -0.10772941457E+01  0.90965811566E+01  0.00000000000E+00 0.  1.
</event>
<event>
 7    1  0.1541902E-008  0.4614232E+02  0.7816164E-02  0.1320468E+00
        -11   -1    0    0    0    0  0.00000000000E+00  0.00000000000E+00  0.45593999997E+02  0.45594000000E+02  0.51100000000E-03 0.  1.
         11   -1    0    0    0    0 -0.00000000000E+00 -0.00000000000E+00 -0.45593999997E+02  0.45594000000E+02  0.51100000000E-03 0. -1.
    9900012    2    1    2    0    0 -0.29346811034E+02 -0.24780724823E+02  0.23532826549E+02  0.46142316900E+02  0.99999921440E+01 0.  0.
         12    1    1    2    0    0  0.29346811034E+02  0.24780724823E+02 -0.23532826549E+02  0.45045683100E+02  0.00000000000E+00 0. -1.
         11    1    3    3    0    0 -0.35970930291E+01  0.27980419029E-01  0.14420859315E+01  0.38754965177E+01  0.51100000000E-03 0. -1.
        -11    1    3    3    0    0 -0.20590451814E+02 -0.17484257174E+02  0.15488022285E+02  0.31137514181E+02  0.51100000000E-03 0.  1.
        -12    1    3    3    0    0 -0.51592661904E+01 -0.73244480681E+01  0.66027183327E+01  0.11129306201E+02  0.00000000000E+00 0.  1.
</event>
<event>
 7    1  0.1541902E-008  0.4614232E+02  0.7816164E-02  0.1320468E+00
        -11   -1    0    0    0    0  0.00000000000E+00  0.00000000000E+00  0.45593999997E+02  0.45594000000E+02  0.51100000000E-03 0.  1.
         11   -1    0    0    0    0 -0.00000000000E+00 -0.00000000000E+00 -0.45593999997E+02  0.45594000000E+02  0.51100000000E-03 0. -1.
    9900012    2    1    2    0    0 -0.25322129785E+02 -0.12609051348E+02  0.35055885402E+02  0.46142317254E+02  0.99999953713E+01 0.  0.
         12    1    1    2    0    0  0.25322129785E+02  0.12609051348E+02 -0.35055885402E+02  0.45045682746E+02  0.00000000000E+00 0. -1.
         11    1    3    3    0    0 -0.13053068429E+02 -0.25256276466E+01  0.20391229414E+02  0.24342629844E+02  0.51100000000E-03 0. -1.
        -11    1    3    3    0    0 -0.10156731585E+02 -0.74924734259E+01  0.12781661193E+02  0.17962940117E+02  0.51100000000E-03 0.  1.
         12    1    3    3    0    0 -0.21123297716E+01 -0.25909502753E+01  0.18829947952E+01  0.38367472932E+01  0.00000000000E+00 0. -1.
</event>
<event>
 7    1  0.1541902E-008  0.4614232E+02  0.7816164E-02  0.1320468E+00
        -11   -1    0    0    0    0  0.00000000000E+00  0.00000000000E+00  0.45593999997E+02  0.45594000000E+02  0.51100000000E-03 0.  1.
         11   -1    0    0    0    0 -0.00000000000E+00 -0.00000000000E+00 -0.45593999997E+02  0.45594000000E+02  0.51100000000E-03 0. -1.
    9900012    2    1    2    0    0 -0.19585293955E+02 -0.25977863686E+02  0.31155742839E+02  0.46142318156E+02  0.10000003599E+02 0.  0.
         12    1    1    2    0    0  0.19585293955E+02  0.25977863686E+02 -0.31155742839E+02  0.45045681844E+02  0.00000000000E+00 0. -1.
         11    1    3    3    0    0 -0.68905811768E+00 -0.29567858090E+01  0.29212504605E+01  0.42132039974E+01  0.51100000000E-03 0.  1.
        -11    1    3    3    0    0 -0.47846754891E+00 -0.32753303004E+01  0.73820419325E+00  0.33914105419E+01  0.51100000000E-03 0. -1.
        -12    1    3    3    0    0 -0.18417768288E+02 -0.19745747577E+02  0.27496288185E+02  0.38537703616E+02  0.00000000000E+00 0.  1.
</event>
<event>
 7    1  0.1541902E-008  0.4614232E+02  0.7816164E-02  0.1320468E+00
        -11   -1    0    0    0    0  0.00000000000E+00  0.00000000000E+00  0.45593999997E+02  0.45594000000E+02  0.51100000000E-03 0. -1.
         11   -1    0    0    0    0 -0.00000000000E+00 -0.00000000000E+00 -0.45593999997E+02  0.45594000000E+02  0.51100000000E-03 0.  1.
    9900012    2    1    2    0    0 -0.23121814910E+02 -0.30966056094E+02 -0.23143005261E+02  0.46142315998E+02  0.99999839207E+01 0.  0.
         12    1    1    2    0    0  0.23121814910E+02  0.30966056094E+02  0.23143005261E+02  0.45045684002E+02  0.00000000000E+00 0. -1.
         11    1    3    3    0    0 -0.78826864324E+01 -0.13378344727E+02 -0.13928567826E+02  0.20859574659E+02  0.51100000000E-03 0. -1.
        -11    1    3    3    0    0 -0.69048066609E+01 -0.57265388747E+01 -0.45213294611E+01  0.10045497641E+02  0.51100000000E-03 0.  1.
         12    1    3    3    0    0 -0.83343218164E+01 -0.11861172492E+02 -0.46931079737E+01  0.15237243697E+02  0.00000000000E+00 0. -1.
</event>
<event>
 7    1  0.1541902E-008  0.4614232E+02  0.7816164E-02  0.1320468E+00
        -11   -1    0    0    0    0  0.00000000000E+00  0.00000000000E+00  0.45593999997E+02  0.45594000000E+02  0.51100000000E-03 0. -1.
         11   -1    0    0    0    0 -0.00000000000E+00 -0.00000000000E+00 -0.45593999997E+02  0.45594000000E+02  0.51100000000E-03 0.  1.
    9900012    2    1    2    0    0 -0.18212184107E+02  0.39565280359E+02  0.11489926669E+02  0.46142317913E+02  0.10000001383E+02 0.  0.
         12    1    1    2    0    0  0.18212184107E+02 -0.39565280359E+02 -0.11489926669E+02  0.45045682087E+02  0.00000000000E+00 0. -1.
         11    1    3    3    0    0 -0.42395049309E+01  0.88673400369E+01 -0.68561629776E+00  0.98525728293E+01  0.51100000000E-03 0. -1.
        -11    1    3    3    0    0 -0.11482883643E+02  0.18969162995E+02  0.72765636087E+01  0.23337397878E+02  0.51100000000E-03 0.  1.
        -12    1    3    3    0    0 -0.24897955336E+01  0.11728777327E+02  0.48989793579E+01  0.12952347206E+02  0.00000000000E+00 0.  1.
</event>
<event>
 7    1  0.1541902E-008  0.4614232E+02  0.7816164E-02  0.1320468E+00
        -11   -1    0    0    0    0  0.00000000000E+00  0.00000000000E+00  0.45593999997E+02  0.45594000000E+02  0.51100000000E-03 0.  1.
         11   -1    0    0    0    0 -0.00000000000E+00 -0.00000000000E+00 -0.45593999997E+02  0.45594000000E+02  0.51100000000E-03 0. -1.
    9900012    2    1    2    0    0 -0.32361483193E+02 -0.25877823348E+02  0.17668790224E+02  0.46142317813E+02  0.10000000471E+02 0.  0.
         12    1    1    2    0    0  0.32361483193E+02  0.25877823348E+02 -0.17668790224E+02  0.45045682187E+02  0.00000000000E+00 0. -1.
         11    1    3    3    0    0 -0.24890865485E+02 -0.20347544748E+02  0.15771695302E+02  0.35809553681E+02  0.51100000000E-03 0. -1.
        -11    1    3    3    0    0 -0.39236819893E+01 -0.41247673488E+01  0.28984686204E+01  0.63882788480E+01  0.51100000000E-03 0.  1.
         12    1    3    3    0    0 -0.35469357185E+01 -0.14055112518E+01 -0.10013736981E+01  0.39444852837E+01  0.00000000000E+00 0. -1.
</event>
<event>
 7    1  0.1541902E-008  0.4614232E+02  0.7816164E-02  0.1320468E+00
        -11   -1    0    0    0    0  0.00000000000E+00  0.00000000000E+00  0.45593999997E+02  0.45594000000E+02  0.51100000000E-03 0. -1.
         11   -1    0    0    0    0 -0.00000000000E+00 -0.00000000000E+00 -0.45593999997E+02  0.45594000000E+02  0.51100000000E-03 0.  1.
    9900012    2    1    2    0    0 -0.43140954612E+02  0.46381727102E+01 -0.12102021746E+02  0.46142317174E+02  0.99999946459E+01 0.  0.
         12    1    1    2    0    0  0.43140954612E+02 -0.46381727102E+01  0.12102021746E+02  0.45045682826E+02  0.00000000000E+00 0. -1.
         11    1    3    3    0    0 -0.10503472448E+02  0.19689971667E+01  0.14748144760E-01  0.10686444735E+02  0.51100000000E-03 0. -1.
        -11    1    3    3    0    0 -0.19533729215E+02  0.46144668719E+01 -0.75106450533E+01  0.21430577942E+02  0.51100000000E-03 0.  1.
        -12    1    3    3    0    0 -0.13103752949E+02 -0.19452913284E+01 -0.46061248370E+01  0.14025294497E+02  0.00000000000E+00 0.  1.
</event>
<event>
 7    1  0.1541902E-008  0.4614232E+02  0.7816164E-02  0.1320468E+00
        -11   -1    0    0    0    0  0.00000000000E+00  0.00000000000E+00  0.45593999997E+02  0.45594000000E+02  0.51100000000E-03 0. -1.
         11   -1    0    0    0    0 -0.00000000000E+00 -0.00000000000E+00 -0.45593999997E+02  0.45594000000E+02  0.51100000000E-03 0.  1.
    9900012    2    1    2    0    0  0.10458050249E+02  0.36371770394E+02 -0.24430247527E+02  0.46142317734E+02  0.99999997510E+01 0.  0.
         12    1    1    2    0    0 -0.10458050249E+02 -0.36371770394E+02  0.24430247527E+02  0.45045682266E+02  0.00000000000E+00 0. -1.
         11    1    3    3    0    0  0.11968225380E+01  0.13931068417E+00 -0.39888050375E+00  0.12692113976E+01  0.51100000000E-03 0. -1.
        -11    1    3    3    0    0  0.20268419851E+01  0.19361077754E+02 -0.13747533071E+02  0.23831787302E+02  0.51100000000E-03 0.  1.
        -12    1    3    3    0    0  0.72343857258E+01  0.16871381956E+02 -0.10283833952E+02  0.21041319034E+02  0.00000000000E+00 0.  1.
</event>
<event>
 7    1  0.1541902E-008  0.4614232E+02  0.7816164E-02  0.1320468E+00
        -11   -1    0    0    0    0  0.00000000000E+00  0.00000000000E+00  0.45593999997E+02  0.45594000000E+02  0.51100000000E-03 0.  1.
         11   -1    0    0    0    0 -0.00000000000E+00 -0.00000000000E+00 -0.45593999997E+02  0.45594000000E+02  0.51100000000E-03 0. -1.
    9900012    2    1    2    0    0 -0.24133973635E+02  0.27541319705E+01  0.37935201808E+02  0.46142318048E+02  0.10000002613E+02 0.  0.
         12    1    1    2    0    0  0.24133973635E+02 -0.27541319705E+01 -0.37935201808E+02  0.45045681952E+02  0.00000000000E+00 0. -1.
         11    1    3    3    0    0 -0.54956670775E+01 -0.16688697682E+01  0.14020462677E+02  0.15151265850E+02  0.51100000000E-03 0. -1.
        -11    1    3    3    0    0 -0.10900570460E+02  0.22635053915E+01  0.17358207989E+02  0.20621670104E+02  0.51100000000E-03 0.  1.
         12    1    3    3    0    0 -0.77377360974E+01  0.21594963472E+01  0.65565311420E+01  0.10369382094E+02  0.00000000000E+00 0. -1.
</event>
<event>
 7    1  0.1541902E-008  0.4614232E+02  0.7816164E-02  0.1320468E+00
        -11   -1    0    0    0    0  0.00000000000E+00  0.00000000000E+00  0.45593999997E+02  0.45594000000E+02  0.51100000000E-03 0.  1.
         11   -1    0    0    0    0 -0.00000000000E+00 -0.00000000000E+00 -0.45593999997E+02  0.45594000000E+02  0.51100000000E-03 0. -1.
    9900012    2    1    2    0    0 -0.43571335333E+02 -0.63446777661E+01  0.95077446674E+01  0.46142318661E+02  0.10000008207E+02 0.  0.
         12    1    1    2    0    0  0.43571335333E+02  0.63446777661E+01 -0.95077446674E+01  0.45045681339E+02  0.00000000000E+00 0. -1.
         11    1    3    3    0    0 -0.21174354687E+02  0.16698386445E+01  0.54444732447E+01  0.21926786055E+02  0.51100000000E-03 0. -1.
        -11    1    3    3    0    0 -0.18910375249E+02 -0.66587710265E+01  0.26788371951E+01  0.20226657970E+02  0.51100000000E-03 0.  1.
         12    1    3    3    0    0 -0.34866053960E+01 -0.13557453841E+01  0.13844342276E+01  0.39888746363E+01  0.00000000000E+00 0. -1.
</event>
<event>
 7    1  0.1541902E-008  0.4614232E+02  0.7816164E-02  0.1320468E+00
        -11   -1    0    0    0    0  0.00000000000E+00  0.00000000000E+00  0.45593999997E+02  0.45594000000E+02  0.51100000000E-03 0. -1.
         11   -1    0    0    0    0 -0.00000000000E+00 -0.00000000000E+00 -0.45593999997E+02  0.45594000000E+02  0.51100000000E-03 0.  1.
    9900012    2    1    2    0    0 -0.36533081351E+02  0.25992391918E+02 -0.43408588072E+01  0.46142317346E+02  0.99999962113E+01 0.  0.
         12    1    1    2    0    0  0.36533081351E+02 -0.25992391918E+02  0.43408588072E+01  0.45045682654E+02  0.00000000000E+00 0. -1.
         11    1    3    3    0    0 -0.22779780323E+02  0.12505486429E+02 -0.52538475102E+01  0.26512421548E+02  0.51100000000E-03 0. -1.
        -11    1    3    3    0    0 -0.80308981099E+01  0.10288706973E+02  0.50353096774E+00  0.13061636932E+02  0.51100000000E-03 0.  1.
        -12    1    3    3    0    0 -0.57224029180E+01  0.31981985155E+01  0.40945773533E+00  0.65682588665E+01  0.00000000000E+00 0.  1.
</event>
<event>
 7    1  0.1541902E-008  0.4614232E+02  0.7816164E-02  0.1320468E+00
        -11   -1    0    0    0    0  0.00000000000E+00  0.00000000000E+00  0.45593999997E+02  0.45594000000E+02  0.51100000000E-03 0. -1.
         11   -1    0    0    0    0 -0.00000000000E+00 -0.00000000000E+00 -0.45593999997E+02  0.45594000000E+02  0.51100000000E-03 0.  1.
    9900012    2    1    2    0    0  0.10605329010E+02 -0.19429333681E+02 -0.39231896253E+02  0.46142315476E+02  0.99999791605E+01 0.  0.
         12    1    1    2    0    0 -0.10605329010E+02  0.19429333681E+02  0.39231896253E+02  0.45045684524E+02  0.00000000000E+00 0. -1.
         11    1    3    3    0    0  0.10279874388E+01 -0.64867377475E+01 -0.69410489668E+01  0.95557671487E+01  0.51100000000E-03 0. -1.
        -11    1    3    3    0    0  0.57884824188E+01 -0.37680955737E+01 -0.96663430828E+01  0.11880372966E+02  0.51100000000E-03 0.  1.
         12    1    3    3    0    0  0.37888591520E+01 -0.91745003596E+01 -0.22624504203E+02  0.24706175361E+02  0.00000000000E+00 0. -1.
</event>
<event>
 7    1  0.1541902E-008  0.4614232E+02  0.7816164E-02  0.1320468E+00
        -11   -1    0    0    0    0  0.00000000000E+00  0.00000000000E+00  0.45593999997E+02  0.45594000000E+02  0.51100000000E-03 0.  1.
         11   -1    0    0    0    0 -0.00000000000E+00 -0.00000000000E+00 -0.45593999997E+02  0.45594000000E+02  0.51100000000E-03 0. -1.
    9900012    2    1    2    0    0 -0.77339810590E+01 -0.32227327157E+01  0.44259609551E+02  0.46142317557E+02  0.99999981399E+01 0.  0.
         12    1    1    2    0    0  0.77339810590E+01  0.32227327157E+01 -0.44259609551E+02  0.45045682443E+02  0.00000000000E+00 0. -1.
         11    1    3    3    0    0 -0.43772447147E+01  0.20508832566E+00  0.26260648534E+02  0.26623748688E+02  0.51100000000E-03 0.  1.
        -11    1    3    3    0    0 -0.28723554021E+00 -0.41042714954E+01  0.74414105145E+01  0.85030664745E+01  0.51100000000E-03 0. -1.
         12    1    3    3    0    0 -0.30695008041E+01  0.67645045394E+00  0.10557550502E+02  0.11015502394E+02  0.00000000000E+00 0. -1.
</event>
<event>
 7    1  0.1541902E-008  0.4614232E+02  0.7816164E-02  0.1320468E+00
        -11   -1    0    0    0    0  0.00000000000E+00  0.00000000000E+00  0.45593999997E+02  0.45594000000E+02  0.51100000000E-03 0.  1.
         11   -1    0    0    0    0 -0.00000000000E+00 -0.00000000000E+00 -0.45593999997E+02  0.45594000000E+02  0.51100000000E-03 0. -1.
    9900012    2    1    2    0    0  0.21954251703E+00  0.15067015075E+02  0.42450563432E+02  0.46142317878E+02  0.10000001065E+02 0.  0.
         12    1    1    2    0    0 -0.21954251703E+00 -0.15067015075E+02 -0.42450563432E+02  0.45045682122E+02  0.00000000000E+00 0. -1.
         11    1    3    3    0    0  0.49148040012E+00  0.18528919460E+01  0.86684597219E+01  0.88778914027E+01  0.51100000000E-03 0. -1.
        -11    1    3    3    0    0  0.24093175558E+01  0.55544443610E+00  0.30987786740E+01  0.39643106762E+01  0.51100000000E-03 0.  1.
        -12    1    3    3    0    0 -0.26812554389E+01  0.12658678692E+02  0.30683325036E+02  0.33300115799E+02  0.00000000000E+00 0.  1.
</event>
<event>
 7    1  0.1541902E-008  0.4614232E+02  0.7816164E-02  0.1320468E+00
        -11   -1    0    0    0    0  0.00000000000E+00  0.00000000000E+00  0.45593999997E+02  0.45594000000E+02  0.51100000000E-03 0.  1.
         11   -1    0    0    0    0 -0.00000000000E+00 -0.00000000000E+00 -0.45593999997E+02  0.45594000000E+02  0.51100000000E-03 0. -1.
    9900012    2    1    2    0    0  0.41064630264E+02  0.80721239701E+01  0.16662846963E+02  0.46142317488E+02  0.99999975083E+01 0.  0.
         12    1    1    2    0    0 -0.41064630264E+02 -0.80721239701E+01 -0.16662846963E+02  0.45045682512E+02  0.00000000000E+00 0. -1.
         11    1    3    3    0    0  0.21502593919E+02  0.49541177003E+01  0.65060205161E+01  0.23005067500E+02  0.51100000000E-03 0. -1.
        -11    1    3    3    0    0  0.15553141888E+02  0.22406707360E+01  0.48831085581E+01  0.16454956013E+02  0.51100000000E-03 0.  1.
         12    1    3    3    0    0  0.40088944560E+01  0.87733553376E+00  0.52737178888E+01  0.66822939750E+01  0.00000000000E+00 0. -1.
</event>
<event>
 7    1  0.1541902E-008  0.4614232E+02  0.7816164E-02  0.1320468E+00
        -11   -1    0    0    0    0  0.00000000000E+00  0.00000000000E+00  0.45593999997E+02  0.45594000000E+02  0.51100000000E-03 0. -1.
         11   -1    0    0    0    0 -0.00000000000E+00 -0.00000000000E+00 -0.45593999997E+02  0.45594000000E+02  0.51100000000E-03 0.  1.
    9900012    2    1    2    0    0  0.10041484182E+02 -0.26623146187E+02 -0.34921199315E+02  0.46142317864E+02  0.10000000940E+02 0.  0.
         12    1    1    2    0    0 -0.10041484182E+02  0.26623146187E+02  0.34921199315E+02  0.45045682136E+02  0.00000000000E+00 0. -1.
         11    1    3    3    0    0  0.96073844384E+01 -0.16191841197E+02 -0.21999131840E+02  0.28955817362E+02  0.51100000000E-03 0. -1.
        -11    1    3    3    0    0  0.21202206748E+01 -0.85218322733E+01 -0.98737445911E+01  0.13213924228E+02  0.51100000000E-03 0.  1.
         12    1    3    3    0    0 -0.16861209310E+01 -0.19094727167E+01 -0.30483228837E+01  0.39725762740E+01  0.00000000000E+00 0. -1.
</event>
<event>
 7    1  0.1541902E-008  0.4614232E+02  0.7816164E-02  0.1320468E+00
        -11   -1    0    0    0    0  0.00000000000E+00  0.00000000000E+00  0.45593999997E+02  0.45594000000E+02  0.51100000000E-03 0. -1.
         11   -1    0    0    0    0 -0.00000000000E+00 -0.00000000000E+00 -0.45593999997E+02  0.45594000000E+02  0.51100000000E-03 0.  1.
    9900012    2    1    2    0    0  0.34707310525E+02  0.21004576505E+02 -0.19578657101E+02  0.46142318166E+02  0.10000003691E+02 0.  0.
         12    1    1    2    0    0 -0.34707310525E+02 -0.21004576505E+02  0.19578657101E+02  0.45045681834E+02  0.00000000000E+00 0. -1.
         11    1    3    3    0    0  0.87834404116E+01  0.58086131928E+01 -0.90570447795E+01  0.13889523861E+02  0.51100000000E-03 0. -1.
        -11    1    3    3    0    0  0.22383936098E+02  0.14939503438E+02 -0.88474817932E+01  0.28328559663E+02  0.51100000000E-03 0.  1.
         12    1    3    3    0    0  0.35399340153E+01  0.25645987342E+00 -0.16741305286E+01  0.39242346421E+01  0.00000000000E+00 0. -1.
</event>
<event>
 7    1  0.1541902E-008  0.4614232E+02  0.7816164E-02  0.1320468E+00
        -11   -1    0    0    0    0  0.00000000000E+00  0.00000000000E+00  0.45593999997E+02  0.45594000000E+02  0.51100000000E-03 0.  1.
         11   -1    0    0    0    0 -0.00000000000E+00 -0.00000000000E+00 -0.45593999997E+02  0.45594000000E+02  0.51100000000E-03 0. -1.
    9900012    2    1    2    0    0  0.27302854250E+02  0.11744611122E+02  0.33848663018E+02  0.46142315093E+02  0.99999756735E+01 0.  0.
         12    1    1    2    0    0 -0.27302854250E+02 -0.11744611122E+02 -0.33848663018E+02  0.45045684907E+02  0.00000000000E+00 0. -1.
         11    1    3    3    0    0  0.25942322040E+01 -0.52463581702E+00  0.18471889370E+01  0.32275982865E+01  0.51100000000E-03 0. -1.
        -11    1    3    3    0    0  0.22037958136E+02  0.12019506144E+02  0.31336563895E+02  0.40151218708E+02  0.51100000000E-03 0.  1.
        -12    1    3    3    0    0  0.26706639102E+01  0.24974079507E+00  0.66491018569E+00  0.27634980986E+01  0.00000000000E+00 0.  1.
</event>
<event>
 7    1  0.1541902E-008  0.4614232E+02  0.7816164E-02  0.1320468E+00
        -11   -1    0    0    0    0  0.00000000000E+00  0.00000000000E+00  0.45593999997E+02  0.45594000000E+02  0.51100000000E-03 0. -1.
         11   -1    0    0    0    0 -0.00000000000E+00 -0.00000000000E+00 -0.45593999997E+02  0.45594000000E+02  0.51100000000E-03 0.  1.
    9900012    2    1    2    0    0 -0.40836082481E+02 -0.18202819352E+02 -0.54941037039E+01  0.46142318295E+02  0.10000004872E+02 0.  0.
         12    1    1    2    0    0  0.40836082481E+02  0.18202819352E+02  0.54941037039E+01  0.45045681705E+02  0.00000000000E+00 0. -1.
         11    1    3    3    0    0 -0.17120059423E+02 -0.82955260229E+01  0.56069723011E+00  0.19032250742E+02  0.51100000000E-03 0. -1.
        -11    1    3    3    0    0 -0.24085941069E+02 -0.98517175212E+01 -0.58116331095E+01  0.26663907721E+02  0.51100000000E-03 0.  1.
        -12    1    3    3    0    0  0.36991801140E+00 -0.55575808117E-01 -0.24316782447E+00  0.44615983286E+00  0.00000000000E+00 0.  1.
</event>
<event>
 7    1  0.1541902E-008  0.4614232E+02  0.7816164E-02  0.1320468E+00
        -11   -1    0    0    0    0  0.00000000000E+00  0.00000000000E+00  0.45593999997E+02  0.45594000000E+02  0.51100000000E-03 0.  1.
         11   -1    0    0    0    0 -0.00000000000E+00 -0.00000000000E+00 -0.45593999997E+02  0.45594000000E+02  0.51100000000E-03 0. -1.
    9900012    2    1    2    0    0 -0.24125149806E+02  0.27320121305E+02  0.26470769127E+02  0.46142317638E+02  0.99999988790E+01 0.  0.
         12    1    1    2    0    0  0.24125149806E+02 -0.27320121305E+02 -0.26470769127E+02  0.45045682362E+02  0.00000000000E+00 0. -1.
         11    1    3    3    0    0 -0.17596711921E+02  0.18041544407E+02  0.19644565509E+02  0.31953881600E+02  0.51100000000E-03 0.  1.
        -11    1    3    3    0    0 -0.63755144096E+01  0.63725846636E+01  0.67776597142E+01  0.11278018033E+02  0.51100000000E-03 0. -1.
         12    1    3    3    0    0 -0.15292347591E+00  0.29059922349E+01  0.48543903594E-01  0.29104180060E+01  0.00000000000E+00 0. -1.
</event>
<event>
 7    1  0.1541902E-008  0.4614232E+02  0.7816164E-02  0.1320468E+00
        -11   -1    0    0    0    0  0.00000000000E+00  0.00000000000E+00  0.45593999997E+02  0.45594000000E+02  0.51100000000E-03 0.  1.
         11   -1    0    0    0    0 -0.00000000000E+00 -0.00000000000E+00 -0.45593999997E+02  0.45594000000E+02  0.51100000000E-03 0. -1.
    9900012    2    1    2    0    0  0.38888032721E+02  0.48299190884E+01  0.22214999641E+02  0.46142318560E+02  0.10000007288E+02 0.  0.
         12    1    1    2    0    0 -0.38888032721E+02 -0.48299190884E+01 -0.22214999641E+02  0.45045681440E+02  0.00000000000E+00 0. -1.
         11    1    3    3    0    0  0.21164040493E+02  0.61419020347E+00  0.12295566767E+02  0.24484174521E+02  0.51100000000E-03 0. -1.
        -11    1    3    3    0    0  0.12961789367E+02  0.12371511388E+00  0.63235725300E+01  0.14422581559E+02  0.51100000000E-03 0.  1.
         12    1    3    3    0    0  0.47622028609E+01  0.40920137710E+01  0.35958603439E+01  0.72355624801E+01  0.00000000000E+00 0. -1.
</event>
<event>
 7    1  0.1541902E-008  0.4614232E+02  0.7816164E-02  0.1320468E+00
        -11   -1    0    0    0    0  0.00000000000E+00  0.00000000000E+00  0.45593999997E+02  0.45594000000E+02  0.51100000000E-03 0. -1.
         11   -1    0    0    0    0 -0.00000000000E+00 -0.00000000000E+00 -0.45593999997E+02  0.45594000000E+02  0.51100000000E-03 0.  1.
    9900012    2    1    2    0    0  0.24346872037E+02 -0.33894770217E+02 -0.16955456880E+02  0.46142321583E+02  0.10000034848E+02 0.  0.
         12    1    1    2    0    0 -0.24346872037E+02  0.33894770217E+02  0.16955456880E+02  0.45045678417E+02  0.00000000000E+00 0. -1.
         11    1    3    3    0    0  0.55786673544E+01 -0.13510510644E+02 -0.32352363403E+01  0.14970710797E+02  0.51100000000E-03 0. -1.
        -11    1    3    3    0    0  0.16996968475E+02 -0.16578807918E+02 -0.12300583376E+02  0.26740571440E+02  0.51100000000E-03 0.  1.
        -12    1    3    3    0    0  0.17712362079E+01 -0.38054516555E+01 -0.14196371632E+01  0.44310393456E+01  0.00000000000E+00 0.  1.
</event>
<event>
 7    1  0.1541902E-008  0.4614232E+02  0.7816164E-02  0.1320468E+00
        -11   -1    0    0    0    0  0.00000000000E+00  0.00000000000E+00  0.45593999997E+02  0.45594000000E+02  0.51100000000E-03 0. -1.
         11   -1    0    0    0    0 -0.00000000000E+00 -0.00000000000E+00 -0.45593999997E+02  0.45594000000E+02  0.51100000000E-03 0.  1.
    9900012    2    1    2    0    0  0.16131289294E+02  0.28008092527E+02 -0.31375818399E+02  0.46142315174E+02  0.99999764060E+01 0.  0.
         12    1    1    2    0    0 -0.16131289294E+02 -0.28008092527E+02  0.31375818399E+02  0.45045684826E+02  0.00000000000E+00 0. -1.
         11    1    3    3    0    0  0.65539315001E+01  0.66475658772E+01 -0.63145582528E+01  0.11270217229E+02  0.51100000000E-03 0. -1.
        -11    1    3    3    0    0  0.39265832498E+01  0.14667394590E+02 -0.18467891586E+02  0.23908440769E+02  0.51100000000E-03 0.  1.
        -12    1    3    3    0    0  0.56507745440E+01  0.66931320590E+01 -0.65933685601E+01  0.10963657176E+02  0.00000000000E+00 0.  1.
</event>
<event>
 7    1  0.1541902E-008  0.4614232E+02  0.7816164E-02  0.1320468E+00
        -11   -1    0    0    0    0  0.00000000000E+00  0.00000000000E+00  0.45593999997E+02  0.45594000000E+02  0.51100000000E-03 0.  1.
         11   -1    0    0    0    0 -0.00000000000E+00 -0.00000000000E+00 -0.45593999997E+02  0.45594000000E+02  0.51100000000E-03 0. -1.
    9900012    2    1    2    0    0  0.61200563823E+00 -0.75156856468E+01  0.44410059339E+02  0.46142318163E+02  0.10000003668E+02 0.  0.
         12    1    1    2    0    0 -0.61200563823E+00  0.75156856468E+01 -0.44410059339E+02  0.45045681837E+02  0.00000000000E+00 0. -1.
         11    1    3    3    0    0  0.23771376687E+00  0.45182128642E+00  0.13126419218E+01  0.14084315340E+01  0.51100000000E-03 0. -1.
        -11    1    3    3    0    0  0.41384925739E+01 -0.63076256052E+01  0.32544166009E+02  0.33407125034E+02  0.51100000000E-03 0.  1.
        -12    1    3    3    0    0 -0.37642007026E+01 -0.16598813281E+01  0.10553251408E+02  0.11326761595E+02  0.00000000000E+00 0.  1.
</event>
<event>
 7    1  0.1541902E-008  0.4614232E+02  0.7816164E-02  0.1320468E+00
        -11   -1    0    0    0    0  0.00000000000E+00  0.00000000000E+00  0.45593999997E+02  0.45594000000E+02  0.51100000000E-03 0.  1.
         11   -1    0    0    0    0 -0.00000000000E+00 -0.00000000000E+00 -0.45593999997E+02  0.45594000000E+02  0.51100000000E-03 0. -1.
    9900012    2    1    2    0    0  0.54202625118E+01 -0.13473228123E+02  0.42640431258E+02  0.46142317636E+02  0.99999988611E+01 0.  0.
         12    1    1    2    0    0 -0.54202625118E+01  0.13473228123E+02 -0.42640431258E+02  0.45045682364E+02  0.00000000000E+00 0. -1.
         11    1    3    3    0    0 -0.70447085801E+00 -0.73511611967E+01  0.13225799008E+02  0.15147858258E+02  0.51100000000E-03 0. -1.
        -11    1    3    3    0    0  0.19607264208E+01 -0.43611425682E+01  0.10351072334E+02  0.11402136261E+02  0.51100000000E-03 0.  1.
         12    1    3    3    0    0  0.41640069491E+01 -0.17609243584E+01  0.19063559916E+02  0.19592323117E+02  0.00000000000E+00 0. -1.
</event>
<event>
 7    1  0.1541902E-008  0.4614232E+02  0.7816164E-02  0.1320468E+00
        -11   -1    0    0    0    0  0.00000000000E+00  0.00000000000E+00  0.45593999997E+02  0.45594000000E+02  0.51100000000E-03 0. -1.
         11   -1    0    0    0    0 -0.00000000000E+00 -0.00000000000E+00 -0.45593999997E+02  0.45594000000E+02  0.51100000000E-03 0.  1.
    9900012    2    1    2    0    0 -0.35149944417E+02 -0.25786529130E+02 -0.11342394048E+02  0.46142316746E+02  0.99999907414E+01 0.  0.
         12    1    1    2    0    0  0.35149944417E+02  0.25786529130E+02  0.11342394048E+02  0.45045683254E+02  0.00000000000E+00 0. -1.
         11    1    3    3    0    0 -0.94886198391E+00 -0.22087394731E+01  0.66928448234E+00  0.24953579110E+01  0.51100000000E-03 0. -1.
        -11    1    3    3    0    0 -0.21438735513E+02 -0.17608380617E+02 -0.63359331052E+01  0.28457310079E+02  0.51100000000E-03 0.  1.
         12    1    3    3    0    0 -0.12762346920E+02 -0.59694090396E+01 -0.56757454246E+01  0.15189648755E+02  0.00000000000E+00 0. -1.
</event>
<event>
 7    1  0.1541902E-008  0.4614232E+02  0.7816164E-02  0.1320468E+00
        -11   -1    0    0    0    0  0.00000000000E+00  0.00000000000E+00  0.45593999997E+02  0.45594000000E+02  0.51100000000E-03 0.  1.
         11   -1    0    0    0    0 -0.00000000000E+00 -0.00000000000E+00 -0.45593999997E+02  0.45594000000E+02  0.51100000000E-03 0. -1.
    9900012    2    1    2    0    0  0.25798504319E+02 -0.40647783968E+01  0.36701883619E+02  0.46142317525E+02  0.99999978440E+01 0.  0.
         12    1    1    2    0    0 -0.25798504319E+02  0.40647783968E+01 -0.36701883619E+02  0.45045682475E+02  0.00000000000E+00 0. -1.
         11    1    3    3    0    0  0.22673657037E+01 -0.12743793306E+01  0.76001849614E+00  0.27097266076E+01  0.51100000000E-03 0. -1.
        -11    1    3    3    0    0  0.73240185003E+01 -0.30665259721E+01  0.14760221656E+02  0.16760339261E+02  0.51100000000E-03 0.  1.
        -12    1    3    3    0    0  0.16207120115E+02  0.27612690590E+00  0.21181643466E+02  0.26672251657E+02  0.00000000000E+00 0.  1.
</event>
<event>
 7    1  0.1541902E-008  0.4614231E+02  0.7816164E-02  0.1320468E+00
        -11   -1    0    0    0    0  0.00000000000E+00  0.00000000000E+00  0.45593999997E+02  0.45594000000E+02  0.51100000000E-03 0. -1.
         11   -1    0    0    0    0 -0.00000000000E+00 -0.00000000000E+00 -0.45593999997E+02  0.45594000000E+02  0.51100000000E-03 0.  1.
    9900012    2    1    2    0    0 -0.35978969208E+02  0.23275161725E+02  0.13888649316E+02  0.46142312543E+02  0.99999524173E+01 0.  0.
         12    1    1    2    0    0  0.35978969208E+02 -0.23275161725E+02 -0.13888649316E+02  0.45045687457E+02  0.00000000000E+00 0. -1.
         11    1    3    3    0    0 -0.28223358484E+02  0.16333808043E+02  0.12451750626E+02  0.34905548888E+02  0.51100000000E-03 0.  1.
        -11    1    3    3    0    0 -0.57901040576E+01  0.32574569510E+01 -0.44168538055E+00  0.66581842136E+01  0.51100000000E-03 0. -1.
        -12    1    3    3    0    0 -0.19655066671E+01  0.36838967319E+01  0.18785840707E+01  0.45785794412E+01  0.00000000000E+00 0.  1.
</event>
<event>
 7    1  0.1541902E-008  0.4614232E+02  0.7816164E-02  0.1320468E+00
        -11   -1    0    0    0    0  0.00000000000E+00  0.00000000000E+00  0.45593999997E+02  0.45594000000E+02  0.51100000000E-03 0.  1.
         11   -1    0    0    0    0 -0.00000000000E+00 -0.00000000000E+00 -0.45593999997E+02  0.45594000000E+02  0.51100000000E-03 0. -1.
    9900012    2    1    2    0    0  0.16876551515E+01 -0.45012475443E+02 -0.37734756705E+00  0.46142317448E+02  0.99999971453E+01 0.  0.
         12    1    1    2    0    0 -0.16876551515E+01  0.45012475443E+02  0.37734756705E+00  0.45045682552E+02  0.00000000000E+00 0. -1.
         11    1    3    3    0    0 -0.29817293579E+01 -0.72736457134E+01  0.14612375839E+00  0.78624413729E+01  0.51100000000E-03 0. -1.
        -11    1    3    3    0    0  0.46354110338E+01 -0.23489431134E+02 -0.15569409085E+01  0.23993008892E+02  0.51100000000E-03 0.  1.
        -12    1    3    3    0    0  0.33973475707E-01 -0.14249398595E+02  0.10334695831E+01  0.14286867183E+02  0.00000000000E+00 0.  1.
</event>
<event>
 7    1  0.1541902E-008  0.4614232E+02  0.7816164E-02  0.1320468E+00
        -11   -1    0    0    0    0  0.00000000000E+00  0.00000000000E+00  0.45593999997E+02  0.45594000000E+02  0.51100000000E-03 0.  1.
         11   -1    0    0    0    0 -0.00000000000E+00 -0.00000000000E+00 -0.45593999997E+02  0.45594000000E+02  0.51100000000E-03 0. -1.
    9900012    2    1    2    0    0 -0.39329582831E+01  0.29750587847E+02  0.33593866835E+02  0.46142317332E+02  0.99999960850E+01 0.  0.
         12    1    1    2    0    0  0.39329582831E+01 -0.29750587847E+02 -0.33593866835E+02  0.45045682668E+02  0.00000000000E+00 0. -1.
         11    1    3    3    0    0 -0.56017800320E+00  0.96341743158E+01  0.17149704315E+02  0.19678502801E+02  0.51100000000E-03 0. -1.
        -11    1    3    3    0    0 -0.25109467736E+01  0.16699625031E+02  0.15218586405E+02  0.22732965102E+02  0.51100000000E-03 0.  1.
         12    1    3    3    0    0 -0.86183350626E+00  0.34167885004E+01  0.12255761151E+01  0.37308494292E+01  0.00000000000E+00 0. -1.
</event>
<event>
 7    1  0.1541902E-008  0.4614232E+02  0.7816164E-02  0.1320468E+00
        -11   -1    0    0    0    0  0.00000000000E+00  0.00000000000E+00  0.45593999997E+02  0.45594000000E+02  0.51100000000E-03 0.  1.
         11   -1    0    0    0    0 -0.00000000000E+00 -0.00000000000E+00 -0.45593999997E+02  0.45594000000E+02  0.51100000000E-03 0. -1.
    9900012    2    1    2    0    0  0.35263650118E+02  0.16900808867E+02 -0.22359585967E+02  0.46142318247E+02  0.10000004432E+02 0.  0.
         12    1    1    2    0    0 -0.35263650118E+02 -0.16900808867E+02  0.22359585967E+02  0.45045681753E+02  0.00000000000E+00 0. -1.
         11    1    3    3    0    0  0.36977006790E+01  0.54757271317E+01 -0.29823778003E+01  0.72492175811E+01  0.51100000000E-03 0. -1.
        -11    1    3    3    0    0  0.28722797627E+02  0.95275786023E+01 -0.17981302678E+02  0.35200867941E+02  0.51100000000E-03 0.  1.
        -12    1    3    3    0    0  0.28431518112E+01  0.18975031327E+01 -0.13959054889E+01  0.36922327248E+01  0.00000000000E+00 0.  1.
</event>
<event>
 7    1  0.1541902E-008  0.4614232E+02  0.7816164E-02  0.1320468E+00
        -11   -1    0    0    0    0  0.00000000000E+00  0.00000000000E+00  0.45593999997E+02  0.45594000000E+02  0.51100000000E-03 0.  1.
         11   -1    0    0    0    0 -0.00000000000E+00 -0.00000000000E+00 -0.45593999997E+02  0.45594000000E+02  0.51100000000E-03 0. -1.
    9900012    2    1    2    0    0  0.11068992350E+02  0.28453352955E+02  0.33120954274E+02  0.46142317654E+02  0.99999990190E+01 0.  0.
         12    1    1    2    0    0 -0.11068992350E+02 -0.28453352955E+02 -0.33120954274E+02  0.45045682346E+02  0.00000000000E+00 0. -1.
         11    1    3    3    0    0  0.17314195991E+01  0.11524644086E+01  0.10667556321E+00  0.20826348644E+01  0.51100000000E-03 0. -1.
        -11    1    3    3    0    0  0.58316142476E+01  0.21769042356E+02  0.24066375668E+02  0.32971038320E+02  0.51100000000E-03 0.  1.
        -12    1    3    3    0    0  0.35059585031E+01  0.55318461901E+01  0.89479030432E+01  0.11088644469E+02  0.00000000000E+00 0.  1.
</event>
<event>
 7    1  0.1541902E-008  0.4614232E+02  0.7816164E-02  0.1320468E+00
        -11   -1    0    0    0    0  0.00000000000E+00  0.00000000000E+00  0.45593999997E+02  0.45594000000E+02  0.51100000000E-03 0. -1.
         11   -1    0    0    0    0 -0.00000000000E+00 -0.00000000000E+00 -0.45593999997E+02  0.45594000000E+02  0.51100000000E-03 0.  1.
    9900012    2    1    2    0    0 -0.28677048645E+02 -0.34169307619E+02 -0.62608896520E+01  0.46142318283E+02  0.10000004757E+02 0.  0.
         12    1    1    2    0    0  0.28677048645E+02  0.34169307619E+02  0.62608896520E+01  0.45045681717E+02  0.00000000000E+00 0. -1.
         11    1    3    3    0    0 -0.15120248458E+02 -0.22113830648E+02 -0.65219516402E+01  0.27571348767E+02  0.51100000000E-03 0. -1.
        -11    1    3    3    0    0 -0.53200969779E+01 -0.56685323571E+01 -0.17186449228E+01  0.79617480222E+01  0.51100000000E-03 0.  1.
         12    1    3    3    0    0 -0.82367032084E+01 -0.63869446142E+01  0.19797069111E+01  0.10609221494E+02  0.00000000000E+00 0. -1.
</event>
<event>
 7    1  0.1541902E-008  0.4614230E+02  0.7816164E-02  0.1320468E+00
        -11   -1    0    0    0    0  0.00000000000E+00  0.00000000000E+00  0.45593999997E+02  0.45594000000E+02  0.51100000000E-03 0.  1.
         11   -1    0    0    0    0 -0.00000000000E+00 -0.00000000000E+00 -0.45593999997E+02  0.45594000000E+02  0.51100000000E-03 0. -1.
    9900012    2    1    2    0    0 -0.75139896505E+01  0.44251125256E+02  0.38069061187E+01  0.46142304744E+02  0.99998813009E+01 0.  0.
         12    1    1    2    0    0  0.75139896505E+01 -0.44251125256E+02 -0.38069061187E+01  0.45045695256E+02  0.00000000000E+00 0. -1.
         11    1    3    3    0    0 -0.62862485545E+01  0.26633410389E+02  0.32409711344E+01  0.27556475900E+02  0.51100000000E-03 0.  1.
        -11    1    3    3    0    0 -0.31449536810E+01  0.65313412529E+01 -0.60419956533E+00  0.72742153937E+01  0.51100000000E-03 0. -1.
        -12    1    3    3    0    0  0.19172125850E+01  0.11086373614E+02  0.11701345496E+01  0.11311613451E+02  0.00000000000E+00 0.  1.
</event>
<event>
 7    1  0.1541902E-008  0.4614232E+02  0.7816164E-02  0.1320468E+00
        -11   -1    0    0    0    0  0.00000000000E+00  0.00000000000E+00  0.45593999997E+02  0.45594000000E+02  0.51100000000E-03 0.  1.
         11   -1    0    0    0    0 -0.00000000000E+00 -0.00000000000E+00 -0.45593999997E+02  0.45594000000E+02  0.51100000000E-03 0. -1.
    9900012    2    1    2    0    0  0.30278868849E+02 -0.17244840654E+02  0.28546784936E+02  0.46142319206E+02  0.10000013179E+02 0.  0.
         12    1    1    2    0    0 -0.30278868849E+02  0.17244840654E+02 -0.28546784936E+02  0.45045680794E+02  0.00000000000E+00 0. -1.
         11    1    3    3    0    0  0.59700762697E+01 -0.60606456127E+01  0.35347363018E+01  0.92123610922E+01  0.51100000000E-03 0. -1.
        -11    1    3    3    0    0  0.24047931991E+02 -0.10769714698E+02  0.23382032910E+02  0.35227961209E+02  0.51100000000E-03 0.  1.
         12    1    3    3    0    0  0.26086058867E+00 -0.41448034350E+00  0.16300157247E+01  0.17019969050E+01  0.00000000000E+00 0. -1.
</event>
<event>
 7    1  0.1541902E-008  0.4614232E+02  0.7816164E-02  0.1320468E+00
        -11   -1    0    0    0    0  0.00000000000E+00  0.00000000000E+00  0.45593999997E+02  0.45594000000E+02  0.51100000000E-03 0. -1.
         11   -1    0    0    0    0 -0.00000000000E+00 -0.00000000000E+00 -0.45593999997E+02  0.45594000000E+02  0.51100000000E-03 0.  1.
    9900012    2    1    2    0    0 -0.35971306178E+01 -0.40407150805E+02 -0.19581528752E+02  0.46142318152E+02  0.10000003565E+02 0.  0.
         12    1    1    2    0    0  0.35971306178E+01  0.40407150805E+02  0.19581528752E+02  0.45045681848E+02  0.00000000000E+00 0. -1.
         11    1    3    3    0    0 -0.34853823015E+00 -0.70735844106E+00 -0.34910683978E+00  0.86238663528E+00  0.51100000000E-03 0. -1.
        -11    1    3    3    0    0 -0.33403649800E+01 -0.39725933574E+01 -0.33782014636E+01  0.61928815242E+01  0.51100000000E-03 0.  1.
        -12    1    3    3    0    0  0.91772592424E-01 -0.35727199007E+02 -0.15854220448E+02  0.39087049992E+02  0.00000000000E+00 0.  1.
</event>
<event>
 7    1  0.1541902E-008  0.4614232E+02  0.7816164E-02  0.1320468E+00
        -11   -1    0    0    0    0  0.00000000000E+00  0.00000000000E+00  0.45593999997E+02  0.45594000000E+02  0.51100000000E-03 0. -1.
         11   -1    0    0    0    0 -0.00000000000E+00 -0.00000000000E+00 -0.45593999997E+02  0.45594000000E+02  0.51100000000E-03 0.  1.
    9900012    2    1    2    0    0  0.33184879184E+02 -0.12427323076E+02  0.27810767799E+02  0.46142319066E+02  0.10000011895E+02 0.  0.
         12    1    1    2    0    0 -0.33184879184E+02  0.12427323076E+02 -0.27810767799E+02  0.45045680934E+02  0.00000000000E+00 0. -1.
         11    1    3    3    0    0  0.27034206214E+00 -0.87808483595E-02 -0.17929955167E+00  0.32451583045E+00  0.51100000000E-03 0. -1.
        -11    1    3    3    0    0  0.69914172220E+01  0.10350348378E+01  0.55425855266E+01  0.89817295923E+01  0.51100000000E-03 0.  1.
        -12    1    3    3    0    0  0.25923119900E+02 -0.13453577065E+02  0.22447481824E+02  0.36836073643E+02  0.00000000000E+00 0.  1.
</event>
<event>
 7    1  0.1541902E-008  0.4614231E+02  0.7816164E-02  0.1320468E+00
        -11   -1    0    0    0    0  0.00000000000E+00  0.00000000000E+00  0.45593999997E+02  0.45594000000E+02  0.51100000000E-03 0.  1.
         11   -1    0    0    0    0 -0.00000000000E+00 -0.00000000000E+00 -0.45593999997E+02  0.45594000000E+02  0.51100000000E-03 0. -1.
    9900012    2    1    2    0    0  0.13014036951E+02 -0.17568874236E+02  0.39383803293E+02  0.46142306959E+02  0.99999015006E+01 0.  0.
         12    1    1    2    0    0 -0.13014036951E+02  0.17568874236E+02 -0.39383803293E+02  0.45045693041E+02  0.00000000000E+00 0. -1.
         11    1    3    3    0    0  0.36381463545E+01 -0.35183212240E+01  0.17211794842E+02  0.17940473100E+02  0.51100000000E-03 0. -1.
        -11    1    3    3    0    0  0.64668517980E+01 -0.11214252137E+02  0.19247644696E+02  0.23195936062E+02  0.51100000000E-03 0.  1.
        -12    1    3    3    0    0  0.29090387989E+01 -0.28363008742E+01  0.29243637556E+01  0.50058977974E+01  0.00000000000E+00 0.  1.
</event>
<event>
 7    1  0.1541902E-008  0.4614232E+02  0.7816164E-02  0.1320468E+00
        -11   -1    0    0    0    0  0.00000000000E+00  0.00000000000E+00  0.45593999997E+02  0.45594000000E+02  0.51100000000E-03 0.  1.
         11   -1    0    0    0    0 -0.00000000000E+00 -0.00000000000E+00 -0.45593999997E+02  0.45594000000E+02  0.51100000000E-03 0. -1.
    9900012    2    1    2    0    0 -0.35769984989E+02  0.49903414197E+00  0.27374670131E+02  0.46142318453E+02  0.10000006313E+02 0.  0.
         12    1    1    2    0    0  0.35769984989E+02 -0.49903414197E+00 -0.27374670131E+02  0.45045681547E+02  0.00000000000E+00 0. -1.
         11    1    3    3    0    0 -0.17866996448E+02  0.36335509686E+01  0.11781282418E+02  0.21707852735E+02  0.51100000000E-03 0. -1.
        -11    1    3    3    0    0 -0.76977348477E+01 -0.18261459688E+01  0.37778194427E+01  0.87670890772E+01  0.51100000000E-03 0.  1.
         12    1    3    3    0    0 -0.10205253694E+02 -0.13083708578E+01  0.11815568270E+02  0.15667376641E+02  0.00000000000E+00 0. -1.
</event>
<event>
 7    1  0.1541902E-008  0.4614232E+02  0.7816164E-02  0.1320468E+00
        -11   -1    0    0    0    0  0.00000000000E+00  0.00000000000E+00  0.45593999997E+02  0.45594000000E+02  0.51100000000E-03 0.  1.
         11   -1    0    0    0    0 -0.00000000000E+00 -0.00000000000E+00 -0.45593999997E+02  0.45594000000E+02  0.51100000000E-03 0. -1.
    9900012    2    1    2    0    0 -0.41433240693E+02 -0.22053557455E+00  0.17673467208E+02  0.46142317483E+02  0.99999974642E+01 0.  0.
         12    1    1    2    0    0  0.41433240693E+02  0.22053557455E+00 -0.17673467208E+02  0.45045682517E+02  0.00000000000E+00 0. -1.
         11    1    3    3    0    0 -0.11176797793E+02 -0.44328704097E+01  0.53277798198E+01  0.13151288417E+02  0.51100000000E-03 0. -1.
        -11    1    3    3    0    0 -0.33092600874E+01  0.99251519284E+00  0.14347004364E+01  0.37409429744E+01  0.51100000000E-03 0.  1.
         12    1    3    3    0    0 -0.26947182813E+02  0.32198196423E+01  0.10910986952E+02  0.29250086091E+02  0.00000000000E+00 0. -1.
</event>
<event>
 7    1  0.1541902E-008  0.4614232E+02  0.7816164E-02  0.1320468E+00
        -11   -1    0    0    0    0  0.00000000000E+00  0.00000000000E+00  0.45593999997E+02  0.45594000000E+02  0.51100000000E-03 0.  1.
         11   -1    0    0    0    0 -0.00000000000E+00 -0.00000000000E+00 -0.45593999997E+02  0.45594000000E+02  0.51100000000E-03 0. -1.
    9900012    2    1    2    0    0 -0.76664846052E+01 -0.41572844088E+02 -0.15557544105E+02  0.46142317295E+02  0.99999957519E+01 0.  0.
         12    1    1    2    0    0  0.76664846052E+01  0.41572844088E+02  0.15557544105E+02  0.45045682705E+02  0.00000000000E+00 0. -1.
         11    1    3    3    0    0  0.78072702861E+00 -0.90394553792E+01 -0.25122933550E+01  0.94145051069E+01  0.51100000000E-03 0. -1.
        -11    1    3    3    0    0 -0.95727048465E+01 -0.30327070070E+02 -0.11548855480E+02  0.33834064496E+02  0.51100000000E-03 0.  1.
         12    1    3    3    0    0  0.11254932127E+01 -0.22063186385E+01 -0.14963952695E+01  0.28937476927E+01  0.00000000000E+00 0. -1.
</event>
<event>
 7    1  0.1541902E-008  0.4614232E+02  0.7816164E-02  0.1320468E+00
        -11   -1    0    0    0    0  0.00000000000E+00  0.00000000000E+00  0.45593999997E+02  0.45594000000E+02  0.51100000000E-03 0.  1.
         11   -1    0    0    0    0 -0.00000000000E+00 -0.00000000000E+00 -0.45593999997E+02  0.45594000000E+02  0.51100000000E-03 0. -1.
    9900012    2    1    2    0    0 -0.25130217258E+02  0.22400494533E+02  0.29929977487E+02  0.46142317331E+02  0.99999960769E+01 0.  0.
         12    1    1    2    0    0  0.25130217258E+02 -0.22400494533E+02 -0.29929977487E+02  0.45045682669E+02  0.00000000000E+00 0. -1.
         11    1    3    3    0    0 -0.15058813307E+02  0.92104354279E+01  0.19285601576E+02  0.26144490957E+02  0.51100000000E-03 0. -1.
        -11    1    3    3    0    0 -0.82132428869E+01  0.88734500205E+01  0.87766802649E+01  0.14940735950E+02  0.51100000000E-03 0.  1.
         12    1    3    3    0    0 -0.18581610639E+01  0.43166090850E+01  0.18676956455E+01  0.50570904239E+01  0.00000000000E+00 0. -1.
</event>
<event>
 7    1  0.1541902E-008  0.4614232E+02  0.7816164E-02  0.1320468E+00
        -11   -1    0    0    0    0  0.00000000000E+00  0.00000000000E+00  0.45593999997E+02  0.45594000000E+02  0.51100000000E-03 0. -1.
         11   -1    0    0    0    0 -0.00000000000E+00 -0.00000000000E+00 -0.45593999997E+02  0.45594000000E+02  0.51100000000E-03 0.  1.
    9900012    2    1    2    0    0  0.29453911902E+02 -0.32776592080E+02 -0.93421308912E+01  0.46142319583E+02  0.10000016612E+02 0.  0.
         12    1    1    2    0    0 -0.29453911902E+02  0.32776592080E+02  0.93421308912E+01  0.45045680417E+02  0.00000000000E+00 0. -1.
         11    1    3    3    0    0  0.91497857117E+01 -0.14522244133E+02 -0.14506743201E+01  0.17225522037E+02  0.51100000000E-03 0. -1.
        -11    1    3    3    0    0  0.19076315880E+02 -0.18300495824E+02 -0.68552066262E+01  0.27309482476E+02  0.51100000000E-03 0.  1.
        -12    1    3    3    0    0  0.12278103101E+01  0.46147877208E-01 -0.10362499449E+01  0.16073150695E+01  0.00000000000E+00 0.  1.
</event>
<event>
 7    1  0.1541902E-008  0.4614232E+02  0.7816164E-02  0.1320468E+00
        -11   -1    0    0    0    0  0.00000000000E+00  0.00000000000E+00  0.45593999997E+02  0.45594000000E+02  0.51100000000E-03 0. -1.
         11   -1    0    0    0    0 -0.00000000000E+00 -0.00000000000E+00 -0.45593999997E+02  0.45594000000E+02  0.51100000000E-03 0.  1.
    9900012    2    1    2    0    0  0.18888902266E+02 -0.21401853063E+02 -0.34846572460E+02  0.46142317015E+02  0.99999931986E+01 0.  0.
         12    1    1    2    0    0 -0.18888902266E+02  0.21401853063E+02  0.34846572460E+02  0.45045682985E+02  0.00000000000E+00 0. -1.
         11    1    3    3    0    0  0.11612626345E+02 -0.10020309221E+02 -0.16285905597E+02  0.22371642963E+02  0.51100000000E-03 0. -1.
        -11    1    3    3    0    0  0.57072939209E+00 -0.54977920242E+01 -0.45413561356E+01  0.71536958974E+01  0.51100000000E-03 0.  1.
        -12    1    3    3    0    0  0.67055465285E+01 -0.58837518180E+01 -0.14019310728E+02  0.16616978155E+02  0.00000000000E+00 0.  1.
</event>
<event>
 7    1  0.1541902E-008  0.4614232E+02  0.7816164E-02  0.1320468E+00
        -11   -1    0    0    0    0  0.00000000000E+00  0.00000000000E+00  0.45593999997E+02  0.45594000000E+02  0.51100000000E-03 0.  1.
         11   -1    0    0    0    0 -0.00000000000E+00 -0.00000000000E+00 -0.45593999997E+02  0.45594000000E+02  0.51100000000E-03 0. -1.
    9900012    2    1    2    0    0  0.31087435737E+02 -0.32507664682E+02  0.24364618166E+01  0.46142320185E+02  0.10000022102E+02 0.  0.
         12    1    1    2    0    0 -0.31087435737E+02  0.32507664682E+02 -0.24364618166E+01  0.45045679815E+02  0.00000000000E+00 0. -1.
         11    1    3    3    0    0  0.13836542271E+02 -0.13935689367E+02 -0.29273520122E+01  0.19855042942E+02  0.51100000000E-03 0. -1.
        -11    1    3    3    0    0  0.17349784301E+02 -0.17448432652E+02  0.51491931245E+01  0.25139152878E+02  0.51100000000E-03 0.  1.
        -12    1    3    3    0    0 -0.98890834391E-01 -0.11235426626E+01  0.21462070423E+00  0.11481243655E+01  0.00000000000E+00 0.  1.
</event>
<event>
 7    1  0.1541902E-008  0.4614232E+02  0.7816164E-02  0.1320468E+00
        -11   -1    0    0    0    0  0.00000000000E+00  0.00000000000E+00  0.45593999997E+02  0.45594000000E+02  0.51100000000E-03 0.  1.
         11   -1    0    0    0    0 -0.00000000000E+00 -0.00000000000E+00 -0.45593999997E+02  0.45594000000E+02  0.51100000000E-03 0. -1.
    9900012    2    1    2    0    0  0.22125538789E+02 -0.19534834704E+02  0.34028874354E+02  0.46142317372E+02  0.99999964533E+01 0.  0.
         12    1    1    2    0    0 -0.22125538789E+02  0.19534834704E+02 -0.34028874354E+02  0.45045682628E+02  0.00000000000E+00 0. -1.
         11    1    3    3    0    0  0.14804240601E+00 -0.22709721596E+00 -0.22362780728E+00  0.35142475267E+00  0.51100000000E-03 0. -1.
        -11    1    3    3    0    0  0.10459530889E+02 -0.10035544034E+02  0.10840835106E+02  0.18100763424E+02  0.51100000000E-03 0.  1.
        -12    1    3    3    0    0  0.11517965494E+02 -0.92721934540E+01  0.23411667055E+02  0.27690129195E+02  0.00000000000E+00 0.  1.
</event>
<event>
 7    1  0.1541902E-008  0.4614232E+02  0.7816164E-02  0.1320468E+00
        -11   -1    0    0    0    0  0.00000000000E+00  0.00000000000E+00  0.45593999997E+02  0.45594000000E+02  0.51100000000E-03 0.  1.
         11   -1    0    0    0    0 -0.00000000000E+00 -0.00000000000E+00 -0.45593999997E+02  0.45594000000E+02  0.51100000000E-03 0. -1.
    9900012    2    1    2    0    0  0.19192518727E+02 -0.40244045352E+02  0.64169769482E+01  0.46142317027E+02  0.99999933060E+01 0.  0.
         12    1    1    2    0    0 -0.19192518727E+02  0.40244045352E+02 -0.64169769482E+01  0.45045682973E+02  0.00000000000E+00 0. -1.
         11    1    3    3    0    0  0.63960204257E+01 -0.12591688612E+02 -0.20884594812E+01  0.14276601930E+02  0.51100000000E-03 0. -1.
        -11    1    3    3    0    0  0.75686728105E+01 -0.12760234916E+02  0.53436979514E+01  0.15769068181E+02  0.51100000000E-03 0.  1.
         12    1    3    3    0    0  0.52278254910E+01 -0.14892121823E+02  0.31617384780E+01  0.16096646916E+02  0.00000000000E+00 0. -1.
</event>
<event>
 7    1  0.1541902E-008  0.4614232E+02  0.7816164E-02  0.1320468E+00
        -11   -1    0    0    0    0  0.00000000000E+00  0.00000000000E+00  0.45593999997E+02  0.45594000000E+02  0.51100000000E-03 0. -1.
         11   -1    0    0    0    0 -0.00000000000E+00 -0.00000000000E+00 -0.45593999997E+02  0.45594000000E+02  0.51100000000E-03 0.  1.
    9900012    2    1    2    0    0 -0.29671017682E+02  0.32407009583E+02 -0.99262228087E+01  0.46142318080E+02  0.10000002906E+02 0.  0.
         12    1    1    2    0    0  0.29671017682E+02 -0.32407009583E+02  0.99262228087E+01  0.45045681920E+02  0.00000000000E+00 0. -1.
         11    1    3    3    0    0 -0.85359783957E+01  0.39536562757E+01 -0.32437648964E+01  0.99506952563E+01  0.51100000000E-03 0. -1.
        -11    1    3    3    0    0 -0.12203572414E+02  0.15379842015E+02 -0.23294777283E+01  0.19771018862E+02  0.51100000000E-03 0.  1.
         12    1    3    3    0    0 -0.89314668724E+01  0.13073511292E+02 -0.43529801839E+01  0.16420603962E+02  0.00000000000E+00 0. -1.
</event>
<event>
 7    1  0.1541902E-008  0.4614230E+02  0.7816164E-02  0.1320468E+00
        -11   -1    0    0    0    0  0.00000000000E+00  0.00000000000E+00  0.45593999997E+02  0.45594000000E+02  0.51100000000E-03 0. -1.
         11   -1    0    0    0    0 -0.00000000000E+00 -0.00000000000E+00 -0.45593999997E+02  0.45594000000E+02  0.51100000000E-03 0.  1.
    9900012    2    1    2    0    0 -0.42665141933E+01  0.41508645556E+02 -0.16968917684E+02  0.46142301353E+02  0.99998503733E+01 0.  0.
         12    1    1    2    0    0  0.42665141933E+01 -0.41508645556E+02  0.16968917684E+02  0.45045698647E+02  0.00000000000E+00 0. -1.
         11    1    3    3    0    0  0.23189345400E+00  0.16054649811E+01 -0.30473076841E+01  0.34521553792E+01  0.51100000000E-03 0. -1.
        -11    1    3    3    0    0 -0.49065710306E+01  0.31003335788E+02 -0.11782624204E+02  0.33527772110E+02  0.51100000000E-03 0.  1.
         12    1    3    3    0    0  0.40816338333E+00  0.88998447870E+01 -0.21389857960E+01  0.91623738635E+01  0.00000000000E+00 0. -1.
</event>
<event>
 7    1  0.1541902E-008  0.4614232E+02  0.7816164E-02  0.1320468E+00
        -11   -1    0    0    0    0  0.00000000000E+00  0.00000000000E+00  0.45593999997E+02  0.45594000000E+02  0.51100000000E-03 0.  1.
         11   -1    0    0    0    0 -0.00000000000E+00 -0.00000000000E+00 -0.45593999997E+02  0.45594000000E+02  0.51100000000E-03 0. -1.
    9900012    2    1    2    0    0 -0.48940299653E+01  0.11323414266E+02  0.43323691659E+02  0.46142317644E+02  0.99999989333E+01 0.  0.
         12    1    1    2    0    0  0.48940299653E+01 -0.11323414266E+02 -0.43323691659E+02  0.45045682356E+02  0.00000000000E+00 0. -1.
         11    1    3    3    0    0 -0.50051581917E+01  0.27496188464E+01  0.18441898767E+02  0.19305844781E+02  0.51100000000E-03 0. -1.
        -11    1    3    3    0    0 -0.50817060682E+00  0.24802073054E+01  0.22385849650E+01  0.33794864329E+01  0.51100000000E-03 0.  1.
        -12    1    3    3    0    0  0.61929883324E+00  0.60935881138E+01  0.22643207927E+02  0.23456986430E+02  0.00000000000E+00 0.  1.
</event>
<event>
 7    1  0.1541902E-008  0.4614232E+02  0.7816164E-02  0.1320468E+00
        -11   -1    0    0    0    0  0.00000000000E+00  0.00000000000E+00  0.45593999997E+02  0.45594000000E+02  0.51100000000E-03 0.  1.
         11   -1    0    0    0    0 -0.00000000000E+00 -0.00000000000E+00 -0.45593999997E+02  0.45594000000E+02  0.51100000000E-03 0. -1.
    9900012    2    1    2    0    0 -0.37019446070E+02  0.96815148247E+00  0.25646378186E+02  0.46142318534E+02  0.10000007051E+02 0.  0.
         12    1    1    2    0    0  0.37019446070E+02 -0.96815148247E+00 -0.25646378186E+02  0.45045681466E+02  0.00000000000E+00 0. -1.
         11    1    3    3    0    0 -0.13895749633E+02  0.29187444818E+01  0.14068645920E+02  0.19988439796E+02  0.51100000000E-03 0. -1.
        -11    1    3    3    0    0 -0.14715987529E+02 -0.25296991259E+01  0.62749471149E+01  0.16196747457E+02  0.51100000000E-03 0.  1.
        -12    1    3    3    0    0 -0.84077089086E+01  0.57910612656E+00  0.53027851514E+01  0.99571312816E+01  0.00000000000E+00 0.  1.
</event>
<event>
 7    1  0.1541902E-008  0.4614232E+02  0.7816164E-02  0.1320468E+00
        -11   -1    0    0    0    0  0.00000000000E+00  0.00000000000E+00  0.45593999997E+02  0.45594000000E+02  0.51100000000E-03 0.  1.
         11   -1    0    0    0    0 -0.00000000000E+00 -0.00000000000E+00 -0.45593999997E+02  0.45594000000E+02  0.51100000000E-03 0. -1.
    9900012    2    1    2    0    0  0.79613639534E+01  0.33473267707E+02  0.29073536818E+02  0.46142317520E+02  0.99999978028E+01 0.  0.
         12    1    1    2    0    0 -0.79613639534E+01 -0.33473267707E+02 -0.29073536818E+02  0.45045682480E+02  0.00000000000E+00 0. -1.
         11    1    3    3    0    0  0.14810294132E+00  0.53401960163E+00 -0.55614277761E+00  0.78511557516E+00  0.51100000000E-03 0. -1.
        -11    1    3    3    0    0  0.73411334550E+01  0.18650573828E+02  0.17055529989E+02  0.26317812370E+02  0.51100000000E-03 0.  1.
         12    1    3    3    0    0  0.47212755714E+00  0.14288674278E+02  0.12574149607E+02  0.19039389575E+02  0.00000000000E+00 0. -1.
</event>
<event>
 7    1  0.1541902E-008  0.4614231E+02  0.7816164E-02  0.1320468E+00
        -11   -1    0    0    0    0  0.00000000000E+00  0.00000000000E+00  0.45593999997E+02  0.45594000000E+02  0.51100000000E-03 0.  1.
         11   -1    0    0    0    0 -0.00000000000E+00 -0.00000000000E+00 -0.45593999997E+02  0.45594000000E+02  0.51100000000E-03 0. -1.
    9900012    2    1    2    0    0 -0.33064401404E+02  0.30314617104E+02 -0.41089148433E+01  0.46142313952E+02  0.99999652661E+01 0.  0.
         12    1    1    2    0    0  0.33064401404E+02 -0.30314617104E+02  0.41089148433E+01  0.45045686048E+02  0.00000000000E+00 0. -1.
         11    1    3    3    0    0 -0.11913324081E+02  0.69466437811E+01  0.10904916089E+00  0.13791121871E+02  0.51100000000E-03 0. -1.
        -11    1    3    3    0    0 -0.17307550111E+02  0.20033176589E+02 -0.56387976763E+01  0.27067979138E+02  0.51100000000E-03 0.  1.
        -12    1    3    3    0    0 -0.38435272116E+01  0.33347967336E+01  0.14208336721E+01  0.52832129433E+01  0.00000000000E+00 0.  1.
</event>
<event>
 7    1  0.1541902E-008  0.4614232E+02  0.7816164E-02  0.1320468E+00
        -11   -1    0    0    0    0  0.00000000000E+00  0.00000000000E+00  0.45593999997E+02  0.45594000000E+02  0.51100000000E-03 0.  1.
         11   -1    0    0    0    0 -0.00000000000E+00 -0.00000000000E+00 -0.45593999997E+02  0.45594000000E+02  0.51100000000E-03 0. -1.
    9900012    2    1    2    0    0 -0.30733723871E+02 -0.31349650811E+02 -0.10087178331E+02  0.46142317015E+02  0.99999931928E+01 0.  0.
         12    1    1    2    0    0  0.30733723871E+02  0.31349650811E+02  0.10087178331E+02  0.45045682985E+02  0.00000000000E+00 0. -1.
         11    1    3    3    0    0 -0.54112015041E+01 -0.28934230908E+01 -0.25979775011E+01  0.66635190597E+01  0.51100000000E-03 0. -1.
        -11    1    3    3    0    0 -0.85663099183E+01 -0.13972771367E+02 -0.10953365843E+01  0.16426191518E+02  0.51100000000E-03 0.  1.
        -12    1    3    3    0    0 -0.16756212449E+02 -0.14483456353E+02 -0.63938642460E+01  0.23052606437E+02  0.00000000000E+00 0.  1.
</event>
<event>
 7    1  0.1541902E-008  0.4614232E+02  0.7816164E-02  0.1320468E+00
        -11   -1    0    0    0    0  0.00000000000E+00  0.00000000000E+00  0.45593999997E+02  0.45594000000E+02  0.51100000000E-03 0.  1.
         11   -1    0    0    0    0 -0.00000000000E+00 -0.00000000000E+00 -0.45593999997E+02  0.45594000000E+02  0.51100000000E-03 0. -1.
    9900012    2    1    2    0    0  0.29601371886E+02  0.21672205826E+02  0.26137852989E+02  0.46142322274E+02  0.10000041153E+02 0.  0.
         12    1    1    2    0    0 -0.29601371886E+02 -0.21672205826E+02 -0.26137852989E+02  0.45045677726E+02  0.00000000000E+00 0. -1.
         11    1    3    3    0    0  0.10819764285E+02  0.10263444879E+02  0.11395428935E+02  0.18768628102E+02  0.51100000000E-03 0. -1.
        -11    1    3    3    0    0  0.15809836856E+02  0.11313718080E+02  0.14745456281E+02  0.24400402444E+02  0.51100000000E-03 0.  1.
         12    1    3    3    0    0  0.29717707449E+01  0.95042867068E-01 -0.30322272034E-02  0.29732917282E+01  0.00000000000E+00 0. -1.
</event>
<event>
 7    1  0.1541902E-008  0.4614232E+02  0.7816164E-02  0.1320468E+00
        -11   -1    0    0    0    0  0.00000000000E+00  0.00000000000E+00  0.45593999997E+02  0.45594000000E+02  0.51100000000E-03 0.  1.
         11   -1    0    0    0    0 -0.00000000000E+00 -0.00000000000E+00 -0.45593999997E+02  0.45594000000E+02  0.51100000000E-03 0. -1.
    9900012    2    1    2    0    0 -0.16147860611E+02  0.24043671801E+02  0.34500171868E+02  0.46142318576E+02  0.10000007432E+02 0.  0.
         12    1    1    2    0    0  0.16147860611E+02 -0.24043671801E+02 -0.34500171868E+02  0.45045681424E+02  0.00000000000E+00 0. -1.
         11    1    3    3    0    0 -0.38051213970E+01  0.70170466193E+01  0.55941350610E+01  0.97474221948E+01  0.51100000000E-03 0. -1.
        -11    1    3    3    0    0 -0.53937569818E+01  0.10012860963E+02  0.10359493097E+02  0.15384053319E+02  0.51100000000E-03 0.  1.
        -12    1    3    3    0    0 -0.69489822327E+01  0.70137642193E+01  0.18546543710E+02  0.21010843062E+02  0.00000000000E+00 0.  1.
</event>
<event>
 7    1  0.1541902E-008  0.4614232E+02  0.7816164E-02  0.1320468E+00
        -11   -1    0    0    0    0  0.00000000000E+00  0.00000000000E+00  0.45593999997E+02  0.45594000000E+02  0.51100000000E-03 0. -1.
         11   -1    0    0    0    0 -0.00000000000E+00 -0.00000000000E+00 -0.45593999997E+02  0.45594000000E+02  0.51100000000E-03 0.  1.
    9900012    2    1    2    0    0  0.14615580071E+01 -0.37668757955E+02 -0.24658507558E+02  0.46142317935E+02  0.10000001586E+02 0.  0.
         12    1    1    2    0    0 -0.14615580071E+01  0.37668757955E+02  0.24658507558E+02  0.45045682065E+02  0.00000000000E+00 0. -1.
         11    1    3    3    0    0  0.32574192162E+01 -0.53503194722E+01 -0.60236081749E+01  0.86902562742E+01  0.51100000000E-03 0. -1.
        -11    1    3    3    0    0 -0.25333230031E+01 -0.26759151389E+02 -0.15384103181E+02  0.30969994179E+02  0.51100000000E-03 0.  1.
        -12    1    3    3    0    0  0.73746179400E+00 -0.55592870945E+01 -0.32507962021E+01  0.64820674822E+01  0.00000000000E+00 0.  1.
</event>
<event>
 7    1  0.1541902E-008  0.4614232E+02  0.7816164E-02  0.1320468E+00
        -11   -1    0    0    0    0  0.00000000000E+00  0.00000000000E+00  0.45593999997E+02  0.45594000000E+02  0.51100000000E-03 0.  1.
         11   -1    0    0    0    0 -0.00000000000E+00 -0.00000000000E+00 -0.45593999997E+02  0.45594000000E+02  0.51100000000E-03 0. -1.
    9900012    2    1    2    0    0  0.17379782383E+02  0.35526887515E+02  0.21561466640E+02  0.46142318566E+02  0.10000007340E+02 0.  0.
         12    1    1    2    0    0 -0.17379782383E+02 -0.35526887515E+02 -0.21561466640E+02  0.45045681434E+02  0.00000000000E+00 0. -1.
         11    1    3    3    0    0  0.50707603585E+01  0.14504552812E+02  0.69871756281E+01  0.16879433830E+02  0.51100000000E-03 0. -1.
        -11    1    3    3    0    0  0.99379553740E+01  0.20496421410E+02  0.14096511716E+02  0.26787644362E+02  0.51100000000E-03 0.  1.
         12    1    3    3    0    0  0.23710666508E+01  0.52591329224E+00  0.47777929551E+00  0.24752403740E+01  0.00000000000E+00 0. -1.
</event>
<event>
 7    1  0.1541902E-008  0.4614232E+02  0.7816164E-02  0.1320468E+00
        -11   -1    0    0    0    0  0.00000000000E+00  0.00000000000E+00  0.45593999997E+02  0.45594000000E+02  0.51100000000E-03 0. -1.
         11   -1    0    0    0    0 -0.00000000000E+00 -0.00000000000E+00 -0.45593999997E+02  0.45594000000E+02  0.51100000000E-03 0.  1.
    9900012    2    1    2    0    0  0.41052091259E+02  0.57857331047E+01  0.17617167639E+02  0.46142317633E+02  0.99999988299E+01 0.  0.
         12    1    1    2    0    0 -0.41052091259E+02 -0.57857331047E+01 -0.17617167639E+02  0.45045682367E+02  0.00000000000E+00 0. -1.
         11    1    3    3    0    0  0.42951041118E+01 -0.20121690557E+01  0.28472715856E+01  0.55320610430E+01  0.51100000000E-03 0. -1.
        -11    1    3    3    0    0  0.34086046490E+02  0.61001576965E+01  0.13024727235E+02  0.36996135055E+02  0.51100000000E-03 0.  1.
        -12    1    3    3    0    0  0.26709406573E+01  0.16977444639E+01  0.17451688188E+01  0.36141215344E+01  0.00000000000E+00 0.  1.
</event>
<event>
 7    1  0.1541902E-008  0.4614232E+02  0.7816164E-02  0.1320468E+00
        -11   -1    0    0    0    0  0.00000000000E+00  0.00000000000E+00  0.45593999997E+02  0.45594000000E+02  0.51100000000E-03 0.  1.
         11   -1    0    0    0    0 -0.00000000000E+00 -0.00000000000E+00 -0.45593999997E+02  0.45594000000E+02  0.51100000000E-03 0. -1.
    9900012    2    1    2    0    0  0.76515181741E+01 -0.30647663736E+02  0.32113673201E+02  0.46142322857E+02  0.10000046468E+02 0.  0.
         12    1    1    2    0    0 -0.76515181741E+01  0.30647663736E+02 -0.32113673201E+02  0.45045677143E+02  0.00000000000E+00 0. -1.
         11    1    3    3    0    0  0.82981018631E+00 -0.15592391620E+02  0.10651096440E+02  0.18901246441E+02  0.51100000000E-03 0. -1.
        -11    1    3    3    0    0  0.41848205262E+01 -0.58696887598E+01  0.97115129610E+01  0.12094604302E+02  0.51100000000E-03 0.  1.
        -12    1    3    3    0    0  0.26368874616E+01 -0.91855833556E+01  0.11751063800E+02  0.15146472114E+02  0.00000000000E+00 0.  1.
</event>
<event>
 7    1  0.1541902E-008  0.4614232E+02  0.7816164E-02  0.1320468E+00
        -11   -1    0    0    0    0  0.00000000000E+00  0.00000000000E+00  0.45593999997E+02  0.45594000000E+02  0.51100000000E-03 0. -1.
         11   -1    0    0    0    0 -0.00000000000E+00 -0.00000000000E+00 -0.45593999997E+02  0.45594000000E+02  0.51100000000E-03 0.  1.
    9900012    2    1    2    0    0  0.17727105597E+02 -0.39009258692E+02 -0.13897515094E+02  0.46142318050E+02  0.10000002636E+02 0.  0.
         12    1    1    2    0    0 -0.17727105597E+02  0.39009258692E+02  0.13897515094E+02  0.45045681950E+02  0.00000000000E+00 0. -1.
         11    1    3    3    0    0  0.26780150657E+01 -0.18185310247E+01 -0.23255730587E+01  0.39858637825E+01  0.51100000000E-03 0. -1.
        -11    1    3    3    0    0  0.12707727752E+02 -0.29891672711E+02 -0.69844915422E+01  0.33223208220E+02  0.51100000000E-03 0.  1.
        -12    1    3    3    0    0  0.23413627789E+01 -0.72990549566E+01 -0.45874504930E+01  0.89332460477E+01  0.00000000000E+00 0.  1.
</event>
<event>
 7    1  0.1541902E-008  0.4614232E+02  0.7816164E-02  0.1320468E+00
        -11   -1    0    0    0    0  0.00000000000E+00  0.00000000000E+00  0.45593999997E+02  0.45594000000E+02  0.51100000000E-03 0.  1.
         11   -1    0    0    0    0 -0.00000000000E+00 -0.00000000000E+00 -0.45593999997E+02  0.45594000000E+02  0.51100000000E-03 0. -1.
    9900012    2    1    2    0    0 -0.34042436358E+02  0.53525457515E+01  0.29009931953E+02  0.46142319062E+02  0.10000011863E+02 0.  0.
         12    1    1    2    0    0  0.34042436358E+02 -0.53525457515E+01 -0.29009931953E+02  0.45045680938E+02  0.00000000000E+00 0. -1.
         11    1    3    3    0    0 -0.12332881299E+02 -0.20558920431E+00  0.12714634516E+02  0.17714518316E+02  0.51100000000E-03 0. -1.
        -11    1    3    3    0    0 -0.19207539894E+02  0.69551920683E+01  0.14327640041E+02  0.24951664372E+02  0.51100000000E-03 0.  1.
        -12    1    3    3    0    0 -0.25020151652E+01 -0.13970571126E+01  0.19676573964E+01  0.34761363742E+01  0.00000000000E+00 0.  1.
</event>
<event>
 7    1  0.1541902E-008  0.4614232E+02  0.7816164E-02  0.1320468E+00
        -11   -1    0    0    0    0  0.00000000000E+00  0.00000000000E+00  0.45593999997E+02  0.45594000000E+02  0.51100000000E-03 0.  1.
         11   -1    0    0    0    0 -0.00000000000E+00 -0.00000000000E+00 -0.45593999997E+02  0.45594000000E+02  0.51100000000E-03 0. -1.
    9900012    2    1    2    0    0  0.28645204950E+01  0.25959464929E+02  0.36701695018E+02  0.46142315254E+02  0.99999771365E+01 0.  0.
         12    1    1    2    0    0 -0.28645204950E+01 -0.25959464929E+02 -0.36701695018E+02  0.45045684746E+02  0.00000000000E+00 0. -1.
         11    1    3    3    0    0  0.18489078616E+01  0.35062665695E+01  0.36984500054E+01  0.54213373110E+01  0.51100000000E-03 0. -1.
        -11    1    3    3    0    0  0.12253974066E+01  0.13206284146E+02  0.12487405666E+02  0.18216554018E+02  0.51100000000E-03 0.  1.
        -12    1    3    3    0    0 -0.20978477313E+00  0.92469142143E+01  0.20515839346E+02  0.22504423925E+02  0.00000000000E+00 0.  1.
</event>
<event>
 7    1  0.1541902E-008  0.4614232E+02  0.7816164E-02  0.1320468E+00
        -11   -1    0    0    0    0  0.00000000000E+00  0.00000000000E+00  0.45593999997E+02  0.45594000000E+02  0.51100000000E-03 0.  1.
         11   -1    0    0    0    0 -0.00000000000E+00 -0.00000000000E+00 -0.45593999997E+02  0.45594000000E+02  0.51100000000E-03 0. -1.
    9900012    2    1    2    0    0  0.41353141973E+02 -0.12501797086E+01  0.17817642939E+02  0.46142315409E+02  0.99999785497E+01 0.  0.
         12    1    1    2    0    0 -0.41353141973E+02  0.12501797086E+01 -0.17817642939E+02  0.45045684591E+02  0.00000000000E+00 0. -1.
         11    1    3    3    0    0  0.11186845717E+01  0.83903646779E+00 -0.13125380293E+00  0.14045159974E+01  0.51100000000E-03 0. -1.
        -11    1    3    3    0    0  0.18670736934E+02 -0.46715822211E+01  0.90427129601E+01  0.21264777357E+02  0.51100000000E-03 0.  1.
        -12    1    3    3    0    0  0.21563720467E+02  0.25823660446E+01  0.89061837822E+01  0.23473022054E+02  0.00000000000E+00 0.  1.
</event>
<event>
 7    1  0.1541902E-008  0.4614232E+02  0.7816164E-02  0.1320468E+00
        -11   -1    0    0    0    0  0.00000000000E+00  0.00000000000E+00  0.45593999997E+02  0.45594000000E+02  0.51100000000E-03 0.  1.
         11   -1    0    0    0    0 -0.00000000000E+00 -0.00000000000E+00 -0.45593999997E+02  0.45594000000E+02  0.51100000000E-03 0. -1.
    9900012    2    1    2    0    0  0.44325774564E+02 -0.60691245099E+01  0.52445067890E+01  0.46142318581E+02  0.10000007479E+02 0.  0.
         12    1    1    2    0    0 -0.44325774564E+02  0.60691245099E+01 -0.52445067890E+01  0.45045681419E+02  0.00000000000E+00 0. -1.
         11    1    3    3    0    0  0.54318493632E+01 -0.12157552798E+00  0.27311820609E+01  0.60810462771E+01  0.51100000000E-03 0. -1.
        -11    1    3    3    0    0  0.19681376183E+02 -0.12901189243E+01  0.43807612592E+01  0.20204258085E+02  0.51100000000E-03 0.  1.
         12    1    3    3    0    0  0.19212549017E+02 -0.46574300577E+01 -0.18674365311E+01  0.19857014219E+02  0.00000000000E+00 0. -1.
</event>
<event>
 7    1  0.1541902E-008  0.4614232E+02  0.7816164E-02  0.1320468E+00
        -11   -1    0    0    0    0  0.00000000000E+00  0.00000000000E+00  0.45593999997E+02  0.45594000000E+02  0.51100000000E-03 0.  1.
         11   -1    0    0    0    0 -0.00000000000E+00 -0.00000000000E+00 -0.45593999997E+02  0.45594000000E+02  0.51100000000E-03 0. -1.
    9900012    2    1    2    0    0 -0.19491116827E+01  0.30546840446E+01  0.44899702399E+02  0.46142318670E+02  0.10000008286E+02 0.  0.
         12    1    1    2    0    0  0.19491116827E+01 -0.30546840446E+01 -0.44899702399E+02  0.45045681330E+02  0.00000000000E+00 0. -1.
         11    1    3    3    0    0 -0.25992551749E+01  0.33930208969E+01  0.88919205283E+01  0.98658486312E+01  0.51100000000E-03 0. -1.
        -11    1    3    3    0    0  0.16941186868E+00 -0.23293094568E+01  0.21033194293E+02  0.21162458395E+02  0.51100000000E-03 0.  1.
         12    1    3    3    0    0  0.48073162343E+00  0.19909726046E+01  0.14974587578E+02  0.15114011643E+02  0.00000000000E+00 0. -1.
</event>
<event>
 7    1  0.1541902E-008  0.4614232E+02  0.7816164E-02  0.1320468E+00
        -11   -1    0    0    0    0  0.00000000000E+00  0.00000000000E+00  0.45593999997E+02  0.45594000000E+02  0.51100000000E-03 0.  1.
         11   -1    0    0    0    0 -0.00000000000E+00 -0.00000000000E+00 -0.45593999997E+02  0.45594000000E+02  0.51100000000E-03 0. -1.
    9900012    2    1    2    0    0  0.17105200788E+02 -0.41579564596E+02 -0.27686504724E+01  0.46142317505E+02  0.99999976623E+01 0.  0.
         12    1    1    2    0    0 -0.17105200788E+02  0.41579564596E+02  0.27686504724E+01  0.45045682495E+02  0.00000000000E+00 0. -1.
         11    1    3    3    0    0  0.86785748452E+01 -0.11986233685E+02 -0.14809080736E+01  0.14872140003E+02  0.51100000000E-03 0. -1.
        -11    1    3    3    0    0  0.62435887163E+01 -0.23353248154E+02  0.12085323069E+01  0.24203659847E+02  0.51100000000E-03 0.  1.
         12    1    3    3    0    0  0.21830372267E+01 -0.62400827576E+01 -0.24962747057E+01  0.70665176545E+01  0.00000000000E+00 0. -1.
</event>
<event>
 7    1  0.1541902E-008  0.4614232E+02  0.7816164E-02  0.1320468E+00
        -11   -1    0    0    0    0  0.00000000000E+00  0.00000000000E+00  0.45593999997E+02  0.45594000000E+02  0.51100000000E-03 0.  1.
         11   -1    0    0    0    0 -0.00000000000E+00 -0.00000000000E+00 -0.45593999997E+02  0.45594000000E+02  0.51100000000E-03 0. -1.
    9900012    2    1    2    0    0 -0.28071049016E+01  0.36449830237E+02 -0.26318121265E+02  0.46142317975E+02  0.10000001946E+02 0.  0.
         12    1    1    2    0    0  0.28071049016E+01 -0.36449830237E+02  0.26318121265E+02  0.45045682025E+02  0.00000000000E+00 0. -1.
         11    1    3    3    0    0 -0.10732029607E+01  0.23132657155E+02 -0.20289221986E+02  0.30788376390E+02  0.51100000000E-03 0. -1.
        -11    1    3    3    0    0 -0.14043436307E+01  0.24558830072E+01  0.18732534567E+00  0.28352483884E+01  0.51100000000E-03 0.  1.
        -12    1    3    3    0    0 -0.32955831028E+00  0.10861290075E+02 -0.62162246245E+01  0.12518693196E+02  0.00000000000E+00 0.  1.
</event>
<event>
 7    1  0.1541902E-008  0.4614232E+02  0.7816164E-02  0.1320468E+00
        -11   -1    0    0    0    0  0.00000000000E+00  0.00000000000E+00  0.45593999997E+02  0.45594000000E+02  0.51100000000E-03 0.  1.
         11   -1    0    0    0    0 -0.00000000000E+00 -0.00000000000E+00 -0.45593999997E+02  0.45594000000E+02  0.51100000000E-03 0. -1.
    9900012    2    1    2    0    0 -0.36603621970E+02  0.13130021236E+02  0.22735235881E+02  0.46142317083E+02  0.99999938132E+01 0.  0.
         12    1    1    2    0    0  0.36603621970E+02 -0.13130021236E+02 -0.22735235881E+02  0.45045682917E+02  0.00000000000E+00 0. -1.
         11    1    3    3    0    0 -0.37160870136E+01  0.35432866832E+01  0.57798591332E+01  0.77311677690E+01  0.51100000000E-03 0. -1.
        -11    1    3    3    0    0 -0.21462628539E+02  0.67965369602E+01  0.91810742476E+01  0.24313154116E+02  0.51100000000E-03 0.  1.
        -12    1    3    3    0    0 -0.11424906417E+02  0.27901975922E+01  0.77743024998E+01  0.14097995198E+02  0.00000000000E+00 0.  1.
</event>
<event>
 7    1  0.1541902E-008  0.4614232E+02  0.7816164E-02  0.1320468E+00
        -11   -1    0    0    0    0  0.00000000000E+00  0.00000000000E+00  0.45593999997E+02  0.45594000000E+02  0.51100000000E-03 0.  1.
         11   -1    0    0    0    0 -0.00000000000E+00 -0.00000000000E+00 -0.45593999997E+02  0.45594000000E+02  0.51100000000E-03 0. -1.
    9900012    2    1    2    0    0  0.99389376776E+01  0.39591909915E+02  0.19047620847E+02  0.46142315714E+02  0.99999813302E+01 0.  0.
         12    1    1    2    0    0 -0.99389376776E+01 -0.39591909915E+02 -0.19047620847E+02  0.45045684286E+02  0.00000000000E+00 0. -1.
         11    1    3    3    0    0 -0.10043719904E+01  0.94448731367E+01  0.39185042869E+01  0.10274680908E+02  0.51100000000E-03 0. -1.
        -11    1    3    3    0    0  0.60910588999E+01  0.23577566552E+02  0.11498242426E+02  0.26929764614E+02  0.51100000000E-03 0.  1.
         12    1    3    3    0    0  0.48522507680E+01  0.65694702268E+01  0.36308741336E+01  0.89378701910E+01  0.00000000000E+00 0. -1.
</event>
<event>
 7    1  0.1541902E-008  0.4614232E+02  0.7816164E-02  0.1320468E+00
        -11   -1    0    0    0    0  0.00000000000E+00  0.00000000000E+00  0.45593999997E+02  0.45594000000E+02  0.51100000000E-03 0.  1.
         11   -1    0    0    0    0 -0.00000000000E+00 -0.00000000000E+00 -0.45593999997E+02  0.45594000000E+02  0.51100000000E-03 0. -1.
    9900012    2    1    2    0    0  0.27883509107E+02 -0.33631238936E+02 -0.10980133441E+02  0.46142316046E+02  0.99999843606E+01 0.  0.
         12    1    1    2    0    0 -0.27883509107E+02  0.33631238936E+02  0.10980133441E+02  0.45045683954E+02  0.00000000000E+00 0. -1.
         11    1    3    3    0    0  0.50851178930E+01 -0.85379960758E+01 -0.56123536388E+01  0.11412901235E+02  0.51100000000E-03 0. -1.
        -11    1    3    3    0    0  0.11230009209E+02 -0.11274699784E+02 -0.50835840972E+01  0.16705531707E+02  0.51100000000E-03 0.  1.
        -12    1    3    3    0    0  0.11568382005E+02 -0.13818543076E+02 -0.28419570451E+00  0.18023883104E+02  0.00000000000E+00 0.  1.
</event>
<event>
 7    1  0.1541902E-008  0.4614232E+02  0.7816164E-02  0.1320468E+00
        -11   -1    0    0    0    0  0.00000000000E+00  0.00000000000E+00  0.45593999997E+02  0.45594000000E+02  0.51100000000E-03 0.  1.
         11   -1    0    0    0    0 -0.00000000000E+00 -0.00000000000E+00 -0.45593999997E+02  0.45594000000E+02  0.51100000000E-03 0. -1.
    9900012    2    1    2    0    0  0.13180902147E+02 -0.23833403345E+02  0.35879606342E+02  0.46142318213E+02  0.10000004124E+02 0.  0.
         12    1    1    2    0    0 -0.13180902147E+02  0.23833403345E+02 -0.35879606342E+02  0.45045681787E+02  0.00000000000E+00 0. -1.
         11    1    3    3    0    0  0.11492939098E+02 -0.16704580832E+02  0.22410139576E+02  0.30221598666E+02  0.51100000000E-03 0.  1.
        -11    1    3    3    0    0  0.95271403792E+00  0.22426888199E+00  0.25908995895E+01  0.27696067435E+01  0.51100000000E-03 0. -1.
         12    1    3    3    0    0  0.73524901182E+00 -0.73530913945E+01  0.10878567176E+02  0.13151112804E+02  0.00000000000E+00 0. -1.
</event>
<event>
 7    1  0.1541902E-008  0.4614231E+02  0.7816164E-02  0.1320468E+00
        -11   -1    0    0    0    0  0.00000000000E+00  0.00000000000E+00  0.45593999997E+02  0.45594000000E+02  0.51100000000E-03 0.  1.
         11   -1    0    0    0    0 -0.00000000000E+00 -0.00000000000E+00 -0.45593999997E+02  0.45594000000E+02  0.51100000000E-03 0. -1.
    9900012    2    1    2    0    0 -0.43720392082E+02 -0.29813933409E+01 -0.10428468286E+02  0.46142308299E+02  0.99999137184E+01 0.  0.
         12    1    1    2    0    0  0.43720392082E+02  0.29813933409E+01  0.10428468286E+02  0.45045691701E+02  0.00000000000E+00 0. -1.
         11    1    3    3    0    0 -0.17010632552E+01 -0.12500992674E+01  0.68220479287E+00  0.22185058073E+01  0.51100000000E-03 0. -1.
        -11    1    3    3    0    0 -0.39913996536E+02 -0.29811505566E+01 -0.10793500958E+02  0.41454964013E+02  0.51100000000E-03 0.  1.
        -12    1    3    3    0    0 -0.21053322904E+01  0.12498564831E+01 -0.31717212021E+00  0.24688384789E+01  0.00000000000E+00 0.  1.
</event>
<event>
 7    1  0.1541902E-008  0.4614232E+02  0.7816164E-02  0.1320468E+00
        -11   -1    0    0    0    0  0.00000000000E+00  0.00000000000E+00  0.45593999997E+02  0.45594000000E+02  0.51100000000E-03 0.  1.
         11   -1    0    0    0    0 -0.00000000000E+00 -0.00000000000E+00 -0.45593999997E+02  0.45594000000E+02  0.51100000000E-03 0. -1.
    9900012    2    1    2    0    0 -0.68682666768E+01  0.62460289307E+01  0.44078652416E+02  0.46142316928E+02  0.99999924074E+01 0.  0.
         12    1    1    2    0    0  0.68682666768E+01 -0.62460289307E+01 -0.44078652416E+02  0.45045683072E+02  0.00000000000E+00 0. -1.
         11    1    3    3    0    0 -0.28653349171E+01 -0.28246619070E+00  0.33483365435E+01  0.44160264045E+01  0.51100000000E-03 0. -1.
        -11    1    3    3    0    0 -0.20086797144E+01  0.30612011935E+01  0.30857827661E+02  0.31074286398E+02  0.51100000000E-03 0.  1.
         12    1    3    3    0    0 -0.19942520453E+01  0.34672939279E+01  0.98724882119E+01  0.10652004126E+02  0.00000000000E+00 0. -1.
</event>
<event>
 7    1  0.1541902E-008  0.4614231E+02  0.7816164E-02  0.1320468E+00
        -11   -1    0    0    0    0  0.00000000000E+00  0.00000000000E+00  0.45593999997E+02  0.45594000000E+02  0.51100000000E-03 0.  1.
         11   -1    0    0    0    0 -0.00000000000E+00 -0.00000000000E+00 -0.45593999997E+02  0.45594000000E+02  0.51100000000E-03 0. -1.
    9900012    2    1    2    0    0 -0.34146481070E+02  0.29024297481E+02  0.45521282445E+01  0.46142313356E+02  0.99999598262E+01 0.  0.
         12    1    1    2    0    0  0.34146481070E+02 -0.29024297481E+02 -0.45521282445E+01  0.45045686644E+02  0.00000000000E+00 0. -1.
         11    1    3    3    0    0 -0.32254524513E+01  0.79837516876E+00  0.56534092442E+00  0.33705425450E+01  0.51100000000E-03 0. -1.
        -11    1    3    3    0    0 -0.23360333186E+02  0.17310882359E+02  0.48007991530E+01  0.29468958030E+02  0.51100000000E-03 0.  1.
        -12    1    3    3    0    0 -0.75606954322E+01  0.10915039954E+02 -0.81401183286E+00  0.13302812780E+02  0.00000000000E+00 0.  1.
</event>
<event>
 7    1  0.1541902E-008  0.4614232E+02  0.7816164E-02  0.1320468E+00
        -11   -1    0    0    0    0  0.00000000000E+00  0.00000000000E+00  0.45593999997E+02  0.45594000000E+02  0.51100000000E-03 0.  1.
         11   -1    0    0    0    0 -0.00000000000E+00 -0.00000000000E+00 -0.45593999997E+02  0.45594000000E+02  0.51100000000E-03 0. -1.
    9900012    2    1    2    0    0 -0.29083361071E+02  0.31188015238E+02  0.14511350939E+02  0.46142317724E+02  0.99999996581E+01 0.  0.
         12    1    1    2    0    0  0.29083361071E+02 -0.31188015238E+02 -0.14511350939E+02  0.45045682276E+02  0.00000000000E+00 0. -1.
         11    1    3    3    0    0 -0.26671439129E+02  0.27462537453E+02  0.13686749987E+02  0.40655673086E+02  0.51100000000E-03 0.  1.
        -11    1    3    3    0    0 -0.21653252118E+01  0.82749413299E+00 -0.36067033663E+00  0.23459461131E+01  0.51100000000E-03 0. -1.
        -12    1    3    3    0    0 -0.24659672973E+00  0.28979836524E+01  0.11852712887E+01  0.31406985249E+01  0.00000000000E+00 0.  1.
</event>
<event>
 7    1  0.1541902E-008  0.4614232E+02  0.7816164E-02  0.1320468E+00
        -11   -1    0    0    0    0  0.00000000000E+00  0.00000000000E+00  0.45593999997E+02  0.45594000000E+02  0.51100000000E-03 0.  1.
         11   -1    0    0    0    0 -0.00000000000E+00 -0.00000000000E+00 -0.45593999997E+02  0.45594000000E+02  0.51100000000E-03 0. -1.
    9900012    2    1    2    0    0 -0.24679054159E+02  0.36886069274E+02  0.77120353315E+01  0.46142319745E+02  0.10000018093E+02 0.  0.
         12    1    1    2    0    0  0.24679054159E+02 -0.36886069274E+02 -0.77120353315E+01  0.45045680255E+02  0.00000000000E+00 0. -1.
         11    1    3    3    0    0 -0.63688057281E+01  0.66566508858E+01  0.18263439797E+01  0.93919231263E+01  0.51100000000E-03 0. -1.
        -11    1    3    3    0    0 -0.13887520821E+02  0.27602773648E+02  0.64820546539E+01  0.31572034784E+02  0.51100000000E-03 0.  1.
        -12    1    3    3    0    0 -0.44227276099E+01  0.26266447399E+01 -0.59636330216E+00  0.51783618345E+01  0.00000000000E+00 0.  1.
</event>
<event>
 7    1  0.1541902E-008  0.4614232E+02  0.7816164E-02  0.1320468E+00
        -11   -1    0    0    0    0  0.00000000000E+00  0.00000000000E+00  0.45593999997E+02  0.45594000000E+02  0.51100000000E-03 0. -1.
         11   -1    0    0    0    0 -0.00000000000E+00 -0.00000000000E+00 -0.45593999997E+02  0.45594000000E+02  0.51100000000E-03 0.  1.
    9900012    2    1    2    0    0 -0.32081102064E+02  0.23704796762E+02 -0.20928424858E+02  0.46142318007E+02  0.10000002246E+02 0.  0.
         12    1    1    2    0    0  0.32081102064E+02 -0.23704796762E+02  0.20928424858E+02  0.45045681993E+02  0.00000000000E+00 0. -1.
         11    1    3    3    0    0 -0.43289814160E+01  0.22491864797E+01 -0.21694931189E+00  0.48832353195E+01  0.51100000000E-03 0. -1.
        -11    1    3    3    0    0 -0.80752590076E+01  0.32653814835E+01 -0.33649550323E+01  0.93378502292E+01  0.51100000000E-03 0.  1.
        -12    1    3    3    0    0 -0.19676861640E+02  0.18190228799E+02 -0.17346520513E+02  0.31921232459E+02  0.00000000000E+00 0.  1.
</event>
<event>
 7    1  0.1541902E-008  0.4614232E+02  0.7816164E-02  0.1320468E+00
        -11   -1    0    0    0    0  0.00000000000E+00  0.00000000000E+00  0.45593999997E+02  0.45594000000E+02  0.51100000000E-03 0. -1.
         11   -1    0    0    0    0 -0.00000000000E+00 -0.00000000000E+00 -0.45593999997E+02  0.45594000000E+02  0.51100000000E-03 0.  1.
    9900012    2    1    2    0    0 -0.11708647177E+02 -0.26946285405E+02 -0.34145553425E+02  0.46142317249E+02  0.99999953287E+01 0.  0.
         12    1    1    2    0    0  0.11708647177E+02  0.26946285405E+02  0.34145553425E+02  0.45045682751E+02  0.00000000000E+00 0. -1.
         11    1    3    3    0    0 -0.15402033026E+01  0.29006118705E+00 -0.28629150388E+01  0.32638389185E+01  0.51100000000E-03 0. -1.
        -11    1    3    3    0    0 -0.51945747962E+01 -0.18478308803E+02 -0.21785333181E+02  0.29035017575E+02  0.51100000000E-03 0.  1.
        -12    1    3    3    0    0 -0.49738690778E+01 -0.87580377894E+01 -0.94973052051E+01  0.13843460755E+02  0.00000000000E+00 0.  1.
</event>
<event>
 7    1  0.1541902E-008  0.4614232E+02  0.7816164E-02  0.1320468E+00
        -11   -1    0    0    0    0  0.00000000000E+00  0.00000000000E+00  0.45593999997E+02  0.45594000000E+02  0.51100000000E-03 0.  1.
         11   -1    0    0    0    0 -0.00000000000E+00 -0.00000000000E+00 -0.45593999997E+02  0.45594000000E+02  0.51100000000E-03 0. -1.
    9900012    2    1    2    0    0  0.25583783477E+02  0.15457088814E+02  0.33699582215E+02  0.46142318597E+02  0.10000007622E+02 0.  0.
         12    1    1    2    0    0 -0.25583783477E+02 -0.15457088814E+02 -0.33699582215E+02  0.45045681403E+02  0.00000000000E+00 0. -1.
         11    1    3    3    0    0  0.31383260737E+01  0.42310484536E+01  0.23820226475E+01  0.57814266160E+01  0.51100000000E-03 0. -1.
        -11    1    3    3    0    0  0.77537549496E+01  0.61696032901E+01  0.12844284996E+02  0.16222218649E+02  0.51100000000E-03 0.  1.
         12    1    3    3    0    0  0.14691702453E+02  0.50564370699E+01  0.18473274572E+02  0.24138673332E+02  0.00000000000E+00 0. -1.
</event>
<event>
 7    1  0.1541902E-008  0.4614232E+02  0.7816164E-02  0.1320468E+00
        -11   -1    0    0    0    0  0.00000000000E+00  0.00000000000E+00  0.45593999997E+02  0.45594000000E+02  0.51100000000E-03 0.  1.
         11   -1    0    0    0    0 -0.00000000000E+00 -0.00000000000E+00 -0.45593999997E+02  0.45594000000E+02  0.51100000000E-03 0. -1.
    9900012    2    1    2    0    0 -0.18948440175E+02 -0.73665085683E+01  0.40197073614E+02  0.46142316958E+02  0.99999926793E+01 0.  0.
         12    1    1    2    0    0  0.18948440175E+02  0.73665085683E+01 -0.40197073614E+02  0.45045683042E+02  0.00000000000E+00 0. -1.
         11    1    3    3    0    0 -0.48270459322E+01  0.12137320077E+01  0.15042330697E+02  0.15844406927E+02  0.51100000000E-03 0. -1.
        -11    1    3    3    0    0 -0.12408077529E+02 -0.60271065776E+01  0.21103819718E+02  0.25212251161E+02  0.51100000000E-03 0.  1.
         12    1    3    3    0    0 -0.17133167146E+01 -0.25531339984E+01  0.40509231986E+01  0.50856588697E+01  0.00000000000E+00 0. -1.
</event>
<event>
 7    1  0.1541902E-008  0.4614232E+02  0.7816164E-02  0.1320468E+00
        -11   -1    0    0    0    0  0.00000000000E+00  0.00000000000E+00  0.45593999997E+02  0.45594000000E+02  0.51100000000E-03 0.  1.
         11   -1    0    0    0    0 -0.00000000000E+00 -0.00000000000E+00 -0.45593999997E+02  0.45594000000E+02  0.51100000000E-03 0. -1.
    9900012    2    1    2    0    0 -0.14053790382E+02 -0.26894801362E+02  0.33290751337E+02  0.46142317754E+02  0.99999999343E+01 0.  0.
         12    1    1    2    0    0  0.14053790382E+02  0.26894801362E+02 -0.33290751337E+02  0.45045682246E+02  0.00000000000E+00 0. -1.
         11    1    3    3    0    0 -0.56286796710E+01 -0.70093282638E+01  0.81378872499E+01  0.12125919623E+02  0.51100000000E-03 0. -1.
        -11    1    3    3    0    0 -0.74508782443E+01 -0.17061914512E+02  0.16552215721E+02  0.24911851777E+02  0.51100000000E-03 0.  1.
         12    1    3    3    0    0 -0.97423246698E+00 -0.28235585863E+01  0.86006483662E+01  0.91045463539E+01  0.00000000000E+00 0. -1.
</event>
<event>
 7    1  0.1541902E-008  0.4614232E+02  0.7816164E-02  0.1320468E+00
        -11   -1    0    0    0    0  0.00000000000E+00  0.00000000000E+00  0.45593999997E+02  0.45594000000E+02  0.51100000000E-03 0.  1.
         11   -1    0    0    0    0 -0.00000000000E+00 -0.00000000000E+00 -0.45593999997E+02  0.45594000000E+02  0.51100000000E-03 0. -1.
    9900012    2    1    2    0    0  0.25364693855E+02  0.20779054407E+02  0.30886511948E+02  0.46142318556E+02  0.10000007250E+02 0.  0.
         12    1    1    2    0    0 -0.25364693855E+02 -0.20779054407E+02 -0.30886511948E+02  0.45045681444E+02  0.00000000000E+00 0. -1.
         11    1    3    3    0    0  0.12146865515E+02  0.46696518800E+01  0.10252533266E+02  0.16567028374E+02  0.51100000000E-03 0. -1.
        -11    1    3    3    0    0  0.19313652038E+01  0.13973758213E+01  0.40446845603E+01  0.46949232358E+01  0.51100000000E-03 0.  1.
         12    1    3    3    0    0  0.11286463137E+02  0.14712026706E+02  0.16589294122E+02  0.24880366946E+02  0.00000000000E+00 0. -1.
</event>
<event>
 7    1  0.1541902E-008  0.4614232E+02  0.7816164E-02  0.1320468E+00
        -11   -1    0    0    0    0  0.00000000000E+00  0.00000000000E+00  0.45593999997E+02  0.45594000000E+02  0.51100000000E-03 0.  1.
         11   -1    0    0    0    0 -0.00000000000E+00 -0.00000000000E+00 -0.45593999997E+02  0.45594000000E+02  0.51100000000E-03 0. -1.
    9900012    2    1    2    0    0  0.86002583315E+01  0.23674305603E+02  0.37345364577E+02  0.46142318247E+02  0.10000004433E+02 0.  0.
         12    1    1    2    0    0 -0.86002583315E+01 -0.23674305603E+02 -0.37345364577E+02  0.45045681753E+02  0.00000000000E+00 0. -1.
         11    1    3    3    0    0  0.27821170410E+01  0.63312652494E+01  0.52604048227E+01  0.86888983218E+01  0.51100000000E-03 0. -1.
        -11    1    3    3    0    0  0.37816206519E+01  0.31793063932E+01  0.68852683438E+01  0.84744064290E+01  0.51100000000E-03 0.  1.
        -12    1    3    3    0    0  0.20365206386E+01  0.14163733961E+02  0.25199691411E+02  0.28979013496E+02  0.00000000000E+00 0.  1.
</event>
<event>
 7    1  0.1541902E-008  0.4614232E+02  0.7816164E-02  0.1320468E+00
        -11   -1    0    0    0    0  0.00000000000E+00  0.00000000000E+00  0.45593999997E+02  0.45594000000E+02  0.51100000000E-03 0. -1.
         11   -1    0    0    0    0 -0.00000000000E+00 -0.00000000000E+00 -0.45593999997E+02  0.45594000000E+02  0.51100000000E-03 0.  1.
    9900012    2    1    2    0    0 -0.33454445161E+02  0.96664299309E+01 -0.28574004070E+02  0.46142317885E+02  0.10000001127E+02 0.  0.
         12    1    1    2    0    0  0.33454445161E+02 -0.96664299309E+01  0.28574004070E+02  0.45045682115E+02  0.00000000000E+00 0. -1.
         11    1    3    3    0    0 -0.44914145003E+00  0.13720051723E+01 -0.15328976485E+01  0.21056831900E+01  0.51100000000E-03 0. -1.
        -11    1    3    3    0    0 -0.27505682216E+02  0.42340857342E+01 -0.20399811047E+02  0.34505685433E+02  0.51100000000E-03 0.  1.
        -12    1    3    3    0    0 -0.54996214945E+01  0.40603390244E+01 -0.66412953743E+01  0.95309492614E+01  0.00000000000E+00 0.  1.
</event>
<event>
 7    1  0.1541902E-008  0.4614232E+02  0.7816164E-02  0.1320468E+00
        -11   -1    0    0    0    0  0.00000000000E+00  0.00000000000E+00  0.45593999997E+02  0.45594000000E+02  0.51100000000E-03 0. -1.
         11   -1    0    0    0    0 -0.00000000000E+00 -0.00000000000E+00 -0.45593999997E+02  0.45594000000E+02  0.51100000000E-03 0.  1.
    9900012    2    1    2    0    0  0.28024629316E+01 -0.55837293476E+01 -0.44610329573E+02  0.46142319447E+02  0.10000015373E+02 0.  0.
         12    1    1    2    0    0 -0.28024629316E+01  0.55837293476E+01  0.44610329573E+02  0.45045680553E+02  0.00000000000E+00 0. -1.
         11    1    3    3    0    0  0.25579981756E+01 -0.66680991994E+00 -0.25789873783E+02  0.25924999135E+02  0.51100000000E-03 0. -1.
        -11    1    3    3    0    0 -0.84561586472E-02 -0.11951766842E+01 -0.14329099807E+02  0.14378860190E+02  0.51100000000E-03 0.  1.
         12    1    3    3    0    0  0.25292091467E+00 -0.37217427435E+01 -0.44913559821E+01  0.58384601219E+01  0.00000000000E+00 0. -1.
</event>
<event>
 7    1  0.1541902E-008  0.4614232E+02  0.7816164E-02  0.1320468E+00
        -11   -1    0    0    0    0  0.00000000000E+00  0.00000000000E+00  0.45593999997E+02  0.45594000000E+02  0.51100000000E-03 0.  1.
         11   -1    0    0    0    0 -0.00000000000E+00 -0.00000000000E+00 -0.45593999997E+02  0.45594000000E+02  0.51100000000E-03 0. -1.
    9900012    2    1    2    0    0  0.36950906886E+02 -0.22364625740E+02  0.12789345506E+02  0.46142319157E+02  0.10000012727E+02 0.  0.
         12    1    1    2    0    0 -0.36950906886E+02  0.22364625740E+02 -0.12789345506E+02  0.45045680843E+02  0.00000000000E+00 0. -1.
         11    1    3    3    0    0  0.49580971155E+01 -0.15711935608E+01  0.63345463177E+00  0.52395268149E+01  0.51100000000E-03 0. -1.
        -11    1    3    3    0    0  0.11267073074E+02 -0.98042036179E+01  0.11192504489E+01  0.14977385155E+02  0.51100000000E-03 0.  1.
        -12    1    3    3    0    0  0.20725736696E+02 -0.10989228561E+02  0.11036640425E+02  0.25925407187E+02  0.00000000000E+00 0.  1.
</event>
<event>
 7    1  0.1541902E-008  0.4614232E+02  0.7816164E-02  0.1320468E+00
        -11   -1    0    0    0    0  0.00000000000E+00  0.00000000000E+00  0.45593999997E+02  0.45594000000E+02  0.51100000000E-03 0. -1.
         11   -1    0    0    0    0 -0.00000000000E+00 -0.00000000000E+00 -0.45593999997E+02  0.45594000000E+02  0.51100000000E-03 0.  1.
    9900012    2    1    2    0    0 -0.29839686899E+02 -0.39003420611E+01  0.33518561957E+02  0.46142316765E+02  0.99999909181E+01 0.  0.
         12    1    1    2    0    0  0.29839686899E+02  0.39003420611E+01 -0.33518561957E+02  0.45045683235E+02  0.00000000000E+00 0. -1.
         11    1    3    3    0    0 -0.14408442348E+02  0.62163017848E+00  0.20111768122E+02  0.24748188868E+02  0.51100000000E-03 0. -1.
        -11    1    3    3    0    0 -0.66480348574E+01 -0.34812746412E+00  0.74465030384E+01  0.99883916603E+01  0.51100000000E-03 0.  1.
         12    1    3    3    0    0 -0.87832096937E+01 -0.41738447754E+01  0.59602907965E+01  0.11405736237E+02  0.00000000000E+00 0. -1.
</event>
<event>
 7    1  0.1541902E-008  0.4614232E+02  0.7816164E-02  0.1320468E+00
        -11   -1    0    0    0    0  0.00000000000E+00  0.00000000000E+00  0.45593999997E+02  0.45594000000E+02  0.51100000000E-03 0.  1.
         11   -1    0    0    0    0 -0.00000000000E+00 -0.00000000000E+00 -0.45593999997E+02  0.45594000000E+02  0.51100000000E-03 0. -1.
    9900012    2    1    2    0    0 -0.32943887721E+02 -0.12620932814E+01  0.30695616972E+02  0.46142317422E+02  0.99999969056E+01 0.  0.
         12    1    1    2    0    0  0.32943887721E+02  0.12620932814E+01 -0.30695616972E+02  0.45045682578E+02  0.00000000000E+00 0. -1.
         11    1    3    3    0    0 -0.17504569945E+02  0.54435699175E+00  0.14009726243E+02  0.22427187143E+02  0.51100000000E-03 0. -1.
        -11    1    3    3    0    0 -0.66820377012E+01 -0.46971692037E+00  0.11875977206E+02  0.13634848613E+02  0.51100000000E-03 0.  1.
        -12    1    3    3    0    0 -0.87572800745E+01 -0.13367333527E+01  0.48099135233E+01  0.10080281666E+02  0.00000000000E+00 0.  1.
</event>
<event>
 7    1  0.1541902E-008  0.4614232E+02  0.7816164E-02  0.1320468E+00
        -11   -1    0    0    0    0  0.00000000000E+00  0.00000000000E+00  0.45593999997E+02  0.45594000000E+02  0.51100000000E-03 0. -1.
         11   -1    0    0    0    0 -0.00000000000E+00 -0.00000000000E+00 -0.45593999997E+02  0.45594000000E+02  0.51100000000E-03 0.  1.
    9900012    2    1    2    0    0 -0.12962708420E+02  0.27682973502E+02 -0.33086773937E+02  0.46142318287E+02  0.10000004791E+02 0.  0.
         12    1    1    2    0    0  0.12962708420E+02 -0.27682973502E+02  0.33086773937E+02  0.45045681713E+02  0.00000000000E+00 0. -1.
         11    1    3    3    0    0 -0.61814549804E+00 -0.87368892747E-01  0.24322765935E+00  0.66999786236E+00  0.51100000000E-03 0. -1.
        -11    1    3    3    0    0 -0.11300301299E+02  0.20137810225E+02 -0.26776074078E+02  0.35357974396E+02  0.51100000000E-03 0.  1.
        -12    1    3    3    0    0 -0.10442616225E+01  0.76325321703E+01 -0.65539275180E+01  0.10114346028E+02  0.00000000000E+00 0.  1.
</event>
<event>
 7    1  0.1541902E-008  0.4614232E+02  0.7816164E-02  0.1320468E+00
        -11   -1    0    0    0    0  0.00000000000E+00  0.00000000000E+00  0.45593999997E+02  0.45594000000E+02  0.51100000000E-03 0. -1.
         11   -1    0    0    0    0 -0.00000000000E+00 -0.00000000000E+00 -0.45593999997E+02  0.45594000000E+02  0.51100000000E-03 0.  1.
    9900012    2    1    2    0    0 -0.15251730713E+02  0.12950310603E+01 -0.42365329008E+02  0.46142317663E+02  0.99999991086E+01 0.  0.
         12    1    1    2    0    0  0.15251730713E+02 -0.12950310603E+01  0.42365329008E+02  0.45045682337E+02  0.00000000000E+00 0. -1.
         11    1    3    3    0    0 -0.45312802206E+00 -0.15817018958E+00  0.25054237226E+00  0.54140054920E+00  0.51100000000E-03 0. -1.
        -11    1    3    3    0    0 -0.10789774392E+02  0.48977694595E+00 -0.21211628997E+02  0.23803199740E+02  0.51100000000E-03 0.  1.
        -12    1    3    3    0    0 -0.40088282994E+01  0.96342430395E+00 -0.21404242383E+02  0.21797717374E+02  0.00000000000E+00 0.  1.
</event>
<event>
 7    1  0.1541902E-008  0.4614232E+02  0.7816164E-02  0.1320468E+00
        -11   -1    0    0    0    0  0.00000000000E+00  0.00000000000E+00  0.45593999997E+02  0.45594000000E+02  0.51100000000E-03 0.  1.
         11   -1    0    0    0    0 -0.00000000000E+00 -0.00000000000E+00 -0.45593999997E+02  0.45594000000E+02  0.51100000000E-03 0. -1.
    9900012    2    1    2    0    0  0.26053320474E+02 -0.11591401824E+02  0.34870866711E+02  0.46142318196E+02  0.10000003965E+02 0.  0.
         12    1    1    2    0    0 -0.26053320474E+02  0.11591401824E+02 -0.34870866711E+02  0.45045681804E+02  0.00000000000E+00 0. -1.
         11    1    3    3    0    0  0.82280643456E+01 -0.78758641908E+01  0.13777098488E+02  0.17875646076E+02  0.51100000000E-03 0. -1.
        -11    1    3    3    0    0  0.12844895081E+02 -0.65755707995E+00  0.13038360026E+02  0.18314544586E+02  0.51100000000E-03 0.  1.
        -12    1    3    3    0    0  0.49803610479E+01 -0.30579805532E+01  0.80554081971E+01  0.99521275340E+01  0.00000000000E+00 0.  1.
</event>
<event>
 7    1  0.1541902E-008  0.4614232E+02  0.7816164E-02  0.1320468E+00
        -11   -1    0    0    0    0  0.00000000000E+00  0.00000000000E+00  0.45593999997E+02  0.45594000000E+02  0.51100000000E-03 0.  1.
         11   -1    0    0    0    0 -0.00000000000E+00 -0.00000000000E+00 -0.45593999997E+02  0.45594000000E+02  0.51100000000E-03 0. -1.
    9900012    2    1    2    0    0  0.34471341047E+02  0.27897376743E+02  0.79105301662E+01  0.46142317962E+02  0.10000001834E+02 0.  0.
         12    1    1    2    0    0 -0.34471341047E+02 -0.27897376743E+02 -0.79105301662E+01  0.45045682038E+02  0.00000000000E+00 0. -1.
         11    1    3    3    0    0  0.80401259388E+01  0.54064936974E+01  0.38326388941E+01  0.10419353164E+02  0.51100000000E-03 0. -1.
        -11    1    3    3    0    0  0.25932833787E+02  0.19571723751E+02  0.41955801562E+01  0.32759229721E+02  0.51100000000E-03 0.  1.
         12    1    3    3    0    0  0.49838132109E+00  0.29191592952E+01 -0.11768888403E+00  0.29637350768E+01  0.00000000000E+00 0. -1.
</event>
<event>
 7    1  0.1541902E-008  0.4614232E+02  0.7816164E-02  0.1320468E+00
        -11   -1    0    0    0    0  0.00000000000E+00  0.00000000000E+00  0.45593999997E+02  0.45594000000E+02  0.51100000000E-03 0. -1.
         11   -1    0    0    0    0 -0.00000000000E+00 -0.00000000000E+00 -0.45593999997E+02  0.45594000000E+02  0.51100000000E-03 0.  1.
    9900012    2    1    2    0    0 -0.41740660930E+02 -0.14589821003E+02 -0.86004581483E+01  0.46142317275E+02  0.99999955661E+01 0.  0.
         12    1    1    2    0    0  0.41740660930E+02  0.14589821003E+02  0.86004581483E+01  0.45045682725E+02  0.00000000000E+00 0. -1.
         11    1    3    3    0    0 -0.49100859673E+01 -0.24048409853E+01  0.20694427322E+01  0.58459214718E+01  0.51100000000E-03 0. -1.
        -11    1    3    3    0    0 -0.33689307027E+02 -0.11473868854E+02 -0.92209520388E+01  0.36764725365E+02  0.51100000000E-03 0.  1.
        -12    1    3    3    0    0 -0.31412679367E+01 -0.71111116343E+00 -0.14489488417E+01  0.35316704380E+01  0.00000000000E+00 0.  1.
</event>
<event>
 7    1  0.1541902E-008  0.4614232E+02  0.7816164E-02  0.1320468E+00
        -11   -1    0    0    0    0  0.00000000000E+00  0.00000000000E+00  0.45593999997E+02  0.45594000000E+02  0.51100000000E-03 0.  1.
         11   -1    0    0    0    0 -0.00000000000E+00 -0.00000000000E+00 -0.45593999997E+02  0.45594000000E+02  0.51100000000E-03 0. -1.
    9900012    2    1    2    0    0 -0.37771429076E+02 -0.43570963141E+01  0.24154676217E+02  0.46142317345E+02  0.99999962051E+01 0.  0.
         12    1    1    2    0    0  0.37771429076E+02  0.43570963141E+01 -0.24154676217E+02  0.45045682655E+02  0.00000000000E+00 0. -1.
         11    1    3    3    0    0 -0.32970155078E+02 -0.45897180966E+01  0.21543541309E+02  0.39651239709E+02  0.51100000000E-03 0.  1.
        -11    1    3    3    0    0 -0.98981183444E+00 -0.12351596277E+01 -0.10463050710E+00  0.15862832590E+01  0.51100000000E-03 0. -1.
        -12    1    3    3    0    0 -0.38114621635E+01  0.14677814102E+01  0.27157654149E+01  0.49047943770E+01  0.00000000000E+00 0.  1.
</event>
<event>
 7    1  0.1541902E-008  0.4614232E+02  0.7816164E-02  0.1320468E+00
        -11   -1    0    0    0    0  0.00000000000E+00  0.00000000000E+00  0.45593999997E+02  0.45594000000E+02  0.51100000000E-03 0. -1.
         11   -1    0    0    0    0 -0.00000000000E+00 -0.00000000000E+00 -0.45593999997E+02  0.45594000000E+02  0.51100000000E-03 0.  1.
    9900012    2    1    2    0    0  0.43636543737E+02 -0.27913076125E+01 -0.10824671537E+02  0.46142324721E+02  0.10000063465E+02 0.  0.
         12    1    1    2    0    0 -0.43636543737E+02  0.27913076125E+01  0.10824671537E+02  0.45045675279E+02  0.00000000000E+00 0. -1.
         11    1    3    3    0    0  0.54503266837E+01  0.19113950969E+01 -0.11698063728E+01  0.58930416074E+01  0.51100000000E-03 0. -1.
        -11    1    3    3    0    0  0.22484668604E+01 -0.20029396873E+01 -0.11256895782E+01  0.32147391653E+01  0.51100000000E-03 0.  1.
        -12    1    3    3    0    0  0.35937750192E+02 -0.26997630221E+01 -0.85291755862E+01  0.37034543948E+02  0.00000000000E+00 0.  1.
</event>
<event>
 7    1  0.1541902E-008  0.4614232E+02  0.7816164E-02  0.1320468E+00
        -11   -1    0    0    0    0  0.00000000000E+00  0.00000000000E+00  0.45593999997E+02  0.45594000000E+02  0.51100000000E-03 0.  1.
         11   -1    0    0    0    0 -0.00000000000E+00 -0.00000000000E+00 -0.45593999997E+02  0.45594000000E+02  0.51100000000E-03 0. -1.
    9900012    2    1    2    0    0 -0.16494464271E+02  0.22057077720E+02  0.35644517197E+02  0.46142316129E+02  0.99999851209E+01 0.  0.
         12    1    1    2    0    0  0.16494464271E+02 -0.22057077720E+02 -0.35644517197E+02  0.45045683871E+02  0.00000000000E+00 0. -1.
         11    1    3    3    0    0 -0.22142226148E+01  0.22229679305E+01  0.10546364049E+02  0.11003188770E+02  0.51100000000E-03 0. -1.
        -11    1    3    3    0    0 -0.11413020977E+02  0.13906866703E+02  0.17757779949E+02  0.25278384804E+02  0.51100000000E-03 0.  1.
         12    1    3    3    0    0 -0.28672206799E+01  0.59272430859E+01  0.73403731998E+01  0.98607425551E+01  0.00000000000E+00 0. -1.
</event>
<event>
 7    1  0.1541902E-008  0.4614232E+02  0.7816164E-02  0.1320468E+00
        -11   -1    0    0    0    0  0.00000000000E+00  0.00000000000E+00  0.45593999997E+02  0.45594000000E+02  0.51100000000E-03 0. -1.
         11   -1    0    0    0    0 -0.00000000000E+00 -0.00000000000E+00 -0.45593999997E+02  0.45594000000E+02  0.51100000000E-03 0.  1.
    9900012    2    1    2    0    0  0.34431109111E+02 -0.25056798831E+02 -0.14689071345E+02  0.46142320304E+02  0.10000023192E+02 0.  0.
         12    1    1    2    0    0 -0.34431109111E+02  0.25056798831E+02  0.14689071345E+02  0.45045679696E+02  0.00000000000E+00 0. -1.
         11    1    3    3    0    0  0.63429946294E+01 -0.61323974588E+01 -0.29541349110E+01  0.93041277288E+01  0.51100000000E-03 0. -1.
        -11    1    3    3    0    0  0.15303885780E+02 -0.70125411327E+01 -0.23307647918E+01  0.16994620263E+02  0.51100000000E-03 0.  1.
        -12    1    3    3    0    0  0.12784228702E+02 -0.11911860239E+02 -0.94041716421E+01  0.19843572313E+02  0.00000000000E+00 0.  1.
</event>
<event>
 7    1  0.1541902E-008  0.4614232E+02  0.7816164E-02  0.1320468E+00
        -11   -1    0    0    0    0  0.00000000000E+00  0.00000000000E+00  0.45593999997E+02  0.45594000000E+02  0.51100000000E-03 0.  1.
         11   -1    0    0    0    0 -0.00000000000E+00 -0.00000000000E+00 -0.45593999997E+02  0.45594000000E+02  0.51100000000E-03 0. -1.
    9900012    2    1    2    0    0  0.22554102572E+01  0.20667573545E+00  0.44988708237E+02  0.46142318086E+02  0.10000002964E+02 0.  0.
         12    1    1    2    0    0 -0.22554102572E+01 -0.20667573545E+00 -0.44988708237E+02  0.45045681914E+02  0.00000000000E+00 0. -1.
         11    1    3    3    0    0  0.56563607478E+00  0.48347562277E+00  0.22581623416E+00  0.77761563747E+00  0.51100000000E-03 0. -1.
        -11    1    3    3    0    0  0.14070932979E+01  0.29314017040E-01  0.44903042453E+02  0.44925093129E+02  0.51100000000E-03 0.  1.
        -12    1    3    3    0    0  0.28268088454E+00 -0.30611390436E+00 -0.14015045067E+00  0.43960931945E+00  0.00000000000E+00 0.  1.
</event>
<event>
 7    1  0.1541902E-008  0.4614230E+02  0.7816164E-02  0.1320468E+00
        -11   -1    0    0    0    0  0.00000000000E+00  0.00000000000E+00  0.45593999997E+02  0.45594000000E+02  0.51100000000E-03 0. -1.
         11   -1    0    0    0    0 -0.00000000000E+00 -0.00000000000E+00 -0.45593999997E+02  0.45594000000E+02  0.51100000000E-03 0.  1.
    9900012    2    1    2    0    0 -0.32755229777E+02 -0.25499527247E+02 -0.17492391905E+02  0.46142303845E+02  0.99998730996E+01 0.  0.
         12    1    1    2    0    0  0.32755229777E+02  0.25499527247E+02  0.17492391905E+02  0.45045696155E+02  0.00000000000E+00 0. -1.
         11    1    3    3    0    0 -0.33445468773E+01 -0.29345521646E+00 -0.27205970006E+01  0.43213143926E+01  0.51100000000E-03 0. -1.
        -11    1    3    3    0    0 -0.59002419495E+01 -0.27652873978E+01 -0.36546375187E+01  0.74710136601E+01  0.51100000000E-03 0.  1.
         12    1    3    3    0    0 -0.23510440950E+02 -0.22440784632E+02 -0.11117157386E+02  0.34349975792E+02  0.00000000000E+00 0. -1.
</event>
<event>
 7    1  0.1541902E-008  0.4614232E+02  0.7816164E-02  0.1320468E+00
        -11   -1    0    0    0    0  0.00000000000E+00  0.00000000000E+00  0.45593999997E+02  0.45594000000E+02  0.51100000000E-03 0. -1.
         11   -1    0    0    0    0 -0.00000000000E+00 -0.00000000000E+00 -0.45593999997E+02  0.45594000000E+02  0.51100000000E-03 0.  1.
    9900012    2    1    2    0    0 -0.44091341650E+02  0.91142042491E+01 -0.14136304448E+01  0.46142317869E+02  0.10000000985E+02 0.  0.
         12    1    1    2    0    0  0.44091341650E+02 -0.91142042491E+01  0.14136304448E+01  0.45045682131E+02  0.00000000000E+00 0. -1.
         11    1    3    3    0    0  0.15177143242E+00 -0.12757867555E+00  0.17985591409E+00  0.26769254212E+00  0.51100000000E-03 0. -1.
        -11    1    3    3    0    0 -0.12826789481E+02 -0.76998429101E+00  0.21996888703E+00  0.12851762166E+02  0.51100000000E-03 0.  1.
        -12    1    3    3    0    0 -0.31416323601E+02  0.10011767216E+02 -0.18134552459E+01  0.33022863161E+02  0.00000000000E+00 0.  1.
</event>
<event>
 7    1  0.1541902E-008  0.4614232E+02  0.7816164E-02  0.1320468E+00
        -11   -1    0    0    0    0  0.00000000000E+00  0.00000000000E+00  0.45593999997E+02  0.45594000000E+02  0.51100000000E-03 0.  1.
         11   -1    0    0    0    0 -0.00000000000E+00 -0.00000000000E+00 -0.45593999997E+02  0.45594000000E+02  0.51100000000E-03 0. -1.
    9900012    2    1    2    0    0 -0.32978090823E+02 -0.14622881134E+02  0.26976476748E+02  0.46142318467E+02  0.10000006441E+02 0.  0.
         12    1    1    2    0    0  0.32978090823E+02  0.14622881134E+02 -0.26976476748E+02  0.45045681533E+02  0.00000000000E+00 0. -1.
         11    1    3    3    0    0 -0.16148355367E+02 -0.11677308586E+02  0.16247184542E+02  0.25711863461E+02  0.51100000000E-03 0. -1.
        -11    1    3    3    0    0 -0.36938704194E+01 -0.67452293417E+00  0.88226804874E+00  0.38572084510E+01  0.51100000000E-03 0.  1.
        -12    1    3    3    0    0 -0.13135865037E+02 -0.22710496145E+01  0.98470241580E+01  0.16573246555E+02  0.00000000000E+00 0.  1.
</event>
<event>
 7    1  0.1541902E-008  0.4614232E+02  0.7816164E-02  0.1320468E+00
        -11   -1    0    0    0    0  0.00000000000E+00  0.00000000000E+00  0.45593999997E+02  0.45594000000E+02  0.51100000000E-03 0.  1.
         11   -1    0    0    0    0 -0.00000000000E+00 -0.00000000000E+00 -0.45593999997E+02  0.45594000000E+02  0.51100000000E-03 0. -1.
    9900012    2    1    2    0    0 -0.16262176518E+01 -0.37760310360E+02  0.24507713142E+02  0.46142316236E+02  0.99999860892E+01 0.  0.
         12    1    1    2    0    0  0.16262176518E+01  0.37760310360E+02 -0.24507713142E+02  0.45045683764E+02  0.00000000000E+00 0. -1.
         11    1    3    3    0    0 -0.19552835192E+01 -0.11009075724E+02  0.82916709896E+01  0.13920297770E+02  0.51100000000E-03 0. -1.
        -11    1    3    3    0    0  0.30778614192E+01 -0.77910241674E+01  0.72094756423E+01  0.11052141322E+02  0.51100000000E-03 0.  1.
        -12    1    3    3    0    0 -0.27487955518E+01 -0.18960210469E+02  0.90065665104E+01  0.21169877144E+02  0.00000000000E+00 0.  1.
</event>
<event>
 7    1  0.1541902E-008  0.4614232E+02  0.7816164E-02  0.1320468E+00
        -11   -1    0    0    0    0  0.00000000000E+00  0.00000000000E+00  0.45593999997E+02  0.45594000000E+02  0.51100000000E-03 0.  1.
         11   -1    0    0    0    0 -0.00000000000E+00 -0.00000000000E+00 -0.45593999997E+02  0.45594000000E+02  0.51100000000E-03 0. -1.
    9900012    2    1    2    0    0 -0.19650485567E+02  0.34565710915E+02  0.21170344729E+02  0.46142318187E+02  0.10000003884E+02 0.  0.
         12    1    1    2    0    0  0.19650485567E+02 -0.34565710915E+02 -0.21170344729E+02  0.45045681813E+02  0.00000000000E+00 0. -1.
         11    1    3    3    0    0 -0.17126241059E+02  0.27714362113E+02  0.16645858401E+02  0.36585223825E+02  0.51100000000E-03 0. -1.
        -11    1    3    3    0    0 -0.18362795903E+01  0.71565991893E+01  0.32384238969E+01  0.80669835929E+01  0.51100000000E-03 0.  1.
         12    1    3    3    0    0 -0.68796491759E+00 -0.30525038817E+00  0.12860624313E+01  0.14901107692E+01  0.00000000000E+00 0. -1.
</event>
