<event>
 7    1  0.4236733E-010  0.4778727E+02  0.7816164E-02  0.1312668E+00
        -11   -1    0    0    0    0  0.00000000000E+00  0.00000000000E+00  0.45593999997E+02  0.45594000000E+02  0.51100000000E-03 0. -1.
         11   -1    0    0    0    0 -0.00000000000E+00 -0.00000000000E+00 -0.45593999997E+02  0.45594000000E+02  0.51100000000E-03 0.  1.
    9900012    2    1    2    0    0 -0.41256470060E+02  0.52058703486E+01  0.12426825340E+02  0.47787269638E+02  0.19999993587E+02 0.  0.
        -12    1    1    2    0    0  0.41256470060E+02 -0.52058703486E+01 -0.12426825340E+02  0.43400730362E+02  0.00000000000E+00 0.  1.
         11    1    3    3    0    0 -0.29038251002E+02 -0.15073824523E+00  0.41689174544E+01  0.29336370196E+02  0.51100000000E-03 0. -1.
        -11    1    3    3    0    0 -0.79849964808E+01 -0.13774752570E+01  0.20425567988E+01  0.83564134304E+01  0.51100000000E-03 0.  1.
        -12    1    3    3    0    0 -0.42332225778E+01  0.67340838508E+01  0.62153510871E+01  0.10094486012E+02  0.00000000000E+00 0.  1.
</event>
<event>
 7    1  0.4236733E-010  0.4778727E+02  0.7816164E-02  0.1312668E+00
        -11   -1    0    0    0    0  0.00000000000E+00  0.00000000000E+00  0.45593999997E+02  0.45594000000E+02  0.51100000000E-03 0.  1.
         11   -1    0    0    0    0 -0.00000000000E+00 -0.00000000000E+00 -0.45593999997E+02  0.45594000000E+02  0.51100000000E-03 0. -1.
    9900012    2    1    2    0    0 -0.15325482035E+02  0.15645824785E+02 -0.37469468660E+02  0.47787270576E+02  0.19999997866E+02 0.  0.
        -12    1    1    2    0    0  0.15325482035E+02 -0.15645824785E+02  0.37469468660E+02  0.43400729424E+02  0.00000000000E+00 0.  1.
         11    1    3    3    0    0  0.62997197345E+00  0.16173096736E+00 -0.47515047087E+01  0.47958126371E+01  0.51100000000E-03 0.  1.
        -11    1    3    3    0    0 -0.14291296387E+02  0.73643198208E+01 -0.30392565115E+02  0.34382879073E+02  0.51100000000E-03 0. -1.
         12    1    3    3    0    0 -0.16641576216E+01  0.81197739965E+01 -0.23253988373E+01  0.86085788662E+01  0.00000000000E+00 0. -1.
</event>
<event>
 7    1  0.4236733E-010  0.4778728E+02  0.7816164E-02  0.1312668E+00
        -11   -1    0    0    0    0  0.00000000000E+00  0.00000000000E+00  0.45593999997E+02  0.45594000000E+02  0.51100000000E-03 0.  1.
         11   -1    0    0    0    0 -0.00000000000E+00 -0.00000000000E+00 -0.45593999997E+02  0.45594000000E+02  0.51100000000E-03 0. -1.
    9900012    2    1    2    0    0 -0.11977233315E+02  0.40893805307E+02 -0.82380293576E+01  0.47787279291E+02  0.20000037600E+02 0.  0.
        -12    1    1    2    0    0  0.11977233315E+02 -0.40893805307E+02  0.82380293576E+01  0.43400720709E+02  0.00000000000E+00 0.  1.
         11    1    3    3    0    0 -0.23904925076E+01  0.75418283480E+01 -0.16923535787E+01  0.80905926950E+01  0.51100000000E-03 0. -1.
        -11    1    3    3    0    0  0.46518934114E+01  0.34526247057E+01 -0.25861707751E+01  0.63442106844E+01  0.51100000000E-03 0.  1.
        -12    1    3    3    0    0 -0.14238634219E+02  0.29899352253E+02 -0.39595050038E+01  0.33352475912E+02  0.00000000000E+00 0.  1.
</event>
<event>
 7    1  0.4236733E-010  0.4778727E+02  0.7816164E-02  0.1312668E+00
        -11   -1    0    0    0    0  0.00000000000E+00  0.00000000000E+00  0.45593999997E+02  0.45594000000E+02  0.51100000000E-03 0.  1.
         11   -1    0    0    0    0 -0.00000000000E+00 -0.00000000000E+00 -0.45593999997E+02  0.45594000000E+02  0.51100000000E-03 0. -1.
    9900012    2    1    2    0    0  0.22357627772E+02 -0.15247973881E+02 -0.33930208138E+02  0.47787271304E+02  0.20000001184E+02 0.  0.
        -12    1    1    2    0    0 -0.22357627772E+02  0.15247973881E+02  0.33930208138E+02  0.43400728696E+02  0.00000000000E+00 0.  1.
         11    1    3    3    0    0  0.77094180267E+01 -0.21769301746E+00 -0.12848213179E+02  0.14985296083E+02  0.51100000000E-03 0. -1.
        -11    1    3    3    0    0  0.12856304196E+02 -0.14756459354E+02 -0.10784175878E+02  0.22345829586E+02  0.51100000000E-03 0.  1.
        -12    1    3    3    0    0  0.17919055491E+01 -0.27382150919E+00 -0.10297819081E+02  0.10456145635E+02  0.00000000000E+00 0.  1.
</event>
<event>
 7    1  0.4236733E-010  0.4778727E+02  0.7816164E-02  0.1312668E+00
        -11   -1    0    0    0    0  0.00000000000E+00  0.00000000000E+00  0.45593999997E+02  0.45594000000E+02  0.51100000000E-03 0. -1.
         11   -1    0    0    0    0 -0.00000000000E+00 -0.00000000000E+00 -0.45593999997E+02  0.45594000000E+02  0.51100000000E-03 0.  1.
    9900012    2    1    2    0    0  0.41232003078E+02 -0.11288771560E+02 -0.74906137496E+01  0.47787265726E+02  0.19999975752E+02 0.  0.
        -12    1    1    2    0    0 -0.41232003078E+02  0.11288771560E+02  0.74906137496E+01  0.43400734274E+02  0.00000000000E+00 0.  1.
         11    1    3    3    0    0  0.21651035887E+02  0.31605772471E+01 -0.13691352708E+01  0.21923301192E+02  0.51100000000E-03 0. -1.
        -11    1    3    3    0    0  0.13589286988E+00 -0.20189079931E+01 -0.82563352081E+00  0.21854352721E+01  0.51100000000E-03 0.  1.
         12    1    3    3    0    0  0.19445074321E+02 -0.12430440814E+02 -0.52958449580E+01  0.23678529262E+02  0.00000000000E+00 0. -1.
</event>
<event>
 7    1  0.4236733E-010  0.4778728E+02  0.7816164E-02  0.1312668E+00
        -11   -1    0    0    0    0  0.00000000000E+00  0.00000000000E+00  0.45593999997E+02  0.45594000000E+02  0.51100000000E-03 0.  1.
         11   -1    0    0    0    0 -0.00000000000E+00 -0.00000000000E+00 -0.45593999997E+02  0.45594000000E+02  0.51100000000E-03 0. -1.
    9900012    2    1    2    0    0 -0.11687942898E+02  0.12450433040E+02 -0.39899886243E+02  0.47787283251E+02  0.20000055655E+02 0.  0.
        -12    1    1    2    0    0  0.11687942898E+02 -0.12450433040E+02  0.39899886243E+02  0.43400716749E+02  0.00000000000E+00 0.  1.
         11    1    3    3    0    0 -0.89471661196E+01  0.46270714765E+01 -0.80340268310E+01  0.12884376562E+02  0.51100000000E-03 0. -1.
        -11    1    3    3    0    0 -0.15020384014E+01  0.28146818218E+01 -0.64037641456E+00  0.32540183360E+01  0.51100000000E-03 0.  1.
        -12    1    3    3    0    0 -0.12387383773E+01  0.50086797419E+01 -0.31225482998E+02  0.31648888353E+02  0.00000000000E+00 0.  1.
</event>
<event>
 7    1  0.4236733E-010  0.4778727E+02  0.7816164E-02  0.1312668E+00
        -11   -1    0    0    0    0  0.00000000000E+00  0.00000000000E+00  0.45593999997E+02  0.45594000000E+02  0.51100000000E-03 0. -1.
         11   -1    0    0    0    0 -0.00000000000E+00 -0.00000000000E+00 -0.45593999997E+02  0.45594000000E+02  0.51100000000E-03 0.  1.
    9900012    2    1    2    0    0  0.41535221210E+02 -0.11590853136E+02 -0.49092864676E+01  0.47787267622E+02  0.19999984394E+02 0.  0.
        -12    1    1    2    0    0 -0.41535221210E+02  0.11590853136E+02  0.49092864676E+01  0.43400732378E+02  0.00000000000E+00 0.  1.
         11    1    3    3    0    0 -0.34619895696E+00  0.16180152609E+00 -0.35809747379E+00  0.52370555993E+00  0.51100000000E-03 0. -1.
        -11    1    3    3    0    0  0.10522761740E+02 -0.11446256216E+02  0.17578932122E+00  0.15549154259E+02  0.51100000000E-03 0.  1.
         12    1    3    3    0    0  0.31358658426E+02 -0.30639844619E+00 -0.47269783150E+01  0.31714407803E+02  0.00000000000E+00 0. -1.
</event>
<event>
 7    1  0.4236733E-010  0.4778727E+02  0.7816164E-02  0.1312668E+00
        -11   -1    0    0    0    0  0.00000000000E+00  0.00000000000E+00  0.45593999997E+02  0.45594000000E+02  0.51100000000E-03 0.  1.
         11   -1    0    0    0    0 -0.00000000000E+00 -0.00000000000E+00 -0.45593999997E+02  0.45594000000E+02  0.51100000000E-03 0. -1.
    9900012    2    1    2    0    0 -0.35997635521E+02 -0.18766408759E+02 -0.15349785510E+02  0.47787265260E+02  0.19999973625E+02 0.  0.
        -12    1    1    2    0    0  0.35997635521E+02  0.18766408759E+02  0.15349785510E+02  0.43400734740E+02  0.00000000000E+00 0.  1.
         11    1    3    3    0    0  0.49370753826E+00 -0.23471758963E+01 -0.31370062535E+01  0.39488973546E+01  0.51100000000E-03 0. -1.
        -11    1    3    3    0    0 -0.47526055832E+01 -0.52982592369E+00  0.25233272302E+01  0.54069544025E+01  0.51100000000E-03 0.  1.
         12    1    3    3    0    0 -0.31738737476E+02 -0.15889406939E+02 -0.14736106486E+02  0.38431413503E+02  0.00000000000E+00 0. -1.
</event>
<event>
 7    1  0.4236733E-010  0.4778727E+02  0.7816164E-02  0.1312668E+00
        -11   -1    0    0    0    0  0.00000000000E+00  0.00000000000E+00  0.45593999997E+02  0.45594000000E+02  0.51100000000E-03 0.  1.
         11   -1    0    0    0    0 -0.00000000000E+00 -0.00000000000E+00 -0.45593999997E+02  0.45594000000E+02  0.51100000000E-03 0. -1.
    9900012    2    1    2    0    0 -0.91169318264E+01  0.58034994472E+00 -0.42428389201E+02  0.47787268875E+02  0.19999990111E+02 0.  0.
        -12    1    1    2    0    0  0.91169318264E+01 -0.58034994472E+00  0.42428389201E+02  0.43400731125E+02  0.00000000000E+00 0.  1.
         11    1    3    3    0    0 -0.26603546546E+01 -0.18144541093E+01 -0.26426614360E+02  0.26622090027E+02  0.51100000000E-03 0. -1.
        -11    1    3    3    0    0 -0.23982289977E+01 -0.37644846440E+01 -0.11915754130E+01  0.46198159256E+01  0.51100000000E-03 0.  1.
         12    1    3    3    0    0 -0.40583481741E+01  0.61592886980E+01 -0.14810199428E+02  0.16545362923E+02  0.00000000000E+00 0. -1.
</event>
<event>
 7    1  0.4236733E-010  0.4778727E+02  0.7816164E-02  0.1312668E+00
        -11   -1    0    0    0    0  0.00000000000E+00  0.00000000000E+00  0.45593999997E+02  0.45594000000E+02  0.51100000000E-03 0. -1.
         11   -1    0    0    0    0 -0.00000000000E+00 -0.00000000000E+00 -0.45593999997E+02  0.45594000000E+02  0.51100000000E-03 0.  1.
    9900012    2    1    2    0    0 -0.42782131375E+02 -0.71133930167E+01 -0.16468396405E+01  0.47787271826E+02  0.20000003564E+02 0.  0.
        -12    1    1    2    0    0  0.42782131375E+02  0.71133930167E+01  0.16468396405E+01  0.43400728174E+02  0.00000000000E+00 0.  1.
         11    1    3    3    0    0 -0.36130592444E+01  0.26631087679E+00  0.72667423933E-01  0.36235892983E+01  0.51100000000E-03 0. -1.
        -11    1    3    3    0    0 -0.13089067392E+02  0.26091293215E+01  0.67820368711E+01  0.14970880581E+02  0.51100000000E-03 0.  1.
        -12    1    3    3    0    0 -0.26080004739E+02 -0.99888332150E+01 -0.85015439355E+01  0.29192801946E+02  0.00000000000E+00 0.  1.
</event>
<event>
 7    1  0.4236733E-010  0.4778727E+02  0.7816164E-02  0.1312668E+00
        -11   -1    0    0    0    0  0.00000000000E+00  0.00000000000E+00  0.45593999997E+02  0.45594000000E+02  0.51100000000E-03 0.  1.
         11   -1    0    0    0    0 -0.00000000000E+00 -0.00000000000E+00 -0.45593999997E+02  0.45594000000E+02  0.51100000000E-03 0. -1.
    9900012    2    1    2    0    0  0.16074183187E+02  0.30950588401E+01 -0.40195332203E+02  0.47787268609E+02  0.19999988894E+02 0.  0.
        -12    1    1    2    0    0 -0.16074183187E+02 -0.30950588401E+01  0.40195332203E+02  0.43400731391E+02  0.00000000000E+00 0.  1.
         11    1    3    3    0    0  0.45750642407E-01  0.18094518589E+01 -0.13148749042E+01  0.22372092941E+01  0.51100000000E-03 0.  1.
        -11    1    3    3    0    0  0.50447810228E+01  0.66505440577E+01 -0.54863037362E+01  0.99889479315E+01  0.51100000000E-03 0. -1.
         12    1    3    3    0    0  0.10983651522E+02 -0.53649370765E+01 -0.33394153563E+02  0.35561111383E+02  0.00000000000E+00 0. -1.
</event>
<event>
 7    1  0.4236733E-010  0.4778727E+02  0.7816164E-02  0.1312668E+00
        -11   -1    0    0    0    0  0.00000000000E+00  0.00000000000E+00  0.45593999997E+02  0.45594000000E+02  0.51100000000E-03 0.  1.
         11   -1    0    0    0    0 -0.00000000000E+00 -0.00000000000E+00 -0.45593999997E+02  0.45594000000E+02  0.51100000000E-03 0. -1.
    9900012    2    1    2    0    0 -0.90071334999E-01 -0.24714032204E+02 -0.35676770159E+02  0.47787269250E+02  0.19999991820E+02 0.  0.
        -12    1    1    2    0    0  0.90071334999E-01  0.24714032204E+02  0.35676770159E+02  0.43400730750E+02  0.00000000000E+00 0.  1.
         11    1    3    3    0    0 -0.24614188198E+01 -0.86503898621E+01 -0.22265357546E+02  0.24013204165E+02  0.51100000000E-03 0. -1.
        -11    1    3    3    0    0 -0.39443214097E+01 -0.42040428110E+01 -0.18673964814E+01  0.60596053683E+01  0.51100000000E-03 0.  1.
         12    1    3    3    0    0  0.63156688945E+01 -0.11859599531E+02 -0.11544016132E+02  0.17714459717E+02  0.00000000000E+00 0. -1.
</event>
<event>
 7    1  0.4236733E-010  0.4778727E+02  0.7816164E-02  0.1312668E+00
        -11   -1    0    0    0    0  0.00000000000E+00  0.00000000000E+00  0.45593999997E+02  0.45594000000E+02  0.51100000000E-03 0.  1.
         11   -1    0    0    0    0 -0.00000000000E+00 -0.00000000000E+00 -0.45593999997E+02  0.45594000000E+02  0.51100000000E-03 0. -1.
    9900012    2    1    2    0    0  0.41938211871E+02  0.11156880825E+02 -0.57775493296E+00  0.47787269529E+02  0.19999993088E+02 0.  0.
        -12    1    1    2    0    0 -0.41938211871E+02 -0.11156880825E+02  0.57775493296E+00  0.43400730471E+02  0.00000000000E+00 0.  1.
         11    1    3    3    0    0  0.28006074005E+02  0.10597930403E+02 -0.76202651080E+01  0.30898620529E+02  0.51100000000E-03 0.  1.
        -11    1    3    3    0    0  0.56426960121E+01 -0.29058669106E+01  0.25050215840E+01  0.68234312618E+01  0.51100000000E-03 0. -1.
        -12    1    3    3    0    0  0.82894418541E+01  0.34648173320E+01  0.45374885911E+01  0.10065217738E+02  0.00000000000E+00 0.  1.
</event>
<event>
 7    1  0.4236733E-010  0.4778728E+02  0.7816164E-02  0.1312668E+00
        -11   -1    0    0    0    0  0.00000000000E+00  0.00000000000E+00  0.45593999997E+02  0.45594000000E+02  0.51100000000E-03 0.  1.
         11   -1    0    0    0    0 -0.00000000000E+00 -0.00000000000E+00 -0.45593999997E+02  0.45594000000E+02  0.51100000000E-03 0. -1.
    9900012    2    1    2    0    0 -0.35642635423E+02  0.24674014019E+02  0.21019504564E+01  0.47787278538E+02  0.20000034167E+02 0.  0.
        -12    1    1    2    0    0  0.35642635423E+02 -0.24674014019E+02 -0.21019504564E+01  0.43400721462E+02  0.00000000000E+00 0.  1.
         11    1    3    3    0    0 -0.32166932019E+01  0.33319647314E+01  0.12774934274E+00  0.46330793520E+01  0.51100000000E-03 0. -1.
        -11    1    3    3    0    0 -0.14885075221E+02  0.19793161148E+02  0.50587129594E+01  0.25276971132E+02  0.51100000000E-03 0.  1.
         12    1    3    3    0    0 -0.17540867000E+02  0.15488881400E+01 -0.30845118458E+01  0.17877228054E+02  0.00000000000E+00 0. -1.
</event>
<event>
 7    1  0.4236733E-010  0.4778729E+02  0.7816164E-02  0.1312668E+00
        -11   -1    0    0    0    0  0.00000000000E+00  0.00000000000E+00  0.45593999997E+02  0.45594000000E+02  0.51100000000E-03 0.  1.
         11   -1    0    0    0    0 -0.00000000000E+00 -0.00000000000E+00 -0.45593999997E+02  0.45594000000E+02  0.51100000000E-03 0. -1.
    9900012    2    1    2    0    0 -0.38619911789E+02  0.11005800930E+02 -0.16461959015E+02  0.47787293378E+02  0.20000101827E+02 0.  0.
        -12    1    1    2    0    0  0.38619911789E+02 -0.11005800930E+02  0.16461959015E+02  0.43400706622E+02  0.00000000000E+00 0.  1.
         11    1    3    3    0    0 -0.66966082657E+01 -0.22703549886E+01 -0.22292097532E+01  0.74140711099E+01  0.51100000000E-03 0. -1.
        -11    1    3    3    0    0 -0.16041866448E+02 -0.14587707285E+01 -0.56337658014E+01  0.17064841298E+02  0.51100000000E-03 0.  1.
        -12    1    3    3    0    0 -0.15881437075E+02  0.14734926647E+02 -0.85989834599E+01  0.23308380970E+02  0.00000000000E+00 0.  1.
</event>
<event>
 7    1  0.4236733E-010  0.4778728E+02  0.7816164E-02  0.1312668E+00
        -11   -1    0    0    0    0  0.00000000000E+00  0.00000000000E+00  0.45593999997E+02  0.45594000000E+02  0.51100000000E-03 0. -1.
         11   -1    0    0    0    0 -0.00000000000E+00 -0.00000000000E+00 -0.45593999997E+02  0.45594000000E+02  0.51100000000E-03 0.  1.
    9900012    2    1    2    0    0  0.62719259524E+01 -0.35718469852E+02  0.23842746656E+02  0.47787277519E+02  0.20000029522E+02 0.  0.
        -12    1    1    2    0    0 -0.62719259524E+01  0.35718469852E+02 -0.23842746656E+02  0.43400722481E+02  0.00000000000E+00 0.  1.
         11    1    3    3    0    0  0.44210576656E+01 -0.28406543320E+02  0.18191555792E+02  0.34020731278E+02  0.51100000000E-03 0. -1.
        -11    1    3    3    0    0 -0.10884719498E+01 -0.45015609888E+01  0.78717652766E+01  0.91330997669E+01  0.51100000000E-03 0.  1.
        -12    1    3    3    0    0  0.29393402366E+01 -0.28103655431E+01 -0.22205744123E+01  0.46334464745E+01  0.00000000000E+00 0.  1.
</event>
<event>
 7    1  0.4236733E-010  0.4778727E+02  0.7816164E-02  0.1312668E+00
        -11   -1    0    0    0    0  0.00000000000E+00  0.00000000000E+00  0.45593999997E+02  0.45594000000E+02  0.51100000000E-03 0.  1.
         11   -1    0    0    0    0 -0.00000000000E+00 -0.00000000000E+00 -0.45593999997E+02  0.45594000000E+02  0.51100000000E-03 0. -1.
    9900012    2    1    2    0    0 -0.40132949968E+02  0.11767958237E+02 -0.11596751960E+02  0.47787272239E+02  0.20000005446E+02 0.  0.
        -12    1    1    2    0    0  0.40132949968E+02 -0.11767958237E+02  0.11596751960E+02  0.43400727761E+02  0.00000000000E+00 0.  1.
         11    1    3    3    0    0 -0.13622945580E+02  0.73496975094E+01 -0.64148384274E+01  0.16755681187E+02  0.51100000000E-03 0. -1.
        -11    1    3    3    0    0 -0.16028829602E+01 -0.51661264135E-01 -0.54953875805E+01  0.57246124403E+01  0.51100000000E-03 0.  1.
        -12    1    3    3    0    0 -0.24907121428E+02  0.44699219915E+01  0.31347404823E+00  0.25306978611E+02  0.00000000000E+00 0.  1.
</event>
<event>
 7    1  0.4236733E-010  0.4778727E+02  0.7816164E-02  0.1312668E+00
        -11   -1    0    0    0    0  0.00000000000E+00  0.00000000000E+00  0.45593999997E+02  0.45594000000E+02  0.51100000000E-03 0.  1.
         11   -1    0    0    0    0 -0.00000000000E+00 -0.00000000000E+00 -0.45593999997E+02  0.45594000000E+02  0.51100000000E-03 0. -1.
    9900012    2    1    2    0    0 -0.69708808669E-02 -0.88611278571E+01 -0.42486507448E+02  0.47787274769E+02  0.20000016981E+02 0.  0.
        -12    1    1    2    0    0  0.69708808669E-02  0.88611278571E+01  0.42486507448E+02  0.43400725231E+02  0.00000000000E+00 0.  1.
         11    1    3    3    0    0  0.98441706516E+00  0.17200437411E+01 -0.13165734397E+01  0.23792842017E+01  0.51100000000E-03 0. -1.
        -11    1    3    3    0    0 -0.30039329561E+01 -0.19628936437E+01 -0.31131836231E+00  0.36018722972E+01  0.51100000000E-03 0.  1.
         12    1    3    3    0    0  0.20125450101E+01 -0.86182779544E+01 -0.40858615646E+02  0.41806118270E+02  0.00000000000E+00 0. -1.
</event>
<event>
 7    1  0.4236733E-010  0.4778729E+02  0.7816164E-02  0.1312668E+00
        -11   -1    0    0    0    0  0.00000000000E+00  0.00000000000E+00  0.45593999997E+02  0.45594000000E+02  0.51100000000E-03 0.  1.
         11   -1    0    0    0    0 -0.00000000000E+00 -0.00000000000E+00 -0.45593999997E+02  0.45594000000E+02  0.51100000000E-03 0. -1.
    9900012    2    1    2    0    0 -0.30506317752E+02 -0.26435903984E+02 -0.15941438374E+02  0.47787286876E+02  0.20000072180E+02 0.  0.
        -12    1    1    2    0    0  0.30506317752E+02  0.26435903984E+02  0.15941438374E+02  0.43400713124E+02  0.00000000000E+00 0.  1.
         11    1    3    3    0    0 -0.13688119435E+02 -0.11810458891E+02 -0.77865846833E+01  0.19684574015E+02  0.51100000000E-03 0. -1.
        -11    1    3    3    0    0 -0.96382218205E+01 -0.12859679999E+02  0.12733180731E+01  0.16121043040E+02  0.51100000000E-03 0.  1.
         12    1    3    3    0    0 -0.71799764973E+01 -0.17657650949E+01 -0.94281717639E+01  0.11981669820E+02  0.00000000000E+00 0. -1.
</event>
<event>
 7    1  0.4236733E-010  0.4778727E+02  0.7816164E-02  0.1312668E+00
        -11   -1    0    0    0    0  0.00000000000E+00  0.00000000000E+00  0.45593999997E+02  0.45594000000E+02  0.51100000000E-03 0.  1.
         11   -1    0    0    0    0 -0.00000000000E+00 -0.00000000000E+00 -0.45593999997E+02  0.45594000000E+02  0.51100000000E-03 0. -1.
    9900012    2    1    2    0    0  0.25738175493E+02 -0.31502327726E+02 -0.15125258380E+02  0.47787265318E+02  0.19999973892E+02 0.  0.
        -12    1    1    2    0    0 -0.25738175493E+02  0.31502327726E+02  0.15125258380E+02  0.43400734682E+02  0.00000000000E+00 0.  1.
         11    1    3    3    0    0  0.38260571361E+01 -0.33407011464E+01 -0.72071839807E+01  0.88171706659E+01  0.51100000000E-03 0. -1.
        -11    1    3    3    0    0  0.32850493880E+01 -0.52553063638E+00  0.23769718977E+01  0.40887317832E+01  0.51100000000E-03 0.  1.
         12    1    3    3    0    0  0.18627068969E+02 -0.27636095943E+02 -0.10295046297E+02  0.34881362869E+02  0.00000000000E+00 0. -1.
</event>
<event>
 7    1  0.4236733E-010  0.4778727E+02  0.7816164E-02  0.1312668E+00
        -11   -1    0    0    0    0  0.00000000000E+00  0.00000000000E+00  0.45593999997E+02  0.45594000000E+02  0.51100000000E-03 0. -1.
         11   -1    0    0    0    0 -0.00000000000E+00 -0.00000000000E+00 -0.45593999997E+02  0.45594000000E+02  0.51100000000E-03 0.  1.
    9900012    2    1    2    0    0  0.96351717744E+01  0.38726484016E+02  0.17060075267E+02  0.47787271119E+02  0.20000000338E+02 0.  0.
        -12    1    1    2    0    0 -0.96351717744E+01 -0.38726484016E+02 -0.17060075267E+02  0.43400728881E+02  0.00000000000E+00 0.  1.
         11    1    3    3    0    0 -0.13394374232E+01  0.28411392990E+02  0.14613421434E+02  0.31977389363E+02  0.51100000000E-03 0. -1.
        -11    1    3    3    0    0 -0.30566168256E+00  0.47786425974E+00  0.42070180526E+00  0.70623904239E+00  0.51100000000E-03 0.  1.
         12    1    3    3    0    0  0.11280270880E+02  0.98372267658E+01  0.20259520282E+01  0.15103642713E+02  0.00000000000E+00 0. -1.
</event>
<event>
 7    1  0.4236733E-010  0.4778727E+02  0.7816164E-02  0.1312668E+00
        -11   -1    0    0    0    0  0.00000000000E+00  0.00000000000E+00  0.45593999997E+02  0.45594000000E+02  0.51100000000E-03 0.  1.
         11   -1    0    0    0    0 -0.00000000000E+00 -0.00000000000E+00 -0.45593999997E+02  0.45594000000E+02  0.51100000000E-03 0. -1.
    9900012    2    1    2    0    0  0.17815782698E+02 -0.15938897923E+02 -0.36223922585E+02  0.47787272499E+02  0.20000006633E+02 0.  0.
        -12    1    1    2    0    0 -0.17815782698E+02  0.15938897923E+02  0.36223922585E+02  0.43400727501E+02  0.00000000000E+00 0.  1.
         11    1    3    3    0    0 -0.14401523763E+01 -0.32991210976E+01 -0.18034802145E+01  0.40262612967E+01  0.51100000000E-03 0. -1.
        -11    1    3    3    0    0  0.76176404830E+01  0.20979512355E+01 -0.71890958840E+01  0.10682366115E+02  0.51100000000E-03 0.  1.
         12    1    3    3    0    0  0.11638294591E+02 -0.14737728061E+02 -0.27231346487E+02  0.33078645088E+02  0.00000000000E+00 0. -1.
</event>
<event>
 7    1  0.4236733E-010  0.4778727E+02  0.7816164E-02  0.1312668E+00
        -11   -1    0    0    0    0  0.00000000000E+00  0.00000000000E+00  0.45593999997E+02  0.45594000000E+02  0.51100000000E-03 0.  1.
         11   -1    0    0    0    0 -0.00000000000E+00 -0.00000000000E+00 -0.45593999997E+02  0.45594000000E+02  0.51100000000E-03 0. -1.
    9900012    2    1    2    0    0 -0.18563337296E+02 -0.24729007197E+02 -0.30454917750E+02  0.47787270701E+02  0.19999998436E+02 0.  0.
        -12    1    1    2    0    0  0.18563337296E+02  0.24729007197E+02  0.30454917750E+02  0.43400729299E+02  0.00000000000E+00 0.  1.
         11    1    3    3    0    0 -0.15339795719E+02 -0.11976030405E+02 -0.14306091280E+02  0.24153651586E+02  0.51100000000E-03 0. -1.
        -11    1    3    3    0    0 -0.66956675704E+01 -0.47228857761E+01 -0.55785328698E+01  0.99124993573E+01  0.51100000000E-03 0.  1.
        -12    1    3    3    0    0  0.34721259933E+01 -0.80300910156E+01 -0.10570293600E+02  0.13721119758E+02  0.00000000000E+00 0.  1.
</event>
<event>
 7    1  0.4236733E-010  0.4778727E+02  0.7816164E-02  0.1312668E+00
        -11   -1    0    0    0    0  0.00000000000E+00  0.00000000000E+00  0.45593999997E+02  0.45594000000E+02  0.51100000000E-03 0.  1.
         11   -1    0    0    0    0 -0.00000000000E+00 -0.00000000000E+00 -0.45593999997E+02  0.45594000000E+02  0.51100000000E-03 0. -1.
    9900012    2    1    2    0    0 -0.26175268422E+02  0.63105907122E+00 -0.34613293756E+02  0.47787274002E+02  0.20000013484E+02 0.  0.
        -12    1    1    2    0    0  0.26175268422E+02 -0.63105907122E+00  0.34613293756E+02  0.43400725998E+02  0.00000000000E+00 0.  1.
         11    1    3    3    0    0 -0.22038118015E+02  0.21481237052E+01 -0.30264548194E+02  0.37499812783E+02  0.51100000000E-03 0. -1.
        -11    1    3    3    0    0 -0.81440671360E+00 -0.19749467841E+01 -0.61286569138E+01  0.64903088466E+01  0.51100000000E-03 0.  1.
         12    1    3    3    0    0 -0.33227436935E+01  0.45788215009E+00  0.17799113520E+01  0.37971523721E+01  0.00000000000E+00 0. -1.
</event>
<event>
 7    1  0.4236733E-010  0.4778727E+02  0.7816164E-02  0.1312668E+00
        -11   -1    0    0    0    0  0.00000000000E+00  0.00000000000E+00  0.45593999997E+02  0.45594000000E+02  0.51100000000E-03 0.  1.
         11   -1    0    0    0    0 -0.00000000000E+00 -0.00000000000E+00 -0.45593999997E+02  0.45594000000E+02  0.51100000000E-03 0. -1.
    9900012    2    1    2    0    0 -0.19598349423E+02 -0.23379955202E+02 -0.30869173934E+02  0.47787268385E+02  0.19999987872E+02 0.  0.
        -12    1    1    2    0    0  0.19598349423E+02  0.23379955202E+02  0.30869173934E+02  0.43400731615E+02  0.00000000000E+00 0.  1.
         11    1    3    3    0    0 -0.14256420870E+02 -0.58667862783E+01 -0.13145983547E+02  0.20260345529E+02  0.51100000000E-03 0. -1.
        -11    1    3    3    0    0 -0.84367428182E+01 -0.11411684948E+02 -0.11272391269E+02  0.18123796178E+02  0.51100000000E-03 0.  1.
        -12    1    3    3    0    0  0.30948142654E+01 -0.61014839758E+01 -0.64507991187E+01  0.94031266776E+01  0.00000000000E+00 0.  1.
</event>
<event>
 7    1  0.4236733E-010  0.4778727E+02  0.7816164E-02  0.1312668E+00
        -11   -1    0    0    0    0  0.00000000000E+00  0.00000000000E+00  0.45593999997E+02  0.45594000000E+02  0.51100000000E-03 0.  1.
         11   -1    0    0    0    0 -0.00000000000E+00 -0.00000000000E+00 -0.45593999997E+02  0.45594000000E+02  0.51100000000E-03 0. -1.
    9900012    2    1    2    0    0 -0.30102122727E+02 -0.19128705467E+02 -0.24730106152E+02  0.47787270561E+02  0.19999997798E+02 0.  0.
        -12    1    1    2    0    0  0.30102122727E+02  0.19128705467E+02  0.24730106152E+02  0.43400729439E+02  0.00000000000E+00 0.  1.
         11    1    3    3    0    0 -0.66829198948E+01 -0.23670611269E+01 -0.11935518193E+02  0.13882398622E+02  0.51100000000E-03 0. -1.
        -11    1    3    3    0    0 -0.73498533427E+01  0.29533504573E-01  0.50220404439E-01  0.73500842674E+01  0.51100000000E-03 0.  1.
        -12    1    3    3    0    0 -0.16069349489E+02 -0.16791177845E+02 -0.12844808364E+02  0.26554787672E+02  0.00000000000E+00 0.  1.
</event>
<event>
 7    1  0.4236733E-010  0.4778727E+02  0.7816164E-02  0.1312668E+00
        -11   -1    0    0    0    0  0.00000000000E+00  0.00000000000E+00  0.45593999997E+02  0.45594000000E+02  0.51100000000E-03 0. -1.
         11   -1    0    0    0    0 -0.00000000000E+00 -0.00000000000E+00 -0.45593999997E+02  0.45594000000E+02  0.51100000000E-03 0.  1.
    9900012    2    1    2    0    0 -0.13623340632E+02 -0.39023552651E+02 -0.13235935939E+02  0.47787273374E+02  0.20000010622E+02 0.  0.
        -12    1    1    2    0    0  0.13623340632E+02  0.39023552651E+02  0.13235935939E+02  0.43400726626E+02  0.00000000000E+00 0.  1.
         11    1    3    3    0    0 -0.10805360647E+02 -0.19048786342E+02  0.66393017232E-01  0.21900148130E+02  0.51100000000E-03 0. -1.
        -11    1    3    3    0    0 -0.37037527528E+01 -0.21732271585E+01 -0.35392231832E+01  0.55647822723E+01  0.51100000000E-03 0.  1.
         12    1    3    3    0    0  0.88577276821E+00 -0.17801539151E+02 -0.97631057735E+01  0.20322342972E+02  0.00000000000E+00 0. -1.
</event>
<event>
 7    1  0.4236733E-010  0.4778727E+02  0.7816164E-02  0.1312668E+00
        -11   -1    0    0    0    0  0.00000000000E+00  0.00000000000E+00  0.45593999997E+02  0.45594000000E+02  0.51100000000E-03 0. -1.
         11   -1    0    0    0    0 -0.00000000000E+00 -0.00000000000E+00 -0.45593999997E+02  0.45594000000E+02  0.51100000000E-03 0.  1.
    9900012    2    1    2    0    0  0.10646425678E+02 -0.50633034997E+01  0.41768888293E+02  0.47787269001E+02  0.19999990683E+02 0.  0.
        -12    1    1    2    0    0 -0.10646425678E+02  0.50633034997E+01 -0.41768888293E+02  0.43400730999E+02  0.00000000000E+00 0.  1.
         11    1    3    3    0    0 -0.75443097082E+00 -0.39696195661E+00  0.32943416664E+00  0.91393217254E+00  0.51100000000E-03 0. -1.
        -11    1    3    3    0    0  0.98941458657E+01 -0.36082806913E+01  0.76087459372E+01  0.12992568143E+02  0.51100000000E-03 0.  1.
         12    1    3    3    0    0  0.15067107833E+01 -0.10580608517E+01  0.33830708189E+02  0.33880768685E+02  0.00000000000E+00 0. -1.
</event>
<event>
 7    1  0.4236733E-010  0.4778728E+02  0.7816164E-02  0.1312668E+00
        -11   -1    0    0    0    0  0.00000000000E+00  0.00000000000E+00  0.45593999997E+02  0.45594000000E+02  0.51100000000E-03 0.  1.
         11   -1    0    0    0    0 -0.00000000000E+00 -0.00000000000E+00 -0.45593999997E+02  0.45594000000E+02  0.51100000000E-03 0. -1.
    9900012    2    1    2    0    0  0.15985414261E+02  0.29699163199E+02 -0.27313898880E+02  0.47787276091E+02  0.20000023007E+02 0.  0.
        -12    1    1    2    0    0 -0.15985414261E+02 -0.29699163199E+02  0.27313898880E+02  0.43400723909E+02  0.00000000000E+00 0.  1.
         11    1    3    3    0    0  0.11356494401E+02  0.10273568953E+02 -0.16223786338E+02  0.22309805636E+02  0.51100000000E-03 0. -1.
        -11    1    3    3    0    0  0.55835128655E+01  0.20516240024E+02 -0.11185125563E+02  0.24024961077E+02  0.51100000000E-03 0.  1.
        -12    1    3    3    0    0 -0.95459300462E+00 -0.10906457778E+01  0.95013021593E-01  0.14525093774E+01  0.00000000000E+00 0.  1.
</event>
<event>
 7    1  0.4236733E-010  0.4778727E+02  0.7816164E-02  0.1312668E+00
        -11   -1    0    0    0    0  0.00000000000E+00  0.00000000000E+00  0.45593999997E+02  0.45594000000E+02  0.51100000000E-03 0. -1.
         11   -1    0    0    0    0 -0.00000000000E+00 -0.00000000000E+00 -0.45593999997E+02  0.45594000000E+02  0.51100000000E-03 0.  1.
    9900012    2    1    2    0    0 -0.99259904255E+01  0.41896871537E+02  0.54544037830E+01  0.47787266698E+02  0.19999980185E+02 0.  0.
        -12    1    1    2    0    0  0.99259904255E+01 -0.41896871537E+02 -0.54544037830E+01  0.43400733302E+02  0.00000000000E+00 0.  1.
         11    1    3    3    0    0 -0.87222172333E+01  0.23682169596E+02  0.33075494072E+01  0.25453135634E+02  0.51100000000E-03 0. -1.
        -11    1    3    3    0    0 -0.47191721903E+01  0.14979377346E+02 -0.22202666981E+01  0.15861334001E+02  0.51100000000E-03 0.  1.
        -12    1    3    3    0    0  0.35153989981E+01  0.32353245946E+01  0.43671210739E+01  0.64727970632E+01  0.00000000000E+00 0.  1.
</event>
<event>
 7    1  0.4236733E-010  0.4778727E+02  0.7816164E-02  0.1312668E+00
        -11   -1    0    0    0    0  0.00000000000E+00  0.00000000000E+00  0.45593999997E+02  0.45594000000E+02  0.51100000000E-03 0.  1.
         11   -1    0    0    0    0 -0.00000000000E+00 -0.00000000000E+00 -0.45593999997E+02  0.45594000000E+02  0.51100000000E-03 0. -1.
    9900012    2    1    2    0    0  0.33963737964E+01 -0.24002574658E+02 -0.35999508116E+02  0.47787268097E+02  0.19999986560E+02 0.  0.
        -12    1    1    2    0    0 -0.33963737964E+01  0.24002574658E+02  0.35999508116E+02  0.43400731903E+02  0.00000000000E+00 0.  1.
         11    1    3    3    0    0  0.53032480782E+01 -0.29428332486E+01 -0.47438270685E+00  0.60835636696E+01  0.51100000000E-03 0.  1.
        -11    1    3    3    0    0  0.75616152675E-01 -0.22382367399E+01 -0.12869164267E+01  0.25829393444E+01  0.51100000000E-03 0. -1.
        -12    1    3    3    0    0 -0.19824904345E+01 -0.18821504670E+02 -0.34238208982E+02  0.39120765083E+02  0.00000000000E+00 0.  1.
</event>
<event>
 7    1  0.4236733E-010  0.4778728E+02  0.7816164E-02  0.1312668E+00
        -11   -1    0    0    0    0  0.00000000000E+00  0.00000000000E+00  0.45593999997E+02  0.45594000000E+02  0.51100000000E-03 0.  1.
         11   -1    0    0    0    0 -0.00000000000E+00 -0.00000000000E+00 -0.45593999997E+02  0.45594000000E+02  0.51100000000E-03 0. -1.
    9900012    2    1    2    0    0  0.25707329064E+02  0.13969085218E+02 -0.32056520939E+02  0.47787278299E+02  0.20000033074E+02 0.  0.
        -12    1    1    2    0    0 -0.25707329064E+02 -0.13969085218E+02  0.32056520939E+02  0.43400721701E+02  0.00000000000E+00 0.  1.
         11    1    3    3    0    0 -0.74403450208E+00  0.12313690286E-01 -0.32088989174E+00  0.81037617870E+00  0.51100000000E-03 0. -1.
        -11    1    3    3    0    0  0.39057781833E+01  0.11255164352E+02 -0.10248973856E+02  0.15715447597E+02  0.51100000000E-03 0.  1.
         12    1    3    3    0    0  0.22545585383E+02  0.27016071759E+01 -0.21486657191E+02  0.31261454523E+02  0.00000000000E+00 0. -1.
</event>
<event>
 7    1  0.4236733E-010  0.4778727E+02  0.7816164E-02  0.1312668E+00
        -11   -1    0    0    0    0  0.00000000000E+00  0.00000000000E+00  0.45593999997E+02  0.45594000000E+02  0.51100000000E-03 0.  1.
         11   -1    0    0    0    0 -0.00000000000E+00 -0.00000000000E+00 -0.45593999997E+02  0.45594000000E+02  0.51100000000E-03 0. -1.
    9900012    2    1    2    0    0 -0.31550304825E+02 -0.97849768212E+01  0.28150594440E+02  0.47787268747E+02  0.19999989527E+02 0.  0.
        -12    1    1    2    0    0  0.31550304825E+02  0.97849768212E+01 -0.28150594440E+02  0.43400731253E+02  0.00000000000E+00 0.  1.
         11    1    3    3    0    0 -0.65440808800E+01 -0.34589461741E+01  0.15756016272E+01  0.75678150048E+01  0.51100000000E-03 0. -1.
        -11    1    3    3    0    0 -0.85865784909E+01 -0.55944498612E+01  0.16752671993E+01  0.10384301608E+02  0.51100000000E-03 0.  1.
         12    1    3    3    0    0 -0.16419645454E+02 -0.73158078590E+00  0.24899725613E+02  0.29835152135E+02  0.00000000000E+00 0. -1.
</event>
<event>
 7    1  0.4236733E-010  0.4778728E+02  0.7816164E-02  0.1312668E+00
        -11   -1    0    0    0    0  0.00000000000E+00  0.00000000000E+00  0.45593999997E+02  0.45594000000E+02  0.51100000000E-03 0. -1.
         11   -1    0    0    0    0 -0.00000000000E+00 -0.00000000000E+00 -0.45593999997E+02  0.45594000000E+02  0.51100000000E-03 0.  1.
    9900012    2    1    2    0    0  0.35343704024E+02 -0.90574980933E+01  0.23503341819E+02  0.47787276936E+02  0.20000026861E+02 0.  0.
        -12    1    1    2    0    0 -0.35343704024E+02  0.90574980933E+01 -0.23503341819E+02  0.43400723064E+02  0.00000000000E+00 0.  1.
         11    1    3    3    0    0  0.30637690821E+02 -0.10842325162E+02  0.17386790198E+02  0.36858168531E+02  0.51100000000E-03 0. -1.
        -11    1    3    3    0    0  0.19096410753E+01 -0.24870100466E+01  0.24058217751E+00  0.31448097007E+01  0.51100000000E-03 0.  1.
        -12    1    3    3    0    0  0.27963721272E+01  0.42718371158E+01  0.58759694437E+01  0.77842987045E+01  0.00000000000E+00 0.  1.
</event>
<event>
 7    1  0.4236733E-010  0.4778729E+02  0.7816164E-02  0.1312668E+00
        -11   -1    0    0    0    0  0.00000000000E+00  0.00000000000E+00  0.45593999997E+02  0.45594000000E+02  0.51100000000E-03 0.  1.
         11   -1    0    0    0    0 -0.00000000000E+00 -0.00000000000E+00 -0.45593999997E+02  0.45594000000E+02  0.51100000000E-03 0. -1.
    9900012    2    1    2    0    0 -0.37788016395E+02  0.15357217989E+01 -0.21291525712E+02  0.47787289272E+02  0.20000083108E+02 0.  0.
        -12    1    1    2    0    0  0.37788016395E+02 -0.15357217989E+01  0.21291525712E+02  0.43400710728E+02  0.00000000000E+00 0.  1.
         11    1    3    3    0    0 -0.67861242021E+01  0.11400934875E+01 -0.11399871980E+02  0.13315719142E+02  0.51100000000E-03 0.  1.
        -11    1    3    3    0    0 -0.96577978452E+01 -0.51498165695E+01 -0.39037976874E+01  0.11620383237E+02  0.51100000000E-03 0. -1.
        -12    1    3    3    0    0 -0.21344094348E+02  0.55454448809E+01 -0.59878560453E+01  0.22851186894E+02  0.00000000000E+00 0.  1.
</event>
<event>
 7    1  0.4236733E-010  0.4778727E+02  0.7816164E-02  0.1312668E+00
        -11   -1    0    0    0    0  0.00000000000E+00  0.00000000000E+00  0.45593999997E+02  0.45594000000E+02  0.51100000000E-03 0.  1.
         11   -1    0    0    0    0 -0.00000000000E+00 -0.00000000000E+00 -0.45593999997E+02  0.45594000000E+02  0.51100000000E-03 0. -1.
    9900012    2    1    2    0    0  0.11554586276E+02  0.12590911459E+02 -0.39894660342E+02  0.47787269140E+02  0.19999991319E+02 0.  0.
        -12    1    1    2    0    0 -0.11554586276E+02 -0.12590911459E+02  0.39894660342E+02  0.43400730860E+02  0.00000000000E+00 0.  1.
         11    1    3    3    0    0  0.96101952723E-01  0.12784245408E+02 -0.21300214292E+02  0.24842409211E+02  0.51100000000E-03 0. -1.
        -11    1    3    3    0    0  0.18895904260E+01  0.24444166088E+01 -0.71911414133E+01  0.78267643137E+01  0.51100000000E-03 0.  1.
        -12    1    3    3    0    0  0.95688938969E+01 -0.26377505585E+01 -0.11403304636E+02  0.15118095616E+02  0.00000000000E+00 0.  1.
</event>
<event>
 7    1  0.4236733E-010  0.4778727E+02  0.7816164E-02  0.1312668E+00
        -11   -1    0    0    0    0  0.00000000000E+00  0.00000000000E+00  0.45593999997E+02  0.45594000000E+02  0.51100000000E-03 0. -1.
         11   -1    0    0    0    0 -0.00000000000E+00 -0.00000000000E+00 -0.45593999997E+02  0.45594000000E+02  0.51100000000E-03 0.  1.
    9900012    2    1    2    0    0  0.34157770780E+02  0.23176079609E+02  0.13406685059E+02  0.47787272184E+02  0.20000005196E+02 0.  0.
        -12    1    1    2    0    0 -0.34157770780E+02 -0.23176079609E+02 -0.13406685059E+02  0.43400727816E+02  0.00000000000E+00 0.  1.
         11    1    3    3    0    0  0.28055961871E+02  0.83968650237E+01  0.11008495769E+02  0.31286280030E+02  0.51100000000E-03 0. -1.
        -11    1    3    3    0    0  0.21580681835E+00  0.19965738406E+01  0.12854240286E+01  0.23843646697E+01  0.51100000000E-03 0.  1.
         12    1    3    3    0    0  0.58860020910E+01  0.12782640745E+02  0.11127652606E+01  0.14116627485E+02  0.00000000000E+00 0. -1.
</event>
<event>
 7    1  0.4236733E-010  0.4778725E+02  0.7816164E-02  0.1312668E+00
        -11   -1    0    0    0    0  0.00000000000E+00  0.00000000000E+00  0.45593999997E+02  0.45594000000E+02  0.51100000000E-03 0.  1.
         11   -1    0    0    0    0 -0.00000000000E+00 -0.00000000000E+00 -0.45593999997E+02  0.45594000000E+02  0.51100000000E-03 0. -1.
    9900012    2    1    2    0    0 -0.16318342356E+02 -0.14288614594E+02 -0.37592184056E+02  0.47787249933E+02  0.19999903745E+02 0.  0.
        -12    1    1    2    0    0  0.16318342356E+02  0.14288614594E+02  0.37592184056E+02  0.43400750067E+02  0.00000000000E+00 0.  1.
         11    1    3    3    0    0 -0.10005605696E+02 -0.29913693828E+01 -0.17976253663E+02  0.20789567869E+02  0.51100000000E-03 0. -1.
        -11    1    3    3    0    0 -0.96416845990E+01 -0.59424028016E+01 -0.82923994755E+01  0.14037026832E+02  0.51100000000E-03 0.  1.
        -12    1    3    3    0    0  0.33289479397E+01 -0.53548424096E+01 -0.11323530918E+02  0.12960655233E+02  0.00000000000E+00 0.  1.
</event>
<event>
 7    1  0.4236733E-010  0.4778727E+02  0.7816164E-02  0.1312668E+00
        -11   -1    0    0    0    0  0.00000000000E+00  0.00000000000E+00  0.45593999997E+02  0.45594000000E+02  0.51100000000E-03 0.  1.
         11   -1    0    0    0    0 -0.00000000000E+00 -0.00000000000E+00 -0.45593999997E+02  0.45594000000E+02  0.51100000000E-03 0. -1.
    9900012    2    1    2    0    0 -0.26916454212E+02 -0.26944982842E+02 -0.20810951399E+02  0.47787270677E+02  0.19999998323E+02 0.  0.
        -12    1    1    2    0    0  0.26916454212E+02  0.26944982842E+02  0.20810951399E+02  0.43400729323E+02  0.00000000000E+00 0.  1.
         11    1    3    3    0    0 -0.90986646813E+01 -0.11605947190E+02 -0.10097718755E+02  0.17873098038E+02  0.51100000000E-03 0. -1.
        -11    1    3    3    0    0 -0.22442335213E+01 -0.28760918412E+01 -0.92158208015E+01  0.99116013683E+01  0.51100000000E-03 0.  1.
        -12    1    3    3    0    0 -0.15573556009E+02 -0.12462943810E+02 -0.14974118424E+01  0.20002571270E+02  0.00000000000E+00 0.  1.
</event>
<event>
 7    1  0.4236733E-010  0.4778727E+02  0.7816164E-02  0.1312668E+00
        -11   -1    0    0    0    0  0.00000000000E+00  0.00000000000E+00  0.45593999997E+02  0.45594000000E+02  0.51100000000E-03 0.  1.
         11   -1    0    0    0    0 -0.00000000000E+00 -0.00000000000E+00 -0.45593999997E+02  0.45594000000E+02  0.51100000000E-03 0. -1.
    9900012    2    1    2    0    0  0.64471682998E+01 -0.33336788343E+02 -0.27031755001E+02  0.47787271728E+02  0.20000003116E+02 0.  0.
        -12    1    1    2    0    0 -0.64471682998E+01  0.33336788343E+02  0.27031755001E+02  0.43400728272E+02  0.00000000000E+00 0.  1.
         11    1    3    3    0    0  0.30152027865E+01 -0.14453125206E+01 -0.71034603680E+01  0.78510843574E+01  0.51100000000E-03 0. -1.
        -11    1    3    3    0    0 -0.32299192836E+01 -0.16599128144E+01 -0.25216096452E+01  0.44211089778E+01  0.51100000000E-03 0.  1.
         12    1    3    3    0    0  0.66618847968E+01 -0.30231563008E+02 -0.17406684988E+02  0.35515078393E+02  0.00000000000E+00 0. -1.
</event>
<event>
 7    1  0.4236733E-010  0.4778727E+02  0.7816164E-02  0.1312668E+00
        -11   -1    0    0    0    0  0.00000000000E+00  0.00000000000E+00  0.45593999997E+02  0.45594000000E+02  0.51100000000E-03 0.  1.
         11   -1    0    0    0    0 -0.00000000000E+00 -0.00000000000E+00 -0.45593999997E+02  0.45594000000E+02  0.51100000000E-03 0. -1.
    9900012    2    1    2    0    0 -0.37687624597E+02  0.17370455054E+02  0.12709578501E+02  0.47787272562E+02  0.20000006917E+02 0.  0.
        -12    1    1    2    0    0  0.37687624597E+02 -0.17370455054E+02 -0.12709578501E+02  0.43400727438E+02  0.00000000000E+00 0.  1.
         11    1    3    3    0    0 -0.22785628894E+01 -0.28294393559E+01  0.16044060114E+01  0.39713593165E+01  0.51100000000E-03 0.  1.
        -11    1    3    3    0    0 -0.15099547027E+02  0.14528230579E+02  0.27467570654E+01  0.21133160644E+02  0.51100000000E-03 0. -1.
         12    1    3    3    0    0 -0.20309514680E+02  0.56716638306E+01  0.83584154237E+01  0.22682752601E+02  0.00000000000E+00 0. -1.
</event>
<event>
 7    1  0.4236733E-010  0.4778727E+02  0.7816164E-02  0.1312668E+00
        -11   -1    0    0    0    0  0.00000000000E+00  0.00000000000E+00  0.45593999997E+02  0.45594000000E+02  0.51100000000E-03 0. -1.
         11   -1    0    0    0    0 -0.00000000000E+00 -0.00000000000E+00 -0.45593999997E+02  0.45594000000E+02  0.51100000000E-03 0.  1.
    9900012    2    1    2    0    0  0.44477215910E+01  0.41562796863E+02  0.11677982334E+02  0.47787267497E+02  0.19999983824E+02 0.  0.
        -12    1    1    2    0    0 -0.44477215910E+01 -0.41562796863E+02 -0.11677982334E+02  0.43400732503E+02  0.00000000000E+00 0.  1.
         11    1    3    3    0    0  0.45086692669E+01  0.23245511186E+02  0.41028647019E+01  0.24031549843E+02  0.51100000000E-03 0. -1.
        -11    1    3    3    0    0 -0.28488547326E+01  0.18034004944E+02  0.31640078166E+01  0.18529766684E+02  0.51100000000E-03 0.  1.
        -12    1    3    3    0    0  0.27879070567E+01  0.28328073279E+00  0.44111098158E+01  0.52259509697E+01  0.00000000000E+00 0.  1.
</event>
<event>
 7    1  0.4236733E-010  0.4778727E+02  0.7816164E-02  0.1312668E+00
        -11   -1    0    0    0    0  0.00000000000E+00  0.00000000000E+00  0.45593999997E+02  0.45594000000E+02  0.51100000000E-03 0.  1.
         11   -1    0    0    0    0 -0.00000000000E+00 -0.00000000000E+00 -0.45593999997E+02  0.45594000000E+02  0.51100000000E-03 0. -1.
    9900012    2    1    2    0    0  0.20782678828E+02  0.37942245639E+02  0.34770233924E+01  0.47787269187E+02  0.19999991532E+02 0.  0.
        -12    1    1    2    0    0 -0.20782678828E+02 -0.37942245639E+02 -0.34770233924E+01  0.43400730813E+02  0.00000000000E+00 0.  1.
         11    1    3    3    0    0  0.76736550261E+01  0.55111436158E+01 -0.27799561040E+01  0.98481389924E+01  0.51100000000E-03 0. -1.
        -11    1    3    3    0    0  0.10951247641E+01 -0.12033678348E+01  0.78546733074E+00  0.18067516663E+01  0.51100000000E-03 0.  1.
         12    1    3    3    0    0  0.12013899037E+02  0.33634469859E+02  0.54715121657E+01  0.36132378528E+02  0.00000000000E+00 0. -1.
</event>
<event>
 7    1  0.4236733E-010  0.4778727E+02  0.7816164E-02  0.1312668E+00
        -11   -1    0    0    0    0  0.00000000000E+00  0.00000000000E+00  0.45593999997E+02  0.45594000000E+02  0.51100000000E-03 0. -1.
         11   -1    0    0    0    0 -0.00000000000E+00 -0.00000000000E+00 -0.45593999997E+02  0.45594000000E+02  0.51100000000E-03 0.  1.
    9900012    2    1    2    0    0 -0.17249233121E+02 -0.27017433400E+02  0.29259963674E+02  0.47787271608E+02  0.20000002570E+02 0.  0.
        -12    1    1    2    0    0  0.17249233121E+02  0.27017433400E+02 -0.29259963674E+02  0.43400728392E+02  0.00000000000E+00 0.  1.
         11    1    3    3    0    0 -0.74514212727E+01 -0.19992084591E+02  0.11742538695E+02  0.24353528297E+02  0.51100000000E-03 0. -1.
        -11    1    3    3    0    0 -0.61967457300E+01 -0.92580157047E+01  0.14222923365E+02  0.18066600724E+02  0.51100000000E-03 0.  1.
        -12    1    3    3    0    0 -0.36010661183E+01  0.22326668959E+01  0.32945016142E+01  0.53671425864E+01  0.00000000000E+00 0.  1.
</event>
<event>
 7    1  0.4236733E-010  0.4778727E+02  0.7816164E-02  0.1312668E+00
        -11   -1    0    0    0    0  0.00000000000E+00  0.00000000000E+00  0.45593999997E+02  0.45594000000E+02  0.51100000000E-03 0.  1.
         11   -1    0    0    0    0 -0.00000000000E+00 -0.00000000000E+00 -0.45593999997E+02  0.45594000000E+02  0.51100000000E-03 0. -1.
    9900012    2    1    2    0    0 -0.18639803792E+02 -0.19095405955E+02 -0.34227859284E+02  0.47787272297E+02  0.20000005709E+02 0.  0.
        -12    1    1    2    0    0  0.18639803792E+02  0.19095405955E+02  0.34227859284E+02  0.43400727703E+02  0.00000000000E+00 0.  1.
         11    1    3    3    0    0 -0.69291938912E+01  0.26388072348E-01 -0.64233264096E+00  0.69589522052E+01  0.51100000000E-03 0. -1.
        -11    1    3    3    0    0 -0.66588011233E-01 -0.13620194564E+01 -0.38526599438E+00  0.14170254445E+01  0.51100000000E-03 0.  1.
         12    1    3    3    0    0 -0.11644021890E+02 -0.17759774571E+02 -0.33200260649E+02  0.39411294647E+02  0.00000000000E+00 0. -1.
</event>
<event>
 7    1  0.4236733E-010  0.4778727E+02  0.7816164E-02  0.1312668E+00
        -11   -1    0    0    0    0  0.00000000000E+00  0.00000000000E+00  0.45593999997E+02  0.45594000000E+02  0.51100000000E-03 0.  1.
         11   -1    0    0    0    0 -0.00000000000E+00 -0.00000000000E+00 -0.45593999997E+02  0.45594000000E+02  0.51100000000E-03 0. -1.
    9900012    2    1    2    0    0 -0.33356340320E+02 -0.70476347708E+01 -0.26857189208E+02  0.47787271808E+02  0.20000003484E+02 0.  0.
        -12    1    1    2    0    0  0.33356340320E+02  0.70476347708E+01  0.26857189208E+02  0.43400728192E+02  0.00000000000E+00 0.  1.
         11    1    3    3    0    0 -0.66578810226E+01 -0.77667348265E+01 -0.41907061397E+01  0.11054934092E+02  0.51100000000E-03 0. -1.
        -11    1    3    3    0    0 -0.46937895366E+01 -0.18921930240E+01 -0.10002181209E+02  0.11209624608E+02  0.51100000000E-03 0.  1.
         12    1    3    3    0    0 -0.22004669761E+02  0.26112930796E+01 -0.12664301860E+02  0.25522713108E+02  0.00000000000E+00 0. -1.
</event>
<event>
 7    1  0.4236733E-010  0.4778727E+02  0.7816164E-02  0.1312668E+00
        -11   -1    0    0    0    0  0.00000000000E+00  0.00000000000E+00  0.45593999997E+02  0.45594000000E+02  0.51100000000E-03 0.  1.
         11   -1    0    0    0    0 -0.00000000000E+00 -0.00000000000E+00 -0.45593999997E+02  0.45594000000E+02  0.51100000000E-03 0. -1.
    9900012    2    1    2    0    0  0.14706247894E+02 -0.34528870808E+02 -0.21796940728E+02  0.47787271072E+02  0.20000000124E+02 0.  0.
        -12    1    1    2    0    0 -0.14706247894E+02  0.34528870808E+02  0.21796940728E+02  0.43400728928E+02  0.00000000000E+00 0.  1.
         11    1    3    3    0    0  0.16571359532E+01 -0.26582863710E+02 -0.10041800027E+02  0.28464583093E+02  0.51100000000E-03 0. -1.
        -11    1    3    3    0    0  0.35429663672E+01 -0.18146265893E+01 -0.24401200308E+01  0.46690112833E+01  0.51100000000E-03 0.  1.
         12    1    3    3    0    0  0.95061455737E+01 -0.61313805087E+01 -0.93150206702E+01  0.14653676696E+02  0.00000000000E+00 0. -1.
</event>
<event>
 7    1  0.4236733E-010  0.4778727E+02  0.7816164E-02  0.1312668E+00
        -11   -1    0    0    0    0  0.00000000000E+00  0.00000000000E+00  0.45593999997E+02  0.45594000000E+02  0.51100000000E-03 0.  1.
         11   -1    0    0    0    0 -0.00000000000E+00 -0.00000000000E+00 -0.45593999997E+02  0.45594000000E+02  0.51100000000E-03 0. -1.
    9900012    2    1    2    0    0 -0.45017411245E+01  0.58781789866E+01 -0.42764524476E+02  0.47787271722E+02  0.20000003091E+02 0.  0.
        -12    1    1    2    0    0  0.45017411245E+01 -0.58781789866E+01  0.42764524476E+02  0.43400728278E+02  0.00000000000E+00 0.  1.
         11    1    3    3    0    0  0.25535409955E+01 -0.27937262308E+01 -0.87425724794E+01  0.95267020362E+01  0.51100000000E-03 0.  1.
        -11    1    3    3    0    0 -0.70057213661E+00  0.44773121726E+01 -0.28491823101E+02  0.28849975901E+02  0.51100000000E-03 0. -1.
         12    1    3    3    0    0 -0.63547099833E+01  0.41945930447E+01 -0.55301288962E+01  0.94105937853E+01  0.00000000000E+00 0. -1.
</event>
<event>
 7    1  0.4236733E-010  0.4778727E+02  0.7816164E-02  0.1312668E+00
        -11   -1    0    0    0    0  0.00000000000E+00  0.00000000000E+00  0.45593999997E+02  0.45594000000E+02  0.51100000000E-03 0.  1.
         11   -1    0    0    0    0 -0.00000000000E+00 -0.00000000000E+00 -0.45593999997E+02  0.45594000000E+02  0.51100000000E-03 0. -1.
    9900012    2    1    2    0    0  0.12370920222E+02  0.31185684360E+02 -0.27532461920E+02  0.47787273790E+02  0.20000012518E+02 0.  0.
        -12    1    1    2    0    0 -0.12370920222E+02 -0.31185684360E+02  0.27532461920E+02  0.43400726210E+02  0.00000000000E+00 0.  1.
         11    1    3    3    0    0  0.93293517663E+00  0.12236228525E+01 -0.13218644792E+00  0.15443750992E+01  0.51100000000E-03 0. -1.
        -11    1    3    3    0    0  0.93340076930E+01  0.88697235734E+01 -0.20009321841E+02  0.23794298827E+02  0.51100000000E-03 0.  1.
        -12    1    3    3    0    0  0.21039773525E+01  0.21092337935E+02 -0.73909536313E+01  0.22448599863E+02  0.00000000000E+00 0.  1.
</event>
<event>
 7    1  0.4236733E-010  0.4778727E+02  0.7816164E-02  0.1312668E+00
        -11   -1    0    0    0    0  0.00000000000E+00  0.00000000000E+00  0.45593999997E+02  0.45594000000E+02  0.51100000000E-03 0.  1.
         11   -1    0    0    0    0 -0.00000000000E+00 -0.00000000000E+00 -0.45593999997E+02  0.45594000000E+02  0.51100000000E-03 0. -1.
    9900012    2    1    2    0    0  0.27477107879E+02 -0.98466422611E+01 -0.32119703591E+02  0.47787272126E+02  0.20000004931E+02 0.  0.
        -12    1    1    2    0    0 -0.27477107879E+02  0.98466422611E+01  0.32119703591E+02  0.43400727874E+02  0.00000000000E+00 0.  1.
         11    1    3    3    0    0  0.49413618484E+01 -0.33276560044E+01 -0.43915296009E+01  0.74010731585E+01  0.51100000000E-03 0. -1.
        -11    1    3    3    0    0  0.10298084722E+02 -0.58011794855E+01 -0.21381714512E+01  0.12011494902E+02  0.51100000000E-03 0.  1.
         12    1    3    3    0    0  0.12237661309E+02 -0.71780677117E+00 -0.25590002539E+02  0.28374704066E+02  0.00000000000E+00 0. -1.
</event>
<event>
 7    1  0.4236733E-010  0.4778727E+02  0.7816164E-02  0.1312668E+00
        -11   -1    0    0    0    0  0.00000000000E+00  0.00000000000E+00  0.45593999997E+02  0.45594000000E+02  0.51100000000E-03 0.  1.
         11   -1    0    0    0    0 -0.00000000000E+00 -0.00000000000E+00 -0.45593999997E+02  0.45594000000E+02  0.51100000000E-03 0. -1.
    9900012    2    1    2    0    0 -0.27098383383E+02 -0.32366334859E+02 -0.10085716867E+02  0.47787266148E+02  0.19999977676E+02 0.  0.
        -12    1    1    2    0    0  0.27098383383E+02  0.32366334859E+02  0.10085716867E+02  0.43400733852E+02  0.00000000000E+00 0.  1.
         11    1    3    3    0    0 -0.12432534143E+02 -0.20557246109E+02 -0.40772946223E+00  0.24027786340E+02  0.51100000000E-03 0. -1.
        -11    1    3    3    0    0 -0.30677355616E+01 -0.93217626853E+01 -0.38305935000E+01  0.10534690686E+02  0.51100000000E-03 0.  1.
        -12    1    3    3    0    0 -0.11598113678E+02 -0.24873260642E+01 -0.58473939048E+01  0.13224789122E+02  0.00000000000E+00 0.  1.
</event>
<event>
 7    1  0.4236733E-010  0.4778727E+02  0.7816164E-02  0.1312668E+00
        -11   -1    0    0    0    0  0.00000000000E+00  0.00000000000E+00  0.45593999997E+02  0.45594000000E+02  0.51100000000E-03 0.  1.
         11   -1    0    0    0    0 -0.00000000000E+00 -0.00000000000E+00 -0.45593999997E+02  0.45594000000E+02  0.51100000000E-03 0. -1.
    9900012    2    1    2    0    0  0.52513621775E+01 -0.41156861719E+02 -0.12734177896E+02  0.47787270076E+02  0.19999995584E+02 0.  0.
        -12    1    1    2    0    0 -0.52513621775E+01  0.41156861719E+02  0.12734177896E+02  0.43400729924E+02  0.00000000000E+00 0.  1.
         11    1    3    3    0    0  0.61751525853E+01 -0.11414324612E+02 -0.42752775447E+00  0.12984686982E+02  0.51100000000E-03 0. -1.
        -11    1    3    3    0    0 -0.47670600894E+00  0.13474381909E+01 -0.86738526511E+00  0.16718838945E+01  0.51100000000E-03 0.  1.
         12    1    3    3    0    0 -0.44708439883E+00 -0.31089975298E+02 -0.11439264877E+02  0.33130699199E+02  0.00000000000E+00 0. -1.
</event>
<event>
 7    1  0.4236733E-010  0.4778727E+02  0.7816164E-02  0.1312668E+00
        -11   -1    0    0    0    0  0.00000000000E+00  0.00000000000E+00  0.45593999997E+02  0.45594000000E+02  0.51100000000E-03 0.  1.
         11   -1    0    0    0    0 -0.00000000000E+00 -0.00000000000E+00 -0.45593999997E+02  0.45594000000E+02  0.51100000000E-03 0. -1.
    9900012    2    1    2    0    0  0.13181491101E+02 -0.41180971623E+02 -0.37415644069E+01  0.47787269180E+02  0.19999991500E+02 0.  0.
        -12    1    1    2    0    0 -0.13181491101E+02  0.41180971623E+02  0.37415644069E+01  0.43400730820E+02  0.00000000000E+00 0.  1.
         11    1    3    3    0    0 -0.30241908222E+01 -0.83800996445E+01 -0.40837164026E+01  0.98004357097E+01  0.51100000000E-03 0. -1.
        -11    1    3    3    0    0  0.36994160030E+01 -0.20808076164E+01  0.21725626468E+01  0.47681723768E+01  0.51100000000E-03 0.  1.
        -12    1    3    3    0    0  0.12506265920E+02 -0.30720064362E+02 -0.18304106510E+01  0.33218661094E+02  0.00000000000E+00 0.  1.
</event>
<event>
 7    1  0.4236733E-010  0.4778728E+02  0.7816164E-02  0.1312668E+00
        -11   -1    0    0    0    0  0.00000000000E+00  0.00000000000E+00  0.45593999997E+02  0.45594000000E+02  0.51100000000E-03 0. -1.
         11   -1    0    0    0    0 -0.00000000000E+00 -0.00000000000E+00 -0.45593999997E+02  0.45594000000E+02  0.51100000000E-03 0.  1.
    9900012    2    1    2    0    0 -0.42320766667E+02  0.41286946713E+01 -0.86907335047E+01  0.47787282727E+02  0.20000053266E+02 0.  0.
        -12    1    1    2    0    0  0.42320766667E+02 -0.41286946713E+01  0.86907335047E+01  0.43400717273E+02  0.00000000000E+00 0.  1.
         11    1    3    3    0    0 -0.62856786053E+01 -0.32529709882E+01 -0.40625439185E+01  0.81606273735E+01  0.51100000000E-03 0. -1.
        -11    1    3    3    0    0 -0.20287638858E+02  0.73228194089E+01 -0.88643460364E+01  0.23319275405E+02  0.51100000000E-03 0.  1.
         12    1    3    3    0    0 -0.15747449204E+02  0.58846250627E-01  0.42361564501E+01  0.16307379948E+02  0.00000000000E+00 0. -1.
</event>
<event>
 7    1  0.4236733E-010  0.4778727E+02  0.7816164E-02  0.1312668E+00
        -11   -1    0    0    0    0  0.00000000000E+00  0.00000000000E+00  0.45593999997E+02  0.45594000000E+02  0.51100000000E-03 0.  1.
         11   -1    0    0    0    0 -0.00000000000E+00 -0.00000000000E+00 -0.45593999997E+02  0.45594000000E+02  0.51100000000E-03 0. -1.
    9900012    2    1    2    0    0 -0.10323442056E+02 -0.38543646319E+02 -0.17071533440E+02  0.47787269805E+02  0.19999994350E+02 0.  0.
        -12    1    1    2    0    0  0.10323442056E+02  0.38543646319E+02  0.17071533440E+02  0.43400730195E+02  0.00000000000E+00 0.  1.
         11    1    3    3    0    0 -0.11545662556E+02 -0.21612806944E+02 -0.93701254912E+01  0.26233852173E+02  0.51100000000E-03 0. -1.
        -11    1    3    3    0    0 -0.30071282060E+01 -0.37153391279E+01  0.13739269969E+01  0.49733530476E+01  0.51100000000E-03 0.  1.
        -12    1    3    3    0    0  0.42293487061E+01 -0.13215500248E+02 -0.90753349456E+01  0.16580064585E+02  0.00000000000E+00 0.  1.
</event>
<event>
 7    1  0.4236733E-010  0.4778733E+02  0.7816164E-02  0.1312668E+00
        -11   -1    0    0    0    0  0.00000000000E+00  0.00000000000E+00  0.45593999997E+02  0.45594000000E+02  0.51100000000E-03 0.  1.
         11   -1    0    0    0    0 -0.00000000000E+00 -0.00000000000E+00 -0.45593999997E+02  0.45594000000E+02  0.51100000000E-03 0. -1.
    9900012    2    1    2    0    0 -0.23619386730E+02 -0.35877257824E+02  0.62101110451E+01  0.47787325608E+02  0.20000248775E+02 0.  0.
        -12    1    1    2    0    0  0.23619386730E+02  0.35877257824E+02 -0.62101110451E+01  0.43400674392E+02  0.00000000000E+00 0.  1.
         11    1    3    3    0    0  0.88563861444E+00 -0.23109964401E+01 -0.25200595319E+01  0.35321042746E+01  0.51100000000E-03 0. -1.
        -11    1    3    3    0    0 -0.32551382153E+01 -0.10640525040E+02 -0.17957270904E+01  0.11271261419E+02  0.51100000000E-03 0.  1.
         12    1    3    3    0    0 -0.21249887130E+02 -0.22925736344E+02  0.10525897667E+02  0.32983959915E+02  0.00000000000E+00 0. -1.
</event>
<event>
 7    1  0.4236733E-010  0.4778727E+02  0.7816164E-02  0.1312668E+00
        -11   -1    0    0    0    0  0.00000000000E+00  0.00000000000E+00  0.45593999997E+02  0.45594000000E+02  0.51100000000E-03 0. -1.
         11   -1    0    0    0    0 -0.00000000000E+00 -0.00000000000E+00 -0.45593999997E+02  0.45594000000E+02  0.51100000000E-03 0.  1.
    9900012    2    1    2    0    0 -0.35588628822E+02 -0.24440276575E+02  0.44436300296E+01  0.47787268804E+02  0.19999989785E+02 0.  0.
        -12    1    1    2    0    0  0.35588628822E+02  0.24440276575E+02 -0.44436300296E+01  0.43400731196E+02  0.00000000000E+00 0.  1.
         11    1    3    3    0    0 -0.60869651975E+01 -0.91905590876E+01  0.62475963622E+01  0.12670831947E+02  0.51100000000E-03 0. -1.
        -11    1    3    3    0    0 -0.19307197559E+02 -0.11991372868E+02  0.37873746738E+01  0.23041378171E+02  0.51100000000E-03 0.  1.
        -12    1    3    3    0    0 -0.10194466066E+02 -0.32583446191E+01 -0.55913410063E+01  0.12075058686E+02  0.00000000000E+00 0.  1.
</event>
<event>
 7    1  0.4236733E-010  0.4778727E+02  0.7816164E-02  0.1312668E+00
        -11   -1    0    0    0    0  0.00000000000E+00  0.00000000000E+00  0.45593999997E+02  0.45594000000E+02  0.51100000000E-03 0. -1.
         11   -1    0    0    0    0 -0.00000000000E+00 -0.00000000000E+00 -0.45593999997E+02  0.45594000000E+02  0.51100000000E-03 0.  1.
    9900012    2    1    2    0    0  0.27368755329E+02 -0.32624322058E+02  0.83802274016E+01  0.47787269945E+02  0.19999994986E+02 0.  0.
        -12    1    1    2    0    0 -0.27368755329E+02  0.32624322058E+02 -0.83802274016E+01  0.43400730055E+02  0.00000000000E+00 0.  1.
         11    1    3    3    0    0 -0.10654198442E+01 -0.17524302273E+01  0.35038424336E+01  0.40599314288E+01  0.51100000000E-03 0.  1.
        -11    1    3    3    0    0  0.10064468379E+02 -0.17156889628E+02  0.59963047324E+01  0.20775178848E+02  0.51100000000E-03 0. -1.
        -12    1    3    3    0    0  0.18369706795E+02 -0.13715002202E+02 -0.11199197643E+01  0.22952159668E+02  0.00000000000E+00 0.  1.
</event>
<event>
 7    1  0.4236733E-010  0.4778727E+02  0.7816164E-02  0.1312668E+00
        -11   -1    0    0    0    0  0.00000000000E+00  0.00000000000E+00  0.45593999997E+02  0.45594000000E+02  0.51100000000E-03 0.  1.
         11   -1    0    0    0    0 -0.00000000000E+00 -0.00000000000E+00 -0.45593999997E+02  0.45594000000E+02  0.51100000000E-03 0. -1.
    9900012    2    1    2    0    0 -0.25991157201E+02 -0.90723691586E+01 -0.33552574700E+02  0.47787269548E+02  0.19999993176E+02 0.  0.
        -12    1    1    2    0    0  0.25991157201E+02  0.90723691586E+01  0.33552574700E+02  0.43400730452E+02  0.00000000000E+00 0.  1.
         11    1    3    3    0    0 -0.19582760809E+02 -0.70538328793E+01 -0.15000415309E+02  0.25656452189E+02  0.51100000000E-03 0. -1.
        -11    1    3    3    0    0 -0.32903349065E+01 -0.56909704619E+01 -0.69408273882E+01  0.95597350219E+01  0.51100000000E-03 0.  1.
         12    1    3    3    0    0 -0.31180614851E+01  0.36724341826E+01 -0.11611332003E+02  0.12571082337E+02  0.00000000000E+00 0. -1.
</event>
<event>
 7    1  0.4236733E-010  0.4778728E+02  0.7816164E-02  0.1312668E+00
        -11   -1    0    0    0    0  0.00000000000E+00  0.00000000000E+00  0.45593999997E+02  0.45594000000E+02  0.51100000000E-03 0.  1.
         11   -1    0    0    0    0 -0.00000000000E+00 -0.00000000000E+00 -0.45593999997E+02  0.45594000000E+02  0.51100000000E-03 0. -1.
    9900012    2    1    2    0    0 -0.30407597095E+02 -0.30855891169E+02 -0.26296079669E+01  0.47787276285E+02  0.20000023893E+02 0.  0.
        -12    1    1    2    0    0  0.30407597095E+02  0.30855891169E+02  0.26296079669E+01  0.43400723715E+02  0.00000000000E+00 0.  1.
         11    1    3    3    0    0 -0.10771116593E+02 -0.32884071204E+01  0.16927337593E+01  0.11388411737E+02  0.51100000000E-03 0. -1.
        -11    1    3    3    0    0 -0.48158666056E+01 -0.14884875875E+01  0.25152373357E+01  0.56333458599E+01  0.51100000000E-03 0.  1.
         12    1    3    3    0    0 -0.14820613897E+02 -0.26078996461E+02 -0.68375790619E+01  0.30765518688E+02  0.00000000000E+00 0. -1.
</event>
<event>
 7    1  0.5858927E-010  0.4778727E+02  0.7816164E-02  0.1312668E+00
        -11   -1    0    0    0    0  0.00000000000E+00  0.00000000000E+00  0.45593999997E+02  0.45594000000E+02  0.51100000000E-03 0. -1.
         11   -1    0    0    0    0 -0.00000000000E+00 -0.00000000000E+00 -0.45593999997E+02  0.45594000000E+02  0.51100000000E-03 0.  1.
    9900012    2    1    2    0    0 -0.41237589966E+02 -0.59237173459E+01  0.12165273029E+02  0.47787272803E+02  0.20000008016E+02 0.  0.
        -12    1    1    2    0    0  0.41237589966E+02  0.59237173459E+01 -0.12165273029E+02  0.43400727197E+02  0.00000000000E+00 0.  1.
         11    1    3    3    0    0 -0.20392335630E+02 -0.41942725035E+01  0.51932942015E+01  0.21457156829E+02  0.51100000000E-03 0. -1.
        -11    1    3    3    0    0 -0.14342574047E+02  0.32737410757E+01  0.97715305509E+01  0.17660963182E+02  0.51100000000E-03 0.  1.
        -12    1    3    3    0    0 -0.65026802893E+01 -0.50031859181E+01 -0.27995517236E+01  0.86691527919E+01  0.00000000000E+00 0.  1.
</event>
<event>
 7    1  0.4236733E-010  0.4778727E+02  0.7816164E-02  0.1312668E+00
        -11   -1    0    0    0    0  0.00000000000E+00  0.00000000000E+00  0.45593999997E+02  0.45594000000E+02  0.51100000000E-03 0. -1.
         11   -1    0    0    0    0 -0.00000000000E+00 -0.00000000000E+00 -0.45593999997E+02  0.45594000000E+02  0.51100000000E-03 0.  1.
    9900012    2    1    2    0    0 -0.59595078430E+01  0.41698496496E+02  0.10456714556E+02  0.47787271630E+02  0.20000002668E+02 0.  0.
        -12    1    1    2    0    0  0.59595078430E+01 -0.41698496496E+02 -0.10456714556E+02  0.43400728370E+02  0.00000000000E+00 0.  1.
         11    1    3    3    0    0  0.26685511403E+01  0.15588250261E+01  0.95369137143E+00  0.32342894340E+01  0.51100000000E-03 0.  1.
        -11    1    3    3    0    0 -0.26718102066E+01 -0.49065327220E-01 -0.48408301625E+00  0.27157529001E+01  0.51100000000E-03 0. -1.
         12    1    3    3    0    0 -0.59562487766E+01  0.40188736797E+02  0.99871062009E+01  0.41837229295E+02  0.00000000000E+00 0. -1.
</event>
<event>
 7    1  0.4236733E-010  0.4778726E+02  0.7816164E-02  0.1312668E+00
        -11   -1    0    0    0    0  0.00000000000E+00  0.00000000000E+00  0.45593999997E+02  0.45594000000E+02  0.51100000000E-03 0.  1.
         11   -1    0    0    0    0 -0.00000000000E+00 -0.00000000000E+00 -0.45593999997E+02  0.45594000000E+02  0.51100000000E-03 0. -1.
    9900012    2    1    2    0    0  0.15180383727E+02  0.16735410543E+02 -0.37055445660E+02  0.47787261881E+02  0.19999958222E+02 0.  0.
        -12    1    1    2    0    0 -0.15180383727E+02 -0.16735410543E+02  0.37055445660E+02  0.43400738119E+02  0.00000000000E+00 0.  1.
         11    1    3    3    0    0  0.18480655500E+01 -0.19550882719E+01  0.47368886168E+00  0.27316840642E+01  0.51100000000E-03 0.  1.
        -11    1    3    3    0    0  0.57577265981E+01  0.14863465657E+01 -0.68045779909E+01  0.90367540405E+01  0.51100000000E-03 0. -1.
        -12    1    3    3    0    0  0.75745915790E+01  0.17204152250E+02 -0.30724556531E+02  0.36018823777E+02  0.00000000000E+00 0.  1.
</event>
<event>
 7    1  0.4236733E-010  0.4778727E+02  0.7816164E-02  0.1312668E+00
        -11   -1    0    0    0    0  0.00000000000E+00  0.00000000000E+00  0.45593999997E+02  0.45594000000E+02  0.51100000000E-03 0. -1.
         11   -1    0    0    0    0 -0.00000000000E+00 -0.00000000000E+00 -0.45593999997E+02  0.45594000000E+02  0.51100000000E-03 0.  1.
    9900012    2    1    2    0    0  0.14086547290E+02 -0.11540025144E+02  0.39395685338E+02  0.47787273991E+02  0.20000013435E+02 0.  0.
        -12    1    1    2    0    0 -0.14086547290E+02  0.11540025144E+02 -0.39395685338E+02  0.43400726009E+02  0.00000000000E+00 0.  1.
         11    1    3    3    0    0  0.62803339382E+01 -0.68829666015E+01  0.20464968335E+02  0.22486279213E+02  0.51100000000E-03 0. -1.
        -11    1    3    3    0    0  0.73156054822E+01 -0.19820615750E+01  0.20708443698E+02  0.22051899971E+02  0.51100000000E-03 0.  1.
        -12    1    3    3    0    0  0.49060786972E+00 -0.26749969679E+01 -0.17777266962E+01  0.32490948073E+01  0.00000000000E+00 0.  1.
</event>
<event>
 7    1  0.4236733E-010  0.4778724E+02  0.7816164E-02  0.1312668E+00
        -11   -1    0    0    0    0  0.00000000000E+00  0.00000000000E+00  0.45593999997E+02  0.45594000000E+02  0.51100000000E-03 0.  1.
         11   -1    0    0    0    0 -0.00000000000E+00 -0.00000000000E+00 -0.45593999997E+02  0.45594000000E+02  0.51100000000E-03 0. -1.
    9900012    2    1    2    0    0  0.17753714496E+02  0.58136313716E+00 -0.39599165907E+02  0.47787236159E+02  0.19999840942E+02 0.  0.
        -12    1    1    2    0    0 -0.17753714496E+02 -0.58136313716E+00  0.39599165907E+02  0.43400763841E+02  0.00000000000E+00 0.  1.
         11    1    3    3    0    0  0.10162001701E+01  0.15315802749E+01 -0.76843381410E+00  0.19922077482E+01  0.51100000000E-03 0. -1.
        -11    1    3    3    0    0  0.15225725047E+02 -0.32718322114E+01 -0.14409029115E+02  0.21216684697E+02  0.51100000000E-03 0.  1.
         12    1    3    3    0    0  0.15117892782E+01  0.23216150736E+01 -0.24421702978E+02  0.24578343713E+02  0.00000000000E+00 0. -1.
</event>
<event>
 7    1  0.4236733E-010  0.4778727E+02  0.7816164E-02  0.1312668E+00
        -11   -1    0    0    0    0  0.00000000000E+00  0.00000000000E+00  0.45593999997E+02  0.45594000000E+02  0.51100000000E-03 0. -1.
         11   -1    0    0    0    0 -0.00000000000E+00 -0.00000000000E+00 -0.45593999997E+02  0.45594000000E+02  0.51100000000E-03 0.  1.
    9900012    2    1    2    0    0  0.56530982215E+01 -0.43017029370E+02 -0.10958474609E+01  0.47787271700E+02  0.20000002990E+02 0.  0.
        -12    1    1    2    0    0 -0.56530982215E+01  0.43017029370E+02  0.10958474609E+01  0.43400728300E+02  0.00000000000E+00 0.  1.
         11    1    3    3    0    0  0.16281306085E+01  0.53392656087E-02 -0.16944178021E+01  0.23498701529E+01  0.51100000000E-03 0. -1.
        -11    1    3    3    0    0  0.88071799548E+01 -0.28279546991E+02 -0.21474288406E+01  0.29696980447E+02  0.51100000000E-03 0.  1.
         12    1    3    3    0    0 -0.47822123418E+01 -0.14742821644E+02  0.27459991817E+01  0.15740421100E+02  0.00000000000E+00 0. -1.
</event>
<event>
 7    1  0.4236733E-010  0.4778727E+02  0.7816164E-02  0.1312668E+00
        -11   -1    0    0    0    0  0.00000000000E+00  0.00000000000E+00  0.45593999997E+02  0.45594000000E+02  0.51100000000E-03 0.  1.
         11   -1    0    0    0    0 -0.00000000000E+00 -0.00000000000E+00 -0.45593999997E+02  0.45594000000E+02  0.51100000000E-03 0. -1.
    9900012    2    1    2    0    0  0.31143610111E+02  0.63757110163E+00 -0.30220729614E+02  0.47787269061E+02  0.19999990957E+02 0.  0.
        -12    1    1    2    0    0 -0.31143610111E+02 -0.63757110163E+00  0.30220729614E+02  0.43400730939E+02  0.00000000000E+00 0.  1.
         11    1    3    3    0    0  0.20861954775E+02 -0.32993391710E+01 -0.15627174477E+02  0.26273853513E+02  0.51100000000E-03 0. -1.
        -11    1    3    3    0    0  0.12068921605E+02  0.46496372161E+01 -0.14708106729E+02  0.19585872428E+02  0.51100000000E-03 0.  1.
        -12    1    3    3    0    0 -0.17872662694E+01 -0.71272694352E+00  0.11455159216E+00  0.19275431204E+01  0.00000000000E+00 0.  1.
</event>
<event>
 7    1  0.4236733E-010  0.4778727E+02  0.7816164E-02  0.1312668E+00
        -11   -1    0    0    0    0  0.00000000000E+00  0.00000000000E+00  0.45593999997E+02  0.45594000000E+02  0.51100000000E-03 0.  1.
         11   -1    0    0    0    0 -0.00000000000E+00 -0.00000000000E+00 -0.45593999997E+02  0.45594000000E+02  0.51100000000E-03 0. -1.
    9900012    2    1    2    0    0 -0.47284857663E+01 -0.27499798860E+02 -0.33241925624E+02  0.47787272654E+02  0.20000007338E+02 0.  0.
        -12    1    1    2    0    0  0.47284857663E+01  0.27499798860E+02  0.33241925624E+02  0.43400727346E+02  0.00000000000E+00 0.  1.
         11    1    3    3    0    0 -0.18253216456E+01 -0.78006950913E+01 -0.11366195858E+01  0.80916344061E+01  0.51100000000E-03 0. -1.
        -11    1    3    3    0    0 -0.37030534118E+01 -0.70756622482E+00 -0.25359156072E+01  0.45435803901E+01  0.51100000000E-03 0.  1.
         12    1    3    3    0    0  0.79988929104E+00 -0.18991537543E+02 -0.29569390431E+02  0.35152057858E+02  0.00000000000E+00 0. -1.
</event>
<event>
 7    1  0.4236733E-010  0.4778727E+02  0.7816164E-02  0.1312668E+00
        -11   -1    0    0    0    0  0.00000000000E+00  0.00000000000E+00  0.45593999997E+02  0.45594000000E+02  0.51100000000E-03 0.  1.
         11   -1    0    0    0    0 -0.00000000000E+00 -0.00000000000E+00 -0.45593999997E+02  0.45594000000E+02  0.51100000000E-03 0. -1.
    9900012    2    1    2    0    0 -0.93963311594E+01 -0.18802442139E+02 -0.37971044915E+02  0.47787272799E+02  0.20000007999E+02 0.  0.
        -12    1    1    2    0    0  0.93963311594E+01  0.18802442139E+02  0.37971044915E+02  0.43400727201E+02  0.00000000000E+00 0.  1.
         11    1    3    3    0    0 -0.12596130088E+01 -0.64685857111E+01 -0.10708692382E+02  0.12573993751E+02  0.51100000000E-03 0. -1.
        -11    1    3    3    0    0 -0.11995709585E+02 -0.39558224808E+01 -0.19085477705E+02  0.22886700056E+02  0.51100000000E-03 0.  1.
        -12    1    3    3    0    0  0.38589914347E+01 -0.83780339469E+01 -0.81768748274E+01  0.12326578992E+02  0.00000000000E+00 0.  1.
</event>
<event>
 7    1  0.4236733E-010  0.4778727E+02  0.7816164E-02  0.1312668E+00
        -11   -1    0    0    0    0  0.00000000000E+00  0.00000000000E+00  0.45593999997E+02  0.45594000000E+02  0.51100000000E-03 0.  1.
         11   -1    0    0    0    0 -0.00000000000E+00 -0.00000000000E+00 -0.45593999997E+02  0.45594000000E+02  0.51100000000E-03 0. -1.
    9900012    2    1    2    0    0  0.23094775107E+02 -0.10210394660E+02 -0.35298757398E+02  0.47787273391E+02  0.20000010700E+02 0.  0.
        -12    1    1    2    0    0 -0.23094775107E+02  0.10210394660E+02  0.35298757398E+02  0.43400726609E+02  0.00000000000E+00 0.  1.
         11    1    3    3    0    0  0.12163487896E+02 -0.84608052882E+01 -0.32063365248E+02  0.35321311629E+02  0.51100000000E-03 0. -1.
        -11    1    3    3    0    0  0.17338966600E+00 -0.12568538154E+01 -0.38682210064E+00  0.13264151267E+01  0.51100000000E-03 0.  1.
         12    1    3    3    0    0  0.10757897545E+02 -0.49273555597E+00 -0.28485700493E+01  0.11139546635E+02  0.00000000000E+00 0. -1.
</event>
<event>
 7    1  0.4236733E-010  0.4778728E+02  0.7816164E-02  0.1312668E+00
        -11   -1    0    0    0    0  0.00000000000E+00  0.00000000000E+00  0.45593999997E+02  0.45594000000E+02  0.51100000000E-03 0.  1.
         11   -1    0    0    0    0 -0.00000000000E+00 -0.00000000000E+00 -0.45593999997E+02  0.45594000000E+02  0.51100000000E-03 0. -1.
    9900012    2    1    2    0    0  0.24222491908E+02  0.35024053109E+02 -0.83790961714E+01  0.47787278082E+02  0.20000032085E+02 0.  0.
        -12    1    1    2    0    0 -0.24222491908E+02 -0.35024053109E+02  0.83790961714E+01  0.43400721918E+02  0.00000000000E+00 0.  1.
         11    1    3    3    0    0  0.80367879965E+01  0.80494355547E+01 -0.21395672699E+01  0.11574157525E+02  0.51100000000E-03 0. -1.
        -11    1    3    3    0    0  0.13972518340E+02  0.99638133375E+01  0.18246684304E+01  0.17257991196E+02  0.51100000000E-03 0.  1.
         12    1    3    3    0    0  0.22131855715E+01  0.17010804217E+02 -0.80641973319E+01  0.18955129361E+02  0.00000000000E+00 0. -1.
</event>
<event>
 7    1  0.4236733E-010  0.4778727E+02  0.7816164E-02  0.1312668E+00
        -11   -1    0    0    0    0  0.00000000000E+00  0.00000000000E+00  0.45593999997E+02  0.45594000000E+02  0.51100000000E-03 0.  1.
         11   -1    0    0    0    0 -0.00000000000E+00 -0.00000000000E+00 -0.45593999997E+02  0.45594000000E+02  0.51100000000E-03 0. -1.
    9900012    2    1    2    0    0  0.10193387356E+01  0.43406888318E+01 -0.43171087217E+02  0.47787269563E+02  0.19999993245E+02 0.  0.
        -12    1    1    2    0    0 -0.10193387356E+01 -0.43406888318E+01  0.43171087217E+02  0.43400730437E+02  0.00000000000E+00 0.  1.
         11    1    3    3    0    0  0.14621271356E-01 -0.21805482508E-01 -0.25925475172E+02  0.25925488471E+02  0.51100000000E-03 0. -1.
        -11    1    3    3    0    0 -0.29708438322E+01 -0.15690575282E+01 -0.13270661299E+02  0.13689350101E+02  0.51100000000E-03 0.  1.
        -12    1    3    3    0    0  0.39755612965E+01  0.59315518425E+01 -0.39749507453E+01  0.81724309914E+01  0.00000000000E+00 0.  1.
</event>
<event>
 7    1  0.4236733E-010  0.4778727E+02  0.7816164E-02  0.1312668E+00
        -11   -1    0    0    0    0  0.00000000000E+00  0.00000000000E+00  0.45593999997E+02  0.45594000000E+02  0.51100000000E-03 0. -1.
         11   -1    0    0    0    0 -0.00000000000E+00 -0.00000000000E+00 -0.45593999997E+02  0.45594000000E+02  0.51100000000E-03 0.  1.
    9900012    2    1    2    0    0  0.22255339447E+02  0.10607671796E+01  0.37245105314E+02  0.47787271541E+02  0.20000002264E+02 0.  0.
        -12    1    1    2    0    0 -0.22255339447E+02 -0.10607671796E+01 -0.37245105314E+02  0.43400728459E+02  0.00000000000E+00 0.  1.
         11    1    3    3    0    0 -0.11015078408E+01  0.69453067177E+00  0.55746005594E+01  0.57246715221E+01  0.51100000000E-03 0. -1.
        -11    1    3    3    0    0  0.10017279054E+02  0.71275751629E+01  0.18018865635E+02  0.21813475797E+02  0.51100000000E-03 0.  1.
        -12    1    3    3    0    0  0.13339568234E+02 -0.67613386551E+01  0.13651639120E+02  0.20249124222E+02  0.00000000000E+00 0.  1.
</event>
<event>
 7    1  0.4236733E-010  0.4778727E+02  0.7816164E-02  0.1312668E+00
        -11   -1    0    0    0    0  0.00000000000E+00  0.00000000000E+00  0.45593999997E+02  0.45594000000E+02  0.51100000000E-03 0. -1.
         11   -1    0    0    0    0 -0.00000000000E+00 -0.00000000000E+00 -0.45593999997E+02  0.45594000000E+02  0.51100000000E-03 0.  1.
    9900012    2    1    2    0    0  0.12054729693E+02 -0.24503426131E+02  0.33732607451E+02  0.47787271832E+02  0.20000003589E+02 0.  0.
        -12    1    1    2    0    0 -0.12054729693E+02  0.24503426131E+02 -0.33732607451E+02  0.43400728168E+02  0.00000000000E+00 0.  1.
         11    1    3    3    0    0  0.19760464210E+01 -0.14088302611E+02  0.14693405292E+02  0.20451923852E+02  0.51100000000E-03 0. -1.
        -11    1    3    3    0    0  0.61016488360E+01 -0.90317059256E+01  0.20212608180E+02  0.22964132035E+02  0.51100000000E-03 0.  1.
        -12    1    3    3    0    0  0.39770344362E+01 -0.13834175940E+01 -0.11734060202E+01  0.43712159446E+01  0.00000000000E+00 0.  1.
</event>
<event>
 7    1  0.4236733E-010  0.4778727E+02  0.7816164E-02  0.1312668E+00
        -11   -1    0    0    0    0  0.00000000000E+00  0.00000000000E+00  0.45593999997E+02  0.45594000000E+02  0.51100000000E-03 0.  1.
         11   -1    0    0    0    0 -0.00000000000E+00 -0.00000000000E+00 -0.45593999997E+02  0.45594000000E+02  0.51100000000E-03 0. -1.
    9900012    2    1    2    0    0  0.54134904764E+01  0.17024299008E+02 -0.39553645334E+02  0.47787268496E+02  0.19999988382E+02 0.  0.
        -12    1    1    2    0    0 -0.54134904764E+01 -0.17024299008E+02  0.39553645334E+02  0.43400731504E+02  0.00000000000E+00 0.  1.
         11    1    3    3    0    0  0.82040977687E+01  0.48328746397E+01 -0.18810083686E+02  0.21082768937E+02  0.51100000000E-03 0. -1.
        -11    1    3    3    0    0  0.18839314767E+01  0.11839831228E+02 -0.16391940459E+02  0.20308286820E+02  0.51100000000E-03 0.  1.
        -12    1    3    3    0    0 -0.46745387690E+01  0.35159314084E+00 -0.43516211887E+01  0.63962127396E+01  0.00000000000E+00 0.  1.
</event>
<event>
 7    1  0.4605206E-010  0.4778727E+02  0.7816164E-02  0.1312668E+00
        -11   -1    0    0    0    0  0.00000000000E+00  0.00000000000E+00  0.45593999997E+02  0.45594000000E+02  0.51100000000E-03 0.  1.
         11   -1    0    0    0    0 -0.00000000000E+00 -0.00000000000E+00 -0.45593999997E+02  0.45594000000E+02  0.51100000000E-03 0. -1.
    9900012    2    1    2    0    0  0.27331044352E+02  0.29772809866E+02  0.15818263755E+02  0.47787266585E+02  0.19999979670E+02 0.  0.
        -12    1    1    2    0    0 -0.27331044352E+02 -0.29772809866E+02 -0.15818263755E+02  0.43400733415E+02  0.00000000000E+00 0.  1.
         11    1    3    3    0    0  0.19473834226E+02  0.17234301123E+02  0.52863259516E+01  0.26536702828E+02  0.51100000000E-03 0. -1.
        -11    1    3    3    0    0  0.31931910769E+01 -0.13514003351E+01  0.52391207845E+00  0.35067415426E+01  0.51100000000E-03 0.  1.
        -12    1    3    3    0    0  0.46640190500E+01  0.13889909078E+02  0.10008025725E+02  0.17743822215E+02  0.00000000000E+00 0.  1.
</event>
<event>
 7    1  0.4236733E-010  0.4778727E+02  0.7816164E-02  0.1312668E+00
        -11   -1    0    0    0    0  0.00000000000E+00  0.00000000000E+00  0.45593999997E+02  0.45594000000E+02  0.51100000000E-03 0. -1.
         11   -1    0    0    0    0 -0.00000000000E+00 -0.00000000000E+00 -0.45593999997E+02  0.45594000000E+02  0.51100000000E-03 0.  1.
    9900012    2    1    2    0    0 -0.29618912195E+02 -0.30110243107E+02 -0.99858264297E+01  0.47787269257E+02  0.19999991851E+02 0.  0.
        -12    1    1    2    0    0  0.29618912195E+02  0.30110243107E+02  0.99858264297E+01  0.43400730743E+02  0.00000000000E+00 0.  1.
         11    1    3    3    0    0 -0.16834847686E+01 -0.44941555465E+00 -0.19174659220E+01  0.25909016056E+01  0.51100000000E-03 0. -1.
        -11    1    3    3    0    0 -0.36921442129E+01 -0.10125493233E+02  0.44222957561E+01  0.11649645579E+02  0.51100000000E-03 0.  1.
         12    1    3    3    0    0 -0.24243283213E+02 -0.19535334319E+02 -0.12490656264E+02  0.33546722073E+02  0.00000000000E+00 0. -1.
</event>
<event>
 7    1  0.4236733E-010  0.4778727E+02  0.7816164E-02  0.1312668E+00
        -11   -1    0    0    0    0  0.00000000000E+00  0.00000000000E+00  0.45593999997E+02  0.45594000000E+02  0.51100000000E-03 0. -1.
         11   -1    0    0    0    0 -0.00000000000E+00 -0.00000000000E+00 -0.45593999997E+02  0.45594000000E+02  0.51100000000E-03 0.  1.
    9900012    2    1    2    0    0 -0.19730734195E+02 -0.34476272121E+02  0.17484503760E+02  0.47787273244E+02  0.20000010028E+02 0.  0.
        -12    1    1    2    0    0  0.19730734195E+02  0.34476272121E+02 -0.17484503760E+02  0.43400726756E+02  0.00000000000E+00 0.  1.
         11    1    3    3    0    0  0.11853265625E+01 -0.25536041945E+00 -0.53045814962E+00  0.13234780365E+01  0.51100000000E-03 0. -1.
        -11    1    3    3    0    0 -0.56552530892E+01 -0.89916279196E+01 -0.20237669916E+01  0.10813273937E+02  0.51100000000E-03 0.  1.
         12    1    3    3    0    0 -0.15260807668E+02 -0.25229283782E+02  0.20038728901E+02  0.35650521270E+02  0.00000000000E+00 0. -1.
</event>
<event>
 7    1  0.4236733E-010  0.4778728E+02  0.7816164E-02  0.1312668E+00
        -11   -1    0    0    0    0  0.00000000000E+00  0.00000000000E+00  0.45593999997E+02  0.45594000000E+02  0.51100000000E-03 0.  1.
         11   -1    0    0    0    0 -0.00000000000E+00 -0.00000000000E+00 -0.45593999997E+02  0.45594000000E+02  0.51100000000E-03 0. -1.
    9900012    2    1    2    0    0 -0.21990620858E+02 -0.17613505580E+02 -0.33012116686E+02  0.47787276127E+02  0.20000023175E+02 0.  0.
        -12    1    1    2    0    0  0.21990620858E+02  0.17613505580E+02  0.33012116686E+02  0.43400723873E+02  0.00000000000E+00 0.  1.
         11    1    3    3    0    0 -0.32642734217E+01 -0.73458681734E+01 -0.11878271372E+02  0.14342614519E+02  0.51100000000E-03 0. -1.
        -11    1    3    3    0    0 -0.48002582149E+00 -0.24488921393E+01  0.18266809570E+01  0.30926139557E+01  0.51100000000E-03 0.  1.
         12    1    3    3    0    0 -0.18246321615E+02 -0.78187452678E+01 -0.22960526271E+02  0.30352047652E+02  0.00000000000E+00 0. -1.
</event>
<event>
 7    1  0.4236733E-010  0.4778727E+02  0.7816164E-02  0.1312668E+00
        -11   -1    0    0    0    0  0.00000000000E+00  0.00000000000E+00  0.45593999997E+02  0.45594000000E+02  0.51100000000E-03 0.  1.
         11   -1    0    0    0    0 -0.00000000000E+00 -0.00000000000E+00 -0.45593999997E+02  0.45594000000E+02  0.51100000000E-03 0. -1.
    9900012    2    1    2    0    0  0.18907848333E+01  0.36203484415E+02 -0.23861178484E+02  0.47787272014E+02  0.20000004421E+02 0.  0.
        -12    1    1    2    0    0 -0.18907848333E+01 -0.36203484415E+02  0.23861178484E+02  0.43400727986E+02  0.00000000000E+00 0.  1.
         11    1    3    3    0    0  0.42141326450E-02  0.13051761642E+02 -0.38971668495E+01  0.13621175038E+02  0.51100000000E-03 0. -1.
        -11    1    3    3    0    0 -0.59001632403E+01  0.15422419152E+02 -0.97506632660E+01  0.19176505760E+02  0.51100000000E-03 0.  1.
        -12    1    3    3    0    0  0.77867339409E+01  0.77293036210E+01 -0.10213348368E+02  0.14989591216E+02  0.00000000000E+00 0.  1.
</event>
<event>
 7    1  0.4236733E-010  0.4778727E+02  0.7816164E-02  0.1312668E+00
        -11   -1    0    0    0    0  0.00000000000E+00  0.00000000000E+00  0.45593999997E+02  0.45594000000E+02  0.51100000000E-03 0.  1.
         11   -1    0    0    0    0 -0.00000000000E+00 -0.00000000000E+00 -0.45593999997E+02  0.45594000000E+02  0.51100000000E-03 0. -1.
    9900012    2    1    2    0    0  0.35221429410E+02 -0.56484992921E+01 -0.24721820135E+02  0.47787273915E+02  0.20000013086E+02 0.  0.
        -12    1    1    2    0    0 -0.35221429410E+02  0.56484992921E+01  0.24721820135E+02  0.43400726085E+02  0.00000000000E+00 0.  1.
         11    1    3    3    0    0  0.24304170027E+02  0.39955117249E+00 -0.13333827060E+02  0.27724416426E+02  0.51100000000E-03 0. -1.
        -11    1    3    3    0    0  0.71375717559E+01 -0.44921988902E+00 -0.39801846946E+00  0.71627612024E+01  0.51100000000E-03 0.  1.
        -12    1    3    3    0    0  0.37796876279E+01 -0.55988305756E+01 -0.10989974605E+02  0.12900096286E+02  0.00000000000E+00 0.  1.
</event>
<event>
 7    1  0.4236733E-010  0.4778727E+02  0.7816164E-02  0.1312668E+00
        -11   -1    0    0    0    0  0.00000000000E+00  0.00000000000E+00  0.45593999997E+02  0.45594000000E+02  0.51100000000E-03 0.  1.
         11   -1    0    0    0    0 -0.00000000000E+00 -0.00000000000E+00 -0.45593999997E+02  0.45594000000E+02  0.51100000000E-03 0. -1.
    9900012    2    1    2    0    0 -0.42933571878E+02 -0.62746808824E+01  0.97988877957E+00  0.47787269633E+02  0.19999993566E+02 0.  0.
        -12    1    1    2    0    0  0.42933571878E+02  0.62746808824E+01 -0.97988877957E+00  0.43400730367E+02  0.00000000000E+00 0.  1.
         11    1    3    3    0    0 -0.11369140182E+02 -0.63476704154E+01 -0.36425802837E+01  0.13521045062E+02  0.51100000000E-03 0. -1.
        -11    1    3    3    0    0 -0.15003923284E+02  0.61949345029E+01  0.11587114877E+01  0.16273829911E+02  0.51100000000E-03 0.  1.
         12    1    3    3    0    0 -0.16560508412E+02 -0.61219449699E+01  0.34637575756E+01  0.17992394661E+02  0.00000000000E+00 0. -1.
</event>
<event>
 7    1  0.4236733E-010  0.4778727E+02  0.7816164E-02  0.1312668E+00
        -11   -1    0    0    0    0  0.00000000000E+00  0.00000000000E+00  0.45593999997E+02  0.45594000000E+02  0.51100000000E-03 0.  1.
         11   -1    0    0    0    0 -0.00000000000E+00 -0.00000000000E+00 -0.45593999997E+02  0.45594000000E+02  0.51100000000E-03 0. -1.
    9900012    2    1    2    0    0  0.10740266968E+02  0.23668785159E+02 -0.34757141157E+02  0.47787267439E+02  0.19999983561E+02 0.  0.
        -12    1    1    2    0    0 -0.10740266968E+02 -0.23668785159E+02  0.34757141157E+02  0.43400732561E+02  0.00000000000E+00 0.  1.
         11    1    3    3    0    0  0.55402512968E+00  0.22889425007E+01 -0.12885408821E+02  0.13098853475E+02  0.51100000000E-03 0. -1.
        -11    1    3    3    0    0  0.83650953298E+01  0.14975863371E+02 -0.22160932832E+02  0.28024243929E+02  0.51100000000E-03 0.  1.
        -12    1    3    3    0    0  0.18211465087E+01  0.64039792877E+01  0.28920049601E+00  0.66641700346E+01  0.00000000000E+00 0.  1.
</event>
<event>
 7    1  0.4236733E-010  0.4778727E+02  0.7816164E-02  0.1312668E+00
        -11   -1    0    0    0    0  0.00000000000E+00  0.00000000000E+00  0.45593999997E+02  0.45594000000E+02  0.51100000000E-03 0.  1.
         11   -1    0    0    0    0 -0.00000000000E+00 -0.00000000000E+00 -0.45593999997E+02  0.45594000000E+02  0.51100000000E-03 0. -1.
    9900012    2    1    2    0    0 -0.42244313067E+01 -0.42044289135E+02 -0.99022817974E+01  0.47787271279E+02  0.20000001071E+02 0.  0.
        -12    1    1    2    0    0  0.42244313067E+01  0.42044289135E+02  0.99022817974E+01  0.43400728721E+02  0.00000000000E+00 0.  1.
         11    1    3    3    0    0 -0.26483447675E+01 -0.16091952238E+02  0.27155542146E+01  0.16532963794E+02  0.51100000000E-03 0. -1.
        -11    1    3    3    0    0  0.31346319454E+01 -0.19053992027E+01 -0.36110616685E+01  0.51474489011E+01  0.51100000000E-03 0.  1.
         12    1    3    3    0    0 -0.47107184846E+01 -0.24046937693E+02 -0.90067743435E+01  0.26106858584E+02  0.00000000000E+00 0. -1.
</event>
<event>
 7    1  0.4236733E-010  0.4778727E+02  0.7816164E-02  0.1312668E+00
        -11   -1    0    0    0    0  0.00000000000E+00  0.00000000000E+00  0.45593999997E+02  0.45594000000E+02  0.51100000000E-03 0.  1.
         11   -1    0    0    0    0 -0.00000000000E+00 -0.00000000000E+00 -0.45593999997E+02  0.45594000000E+02  0.51100000000E-03 0. -1.
    9900012    2    1    2    0    0 -0.19725872591E+02  0.16701064595E+02 -0.34865276814E+02  0.47787272640E+02  0.20000007273E+02 0.  0.
        -12    1    1    2    0    0  0.19725872591E+02 -0.16701064595E+02  0.34865276814E+02  0.43400727360E+02  0.00000000000E+00 0.  1.
         11    1    3    3    0    0 -0.19924774750E+01 -0.35633168615E+01 -0.65894638727E+01  0.77516596890E+01  0.51100000000E-03 0. -1.
        -11    1    3    3    0    0 -0.34146166762E+01  0.27765917906E+01 -0.10150757596E+02  0.11063767398E+02  0.51100000000E-03 0.  1.
        -12    1    3    3    0    0 -0.14318778440E+02  0.17487789666E+02 -0.18125055345E+02  0.28971845552E+02  0.00000000000E+00 0.  1.
</event>
<event>
 7    1  0.4236733E-010  0.4778727E+02  0.7816164E-02  0.1312668E+00
        -11   -1    0    0    0    0  0.00000000000E+00  0.00000000000E+00  0.45593999997E+02  0.45594000000E+02  0.51100000000E-03 0. -1.
         11   -1    0    0    0    0 -0.00000000000E+00 -0.00000000000E+00 -0.45593999997E+02  0.45594000000E+02  0.51100000000E-03 0.  1.
    9900012    2    1    2    0    0  0.13513624048E+01  0.39085864417E+02  0.18817333335E+02  0.47787274068E+02  0.20000013788E+02 0.  0.
        -12    1    1    2    0    0 -0.13513624048E+01 -0.39085864417E+02 -0.18817333335E+02  0.43400725932E+02  0.00000000000E+00 0.  1.
         11    1    3    3    0    0  0.56133014162E+01  0.17182823651E+02  0.10727896915E+02  0.21020141624E+02  0.51100000000E-03 0. -1.
        -11    1    3    3    0    0 -0.34449550122E+01  0.89414079073E+01  0.97543781337E+01  0.13673491999E+02  0.51100000000E-03 0.  1.
         12    1    3    3    0    0 -0.81698399921E+00  0.12961632858E+02 -0.16649417139E+01  0.13093640446E+02  0.00000000000E+00 0. -1.
</event>
<event>
 7    1  0.4236733E-010  0.4778727E+02  0.7816164E-02  0.1312668E+00
        -11   -1    0    0    0    0  0.00000000000E+00  0.00000000000E+00  0.45593999997E+02  0.45594000000E+02  0.51100000000E-03 0. -1.
         11   -1    0    0    0    0 -0.00000000000E+00 -0.00000000000E+00 -0.45593999997E+02  0.45594000000E+02  0.51100000000E-03 0.  1.
    9900012    2    1    2    0    0 -0.33852017764E+02 -0.22528394918E+02 -0.15170219236E+02  0.47787271481E+02  0.20000001991E+02 0.  0.
        -12    1    1    2    0    0  0.33852017764E+02  0.22528394918E+02  0.15170219236E+02  0.43400728519E+02  0.00000000000E+00 0.  1.
         11    1    3    3    0    0  0.16330941110E+01 -0.12655723983E+01  0.14889616657E+01  0.25466992311E+01  0.51100000000E-03 0. -1.
        -11    1    3    3    0    0 -0.75552256469E+01 -0.14605022305E+01 -0.44625826330E+01  0.88954564446E+01  0.51100000000E-03 0.  1.
         12    1    3    3    0    0 -0.27929886229E+02 -0.19802320289E+02 -0.12196598269E+02  0.36345115805E+02  0.00000000000E+00 0. -1.
</event>
<event>
 7    1  0.4236733E-010  0.4778727E+02  0.7816164E-02  0.1312668E+00
        -11   -1    0    0    0    0  0.00000000000E+00  0.00000000000E+00  0.45593999997E+02  0.45594000000E+02  0.51100000000E-03 0. -1.
         11   -1    0    0    0    0 -0.00000000000E+00 -0.00000000000E+00 -0.45593999997E+02  0.45594000000E+02  0.51100000000E-03 0.  1.
    9900012    2    1    2    0    0  0.56545027019E+01 -0.38305570833E+02  0.19604414299E+02  0.47787271692E+02  0.20000002953E+02 0.  0.
        -12    1    1    2    0    0 -0.56545027019E+01  0.38305570833E+02 -0.19604414299E+02  0.43400728308E+02  0.00000000000E+00 0.  1.
         11    1    3    3    0    0 -0.14822126492E+01 -0.96191108207E+01  0.67715870584E+01  0.11856586308E+02  0.51100000000E-03 0. -1.
        -11    1    3    3    0    0  0.68828724217E+01 -0.27988562415E+02  0.15802036437E+02  0.32870015435E+02  0.51100000000E-03 0.  1.
        -12    1    3    3    0    0  0.25384292937E+00 -0.69789759711E+00 -0.29692091966E+01  0.30606699499E+01  0.00000000000E+00 0.  1.
</event>
<event>
 7    1  0.4236733E-010  0.4778728E+02  0.7816164E-02  0.1312668E+00
        -11   -1    0    0    0    0  0.00000000000E+00  0.00000000000E+00  0.45593999997E+02  0.45594000000E+02  0.51100000000E-03 0. -1.
         11   -1    0    0    0    0 -0.00000000000E+00 -0.00000000000E+00 -0.45593999997E+02  0.45594000000E+02  0.51100000000E-03 0.  1.
    9900012    2    1    2    0    0 -0.23996872531E+02 -0.30067731573E+01  0.36037923962E+02  0.47787279504E+02  0.20000038571E+02 0.  0.
        -12    1    1    2    0    0  0.23996872531E+02  0.30067731573E+01 -0.36037923962E+02  0.43400720496E+02  0.00000000000E+00 0.  1.
         11    1    3    3    0    0 -0.61967131393E+01 -0.24532674178E+01  0.50192052826E+01  0.83432725404E+01  0.51100000000E-03 0. -1.
        -11    1    3    3    0    0 -0.12916881337E+02  0.48940499197E+01  0.28561847559E+02  0.31726592700E+02  0.51100000000E-03 0.  1.
        -12    1    3    3    0    0 -0.48832780553E+01 -0.54475556592E+01  0.24568711199E+01  0.77174142642E+01  0.00000000000E+00 0.  1.
</event>
<event>
 7    1  0.4236733E-010  0.4778727E+02  0.7816164E-02  0.1312668E+00
        -11   -1    0    0    0    0  0.00000000000E+00  0.00000000000E+00  0.45593999997E+02  0.45594000000E+02  0.51100000000E-03 0.  1.
         11   -1    0    0    0    0 -0.00000000000E+00 -0.00000000000E+00 -0.45593999997E+02  0.45594000000E+02  0.51100000000E-03 0. -1.
    9900012    2    1    2    0    0 -0.38900982720E+02  0.19238763950E+02  0.45463827115E+00  0.47787272001E+02  0.20000004362E+02 0.  0.
        -12    1    1    2    0    0  0.38900982720E+02 -0.19238763950E+02 -0.45463827115E+00  0.43400727999E+02  0.00000000000E+00 0.  1.
         11    1    3    3    0    0 -0.34860986844E+01 -0.13707460392E+01 -0.60668131308E-01  0.37463995549E+01  0.51100000000E-03 0. -1.
        -11    1    3    3    0    0 -0.21642850216E+02  0.14017032564E+02  0.80521072390E+01  0.27013452179E+02  0.51100000000E-03 0.  1.
        -12    1    3    3    0    0 -0.13772033819E+02  0.65924774251E+01 -0.75368008366E+01  0.17027420268E+02  0.00000000000E+00 0.  1.
</event>
<event>
 7    1  0.4236733E-010  0.4778732E+02  0.7816164E-02  0.1312668E+00
        -11   -1    0    0    0    0  0.00000000000E+00  0.00000000000E+00  0.45593999997E+02  0.45594000000E+02  0.51100000000E-03 0. -1.
         11   -1    0    0    0    0 -0.00000000000E+00 -0.00000000000E+00 -0.45593999997E+02  0.45594000000E+02  0.51100000000E-03 0.  1.
    9900012    2    1    2    0    0 -0.15812640261E+01  0.43353043104E+02  0.12776570440E+01  0.47787318556E+02  0.20000216621E+02 0.  0.
        -12    1    1    2    0    0  0.15812640261E+01 -0.43353043104E+02 -0.12776570440E+01  0.43400681444E+02  0.00000000000E+00 0.  1.
         11    1    3    3    0    0  0.81576351814E+00 -0.63499983140E+00 -0.98443363663E+00  0.14275169875E+01  0.51100000000E-03 0.  1.
        -11    1    3    3    0    0  0.30753765914E+01  0.11216014242E+02  0.57090330730E+01  0.12955692785E+02  0.51100000000E-03 0. -1.
         12    1    3    3    0    0 -0.54724041357E+01  0.32772028694E+02 -0.34469423924E+01  0.33404108783E+02  0.00000000000E+00 0. -1.
</event>
<event>
 7    1  0.4236733E-010  0.4778727E+02  0.7816164E-02  0.1312668E+00
        -11   -1    0    0    0    0  0.00000000000E+00  0.00000000000E+00  0.45593999997E+02  0.45594000000E+02  0.51100000000E-03 0.  1.
         11   -1    0    0    0    0 -0.00000000000E+00 -0.00000000000E+00 -0.45593999997E+02  0.45594000000E+02  0.51100000000E-03 0. -1.
    9900012    2    1    2    0    0 -0.60037878083E+01 -0.19026482841E+02 -0.38543101916E+02  0.47787271634E+02  0.20000002688E+02 0.  0.
        -12    1    1    2    0    0  0.60037878083E+01  0.19026482841E+02  0.38543101916E+02  0.43400728366E+02  0.00000000000E+00 0.  1.
         11    1    3    3    0    0 -0.22646789709E+01 -0.38477757095E+01 -0.19843160859E+02  0.20339252245E+02  0.51100000000E-03 0. -1.
        -11    1    3    3    0    0 -0.14591847099E+01 -0.67101408765E+01 -0.17239931553E+02  0.18557220988E+02  0.51100000000E-03 0.  1.
        -12    1    3    3    0    0 -0.22799241276E+01 -0.84685662554E+01 -0.14600095045E+01  0.88907984007E+01  0.00000000000E+00 0.  1.
</event>
<event>
 7    1  0.5842438E-010  0.4778726E+02  0.7816164E-02  0.1312668E+00
        -11   -1    0    0    0    0  0.00000000000E+00  0.00000000000E+00  0.45593999997E+02  0.45594000000E+02  0.51100000000E-03 0. -1.
         11   -1    0    0    0    0 -0.00000000000E+00 -0.00000000000E+00 -0.45593999997E+02  0.45594000000E+02  0.51100000000E-03 0.  1.
    9900012    2    1    2    0    0 -0.11156688999E+02  0.34356737260E+02  0.24057582402E+02  0.47787258352E+02  0.19999942129E+02 0.  0.
        -12    1    1    2    0    0  0.11156688999E+02 -0.34356737260E+02 -0.24057582402E+02  0.43400741648E+02  0.00000000000E+00 0.  1.
         11    1    3    3    0    0 -0.44817272228E+01  0.10542850548E+02  0.12751905806E+02  0.17142015008E+02  0.51100000000E-03 0. -1.
        -11    1    3    3    0    0 -0.77702870268E+01  0.24227114183E+02  0.13011200756E+02  0.28576594749E+02  0.51100000000E-03 0.  1.
        -12    1    3    3    0    0  0.10953252507E+01 -0.41322747027E+00 -0.17055241602E+01  0.20686485946E+01  0.00000000000E+00 0.  1.
</event>
<event>
 7    1  0.4236733E-010  0.4778727E+02  0.7816164E-02  0.1312668E+00
        -11   -1    0    0    0    0  0.00000000000E+00  0.00000000000E+00  0.45593999997E+02  0.45594000000E+02  0.51100000000E-03 0. -1.
         11   -1    0    0    0    0 -0.00000000000E+00 -0.00000000000E+00 -0.45593999997E+02  0.45594000000E+02  0.51100000000E-03 0.  1.
    9900012    2    1    2    0    0 -0.11785985959E+02  0.40155965749E+02 -0.11498348199E+02  0.47787273490E+02  0.20000011151E+02 0.  0.
        -12    1    1    2    0    0  0.11785985959E+02 -0.40155965749E+02  0.11498348199E+02  0.43400726510E+02  0.00000000000E+00 0.  1.
         11    1    3    3    0    0 -0.22224047165E+01  0.15538035842E+02 -0.91445906265E-01  0.15696432817E+02  0.51100000000E-03 0. -1.
        -11    1    3    3    0    0 -0.14288445956E+01  0.20411128621E+02 -0.10171284592E+02  0.22849743959E+02  0.51100000000E-03 0.  1.
        -12    1    3    3    0    0 -0.81347366473E+01  0.42068012857E+01 -0.12356177000E+01  0.92410967141E+01  0.00000000000E+00 0.  1.
</event>
<event>
 7    1  0.4236733E-010  0.4778727E+02  0.7816164E-02  0.1312668E+00
        -11   -1    0    0    0    0  0.00000000000E+00  0.00000000000E+00  0.45593999997E+02  0.45594000000E+02  0.51100000000E-03 0.  1.
         11   -1    0    0    0    0 -0.00000000000E+00 -0.00000000000E+00 -0.45593999997E+02  0.45594000000E+02  0.51100000000E-03 0. -1.
    9900012    2    1    2    0    0  0.30058879717E+01 -0.21362372233E+02 -0.37659485389E+02  0.47787272475E+02  0.20000006523E+02 0.  0.
        -12    1    1    2    0    0 -0.30058879717E+01  0.21362372233E+02  0.37659485389E+02  0.43400727525E+02  0.00000000000E+00 0.  1.
         11    1    3    3    0    0  0.15768897589E+01 -0.53947576033E+01 -0.36172744249E+01  0.66839109387E+01  0.51100000000E-03 0. -1.
        -11    1    3    3    0    0  0.50578303831E+00 -0.12578070047E+02 -0.81999460949E+01  0.15023407696E+02  0.51100000000E-03 0.  1.
        -12    1    3    3    0    0  0.92321517445E+00 -0.33895445825E+01 -0.25842264869E+02  0.26079953840E+02  0.00000000000E+00 0.  1.
</event>
<event>
 7    1  0.4236733E-010  0.4778726E+02  0.7816164E-02  0.1312668E+00
        -11   -1    0    0    0    0  0.00000000000E+00  0.00000000000E+00  0.45593999997E+02  0.45594000000E+02  0.51100000000E-03 0. -1.
         11   -1    0    0    0    0 -0.00000000000E+00 -0.00000000000E+00 -0.45593999997E+02  0.45594000000E+02  0.51100000000E-03 0.  1.
    9900012    2    1    2    0    0 -0.38380811668E+02 -0.20112981646E+02  0.24505284009E+01  0.47787264702E+02  0.19999971082E+02 0.  0.
        -12    1    1    2    0    0  0.38380811668E+02  0.20112981646E+02 -0.24505284009E+01  0.43400735298E+02  0.00000000000E+00 0.  1.
         11    1    3    3    0    0 -0.83563805859E+01  0.15512795677E+01  0.19224262281E+00  0.85013247368E+01  0.51100000000E-03 0. -1.
        -11    1    3    3    0    0  0.46980971252E+00 -0.24810560695E+01  0.20604294222E+01  0.32590995767E+01  0.51100000000E-03 0.  1.
         12    1    3    3    0    0 -0.30494240794E+02 -0.19183205144E+02  0.19785635590E+00  0.36026840388E+02  0.00000000000E+00 0. -1.
</event>
<event>
 7    1  0.4236733E-010  0.4778727E+02  0.7816164E-02  0.1312668E+00
        -11   -1    0    0    0    0  0.00000000000E+00  0.00000000000E+00  0.45593999997E+02  0.45594000000E+02  0.51100000000E-03 0.  1.
         11   -1    0    0    0    0 -0.00000000000E+00 -0.00000000000E+00 -0.45593999997E+02  0.45594000000E+02  0.51100000000E-03 0. -1.
    9900012    2    1    2    0    0 -0.87151820540E+01 -0.11625963205E+02 -0.40896284991E+02  0.47787267924E+02  0.19999985774E+02 0.  0.
        -12    1    1    2    0    0  0.87151820540E+01  0.11625963205E+02  0.40896284991E+02  0.43400732076E+02  0.00000000000E+00 0.  1.
         11    1    3    3    0    0 -0.60126710905E+01 -0.13168457884E+01 -0.52504539005E+01  0.80903376256E+01  0.51100000000E-03 0.  1.
        -11    1    3    3    0    0 -0.54745543540E+01  0.95359371962E+00 -0.82509978909E+01  0.99478164848E+01  0.51100000000E-03 0. -1.
         12    1    3    3    0    0  0.27720433905E+01 -0.11262711136E+02 -0.27394833199E+02  0.29749113814E+02  0.00000000000E+00 0. -1.
</event>
<event>
 7    1  0.4236733E-010  0.4778729E+02  0.7816164E-02  0.1312668E+00
        -11   -1    0    0    0    0  0.00000000000E+00  0.00000000000E+00  0.45593999997E+02  0.45594000000E+02  0.51100000000E-03 0. -1.
         11   -1    0    0    0    0 -0.00000000000E+00 -0.00000000000E+00 -0.45593999997E+02  0.45594000000E+02  0.51100000000E-03 0.  1.
    9900012    2    1    2    0    0 -0.31799832467E+02  0.23115132405E+02  0.18387041988E+02  0.47787285673E+02  0.20000066697E+02 0.  0.
        -12    1    1    2    0    0  0.31799832467E+02 -0.23115132405E+02 -0.18387041988E+02  0.43400714327E+02  0.00000000000E+00 0.  1.
         11    1    3    3    0    0 -0.16239888572E+02  0.33318598503E+01  0.70701644436E+01  0.18022832641E+02  0.51100000000E-03 0. -1.
        -11    1    3    3    0    0 -0.76968879551E+01  0.73490801285E+01  0.10622564568E+02  0.15036287480E+02  0.51100000000E-03 0.  1.
         12    1    3    3    0    0 -0.78630559400E+01  0.12434192426E+02  0.69431297627E+00  0.14728165551E+02  0.00000000000E+00 0. -1.
</event>
<event>
 7    1  0.4236733E-010  0.4778727E+02  0.7816164E-02  0.1312668E+00
        -11   -1    0    0    0    0  0.00000000000E+00  0.00000000000E+00  0.45593999997E+02  0.45594000000E+02  0.51100000000E-03 0. -1.
         11   -1    0    0    0    0 -0.00000000000E+00 -0.00000000000E+00 -0.45593999997E+02  0.45594000000E+02  0.51100000000E-03 0.  1.
    9900012    2    1    2    0    0  0.32609499737E+02 -0.21422982139E+02  0.19007884217E+02  0.47787270753E+02  0.19999998670E+02 0.  0.
        -12    1    1    2    0    0 -0.32609499737E+02  0.21422982139E+02 -0.19007884217E+02  0.43400729247E+02  0.00000000000E+00 0.  1.
         11    1    3    3    0    0  0.14034907670E+02 -0.16235367413E+02  0.79286282470E+01  0.22878569327E+02  0.51100000000E-03 0. -1.
        -11    1    3    3    0    0 -0.13236981205E+01 -0.53530405523E+00 -0.38339150691E+00  0.14784168744E+01  0.51100000000E-03 0.  1.
         12    1    3    3    0    0  0.19898290188E+02 -0.46523106709E+01  0.11462647477E+02  0.23430284551E+02  0.00000000000E+00 0. -1.
</event>
<event>
 7    1  0.4236733E-010  0.4778727E+02  0.7816164E-02  0.1312668E+00
        -11   -1    0    0    0    0  0.00000000000E+00  0.00000000000E+00  0.45593999997E+02  0.45594000000E+02  0.51100000000E-03 0.  1.
         11   -1    0    0    0    0 -0.00000000000E+00 -0.00000000000E+00 -0.45593999997E+02  0.45594000000E+02  0.51100000000E-03 0. -1.
    9900012    2    1    2    0    0  0.39105778977E+02 -0.18584552991E+02 -0.29960050447E+01  0.47787267224E+02  0.19999982582E+02 0.  0.
        -12    1    1    2    0    0 -0.39105778977E+02  0.18584552991E+02  0.29960050447E+01  0.43400732776E+02  0.00000000000E+00 0.  1.
         11    1    3    3    0    0  0.38181577446E+02 -0.12680912550E+02 -0.41950421831E+01  0.40450423713E+02  0.51100000000E-03 0. -1.
        -11    1    3    3    0    0 -0.15790433652E+01 -0.28060458745E+01  0.89877207216E+00  0.33429123377E+01  0.51100000000E-03 0.  1.
         12    1    3    3    0    0  0.25032448954E+01 -0.30975945671E+01  0.30026506625E+00  0.39939311735E+01  0.00000000000E+00 0. -1.
</event>
<event>
 7    1  0.4236733E-010  0.4778727E+02  0.7816164E-02  0.1312668E+00
        -11   -1    0    0    0    0  0.00000000000E+00  0.00000000000E+00  0.45593999997E+02  0.45594000000E+02  0.51100000000E-03 0.  1.
         11   -1    0    0    0    0 -0.00000000000E+00 -0.00000000000E+00 -0.45593999997E+02  0.45594000000E+02  0.51100000000E-03 0. -1.
    9900012    2    1    2    0    0  0.83288039832E+01  0.33896796032E+02 -0.25792665528E+02  0.47787270144E+02  0.19999995894E+02 0.  0.
        -12    1    1    2    0    0 -0.83288039832E+01 -0.33896796032E+02  0.25792665528E+02  0.43400729856E+02  0.00000000000E+00 0.  1.
         11    1    3    3    0    0  0.14637757462E+02  0.22395752482E+02 -0.15239036962E+02  0.30790614163E+02  0.51100000000E-03 0. -1.
        -11    1    3    3    0    0 -0.24639693309E+01  0.24837059852E+01 -0.23563671605E+01  0.42181046385E+01  0.51100000000E-03 0.  1.
         12    1    3    3    0    0 -0.38449841483E+01  0.90173375644E+01 -0.81972614053E+01  0.12778551342E+02  0.00000000000E+00 0. -1.
</event>
<event>
 7    1  0.4236733E-010  0.4778727E+02  0.7816164E-02  0.1312668E+00
        -11   -1    0    0    0    0  0.00000000000E+00  0.00000000000E+00  0.45593999997E+02  0.45594000000E+02  0.51100000000E-03 0.  1.
         11   -1    0    0    0    0 -0.00000000000E+00 -0.00000000000E+00 -0.45593999997E+02  0.45594000000E+02  0.51100000000E-03 0. -1.
    9900012    2    1    2    0    0  0.42739823277E+01  0.41740011255E+02  0.11096297499E+02  0.47787270943E+02  0.19999999537E+02 0.  0.
        -12    1    1    2    0    0 -0.42739823277E+01 -0.41740011255E+02 -0.11096297499E+02  0.43400729057E+02  0.00000000000E+00 0.  1.
         11    1    3    3    0    0  0.53709971774E+00  0.98201974287E+01  0.75021036093E+01  0.12369572041E+02  0.51100000000E-03 0. -1.
        -11    1    3    3    0    0  0.74262791722E+01  0.12946697816E+02  0.56958626690E+01  0.15975276476E+02  0.51100000000E-03 0.  1.
        -12    1    3    3    0    0 -0.36893965622E+01  0.18973116010E+02 -0.21016687796E+01  0.19442422426E+02  0.00000000000E+00 0.  1.
</event>
<event>
 7    1  0.4236733E-010  0.4778727E+02  0.7816164E-02  0.1312668E+00
        -11   -1    0    0    0    0  0.00000000000E+00  0.00000000000E+00  0.45593999997E+02  0.45594000000E+02  0.51100000000E-03 0. -1.
         11   -1    0    0    0    0 -0.00000000000E+00 -0.00000000000E+00 -0.45593999997E+02  0.45594000000E+02  0.51100000000E-03 0.  1.
    9900012    2    1    2    0    0 -0.39363359624E+02  0.73960815227E+01  0.16716673066E+02  0.47787271191E+02  0.20000000667E+02 0.  0.
        -12    1    1    2    0    0  0.39363359624E+02 -0.73960815227E+01 -0.16716673066E+02  0.43400728809E+02  0.00000000000E+00 0.  1.
         11    1    3    3    0    0 -0.12745287033E+02  0.85988854495E+01  0.10596627534E+02  0.18672752552E+02  0.51100000000E-03 0. -1.
        -11    1    3    3    0    0  0.94033564993E-01  0.87399835092E+00  0.17627876675E+01  0.19698060947E+01  0.51100000000E-03 0.  1.
        -12    1    3    3    0    0 -0.26712106156E+02 -0.20768022776E+01  0.43572578649E+01  0.27144712544E+02  0.00000000000E+00 0.  1.
</event>
<event>
 7    1  0.4236733E-010  0.4778727E+02  0.7816164E-02  0.1312668E+00
        -11   -1    0    0    0    0  0.00000000000E+00  0.00000000000E+00  0.45593999997E+02  0.45594000000E+02  0.51100000000E-03 0.  1.
         11   -1    0    0    0    0 -0.00000000000E+00 -0.00000000000E+00 -0.45593999997E+02  0.45594000000E+02  0.51100000000E-03 0. -1.
    9900012    2    1    2    0    0 -0.25546184545E+02  0.12942005410E+02 -0.32611660135E+02  0.47787269297E+02  0.19999992032E+02 0.  0.
        -12    1    1    2    0    0  0.25546184545E+02 -0.12942005410E+02  0.32611660135E+02  0.43400730703E+02  0.00000000000E+00 0.  1.
         11    1    3    3    0    0 -0.67356042439E+00 -0.29390917914E+01 -0.17681898172E+01  0.34954884772E+01  0.51100000000E-03 0. -1.
        -11    1    3    3    0    0 -0.42424815770E+01 -0.68452770770E-01 -0.10152686185E+02  0.11003652700E+02  0.51100000000E-03 0.  1.
        -12    1    3    3    0    0 -0.20630142544E+02  0.15949549972E+02 -0.20690784133E+02  0.33288128120E+02  0.00000000000E+00 0.  1.
</event>
<event>
 7    1  0.4236733E-010  0.4778726E+02  0.7816164E-02  0.1312668E+00
        -11   -1    0    0    0    0  0.00000000000E+00  0.00000000000E+00  0.45593999997E+02  0.45594000000E+02  0.51100000000E-03 0.  1.
         11   -1    0    0    0    0 -0.00000000000E+00 -0.00000000000E+00 -0.45593999997E+02  0.45594000000E+02  0.51100000000E-03 0. -1.
    9900012    2    1    2    0    0  0.35625684077E+02  0.11130435900E+01 -0.24762791184E+02  0.47787261997E+02  0.19999958747E+02 0.  0.
        -12    1    1    2    0    0 -0.35625684077E+02 -0.11130435900E+01  0.24762791184E+02  0.43400738003E+02  0.00000000000E+00 0.  1.
         11    1    3    3    0    0  0.95405148267E+01 -0.51206474391E+01 -0.90513766497E+01  0.14112755680E+02  0.51100000000E-03 0. -1.
        -11    1    3    3    0    0  0.31550006704E+01 -0.34853971324E+01 -0.12066762813E+01  0.48536677173E+01  0.51100000000E-03 0.  1.
        -12    1    3    3    0    0  0.22930168580E+02  0.97190881615E+01 -0.14504738253E+02  0.28820838600E+02  0.00000000000E+00 0.  1.
</event>
<event>
 7    1  0.4236733E-010  0.4778727E+02  0.7816164E-02  0.1312668E+00
        -11   -1    0    0    0    0  0.00000000000E+00  0.00000000000E+00  0.45593999997E+02  0.45594000000E+02  0.51100000000E-03 0.  1.
         11   -1    0    0    0    0 -0.00000000000E+00 -0.00000000000E+00 -0.45593999997E+02  0.45594000000E+02  0.51100000000E-03 0. -1.
    9900012    2    1    2    0    0  0.31975088866E+02 -0.13858825797E+02 -0.25867932135E+02  0.47787271050E+02  0.20000000026E+02 0.  0.
        -12    1    1    2    0    0 -0.31975088866E+02  0.13858825797E+02  0.25867932135E+02  0.43400728950E+02  0.00000000000E+00 0.  1.
         11    1    3    3    0    0  0.28224219023E+00 -0.31916322603E+01 -0.23286688931E+01  0.39609186073E+01  0.51100000000E-03 0. -1.
        -11    1    3    3    0    0  0.15780687992E+02 -0.11892487762E+02 -0.73210731646E+01  0.21072719123E+02  0.51100000000E-03 0.  1.
        -12    1    3    3    0    0  0.15912158683E+02  0.12252942252E+01 -0.16218190077E+02  0.22753633320E+02  0.00000000000E+00 0.  1.
</event>
<event>
 7    1  0.4236733E-010  0.4778727E+02  0.7816164E-02  0.1312668E+00
        -11   -1    0    0    0    0  0.00000000000E+00  0.00000000000E+00  0.45593999997E+02  0.45594000000E+02  0.51100000000E-03 0.  1.
         11   -1    0    0    0    0 -0.00000000000E+00 -0.00000000000E+00 -0.45593999997E+02  0.45594000000E+02  0.51100000000E-03 0. -1.
    9900012    2    1    2    0    0  0.36147722750E+02 -0.19414138917E+02 -0.14144131806E+02  0.47787272881E+02  0.20000008373E+02 0.  0.
        -12    1    1    2    0    0 -0.36147722750E+02  0.19414138917E+02  0.14144131806E+02  0.43400727119E+02  0.00000000000E+00 0.  1.
         11    1    3    3    0    0  0.50811581400E+01 -0.10717377815E+01 -0.70678084218E+01  0.87704450322E+01  0.51100000000E-03 0.  1.
        -11    1    3    3    0    0  0.28340943232E+02 -0.12295067127E+02 -0.25741927619E+01  0.31000067864E+02  0.51100000000E-03 0. -1.
         12    1    3    3    0    0  0.27256213781E+01 -0.60473340087E+01 -0.45021306224E+01  0.80167599846E+01  0.00000000000E+00 0. -1.
</event>
<event>
 7    1  0.4236733E-010  0.4778727E+02  0.7816164E-02  0.1312668E+00
        -11   -1    0    0    0    0  0.00000000000E+00  0.00000000000E+00  0.45593999997E+02  0.45594000000E+02  0.51100000000E-03 0.  1.
         11   -1    0    0    0    0 -0.00000000000E+00 -0.00000000000E+00 -0.45593999997E+02  0.45594000000E+02  0.51100000000E-03 0. -1.
    9900012    2    1    2    0    0 -0.15136567892E+02  0.22301573213E+02 -0.34016870872E+02  0.47787270061E+02  0.19999995516E+02 0.  0.
        -12    1    1    2    0    0  0.15136567892E+02 -0.22301573213E+02  0.34016870872E+02  0.43400729939E+02  0.00000000000E+00 0.  1.
         11    1    3    3    0    0 -0.99526125050E+01  0.65502919255E+01 -0.87906075364E+01  0.14806606671E+02  0.51100000000E-03 0. -1.
        -11    1    3    3    0    0 -0.91814949064E+01  0.70368652317E+01 -0.12276562221E+02  0.16868055645E+02  0.51100000000E-03 0.  1.
        -12    1    3    3    0    0  0.39975395196E+01  0.87144160558E+01 -0.12949701115E+02  0.16112607746E+02  0.00000000000E+00 0.  1.
</event>
<event>
 7    1  0.4236733E-010  0.4778727E+02  0.7816164E-02  0.1312668E+00
        -11   -1    0    0    0    0  0.00000000000E+00  0.00000000000E+00  0.45593999997E+02  0.45594000000E+02  0.51100000000E-03 0. -1.
         11   -1    0    0    0    0 -0.00000000000E+00 -0.00000000000E+00 -0.45593999997E+02  0.45594000000E+02  0.51100000000E-03 0.  1.
    9900012    2    1    2    0    0  0.34964305407E+02 -0.20366691498E+02 -0.15694533535E+02  0.47787272379E+02  0.20000006083E+02 0.  0.
        -12    1    1    2    0    0 -0.34964305407E+02  0.20366691498E+02  0.15694533535E+02  0.43400727621E+02  0.00000000000E+00 0.  1.
         11    1    3    3    0    0  0.30627270893E+01 -0.55978486669E+01 -0.67330515515E+00  0.64163499760E+01  0.51100000000E-03 0.  1.
        -11    1    3    3    0    0  0.33305367124E+02 -0.15713856511E+02 -0.14020398871E+02  0.39404877242E+02  0.51100000000E-03 0. -1.
        -12    1    3    3    0    0 -0.14037888066E+01  0.94501367903E+00 -0.10008295086E+01  0.19660451603E+01  0.00000000000E+00 0.  1.
</event>
<event>
 7    1  0.4236733E-010  0.4778727E+02  0.7816164E-02  0.1312668E+00
        -11   -1    0    0    0    0  0.00000000000E+00  0.00000000000E+00  0.45593999997E+02  0.45594000000E+02  0.51100000000E-03 0.  1.
         11   -1    0    0    0    0 -0.00000000000E+00 -0.00000000000E+00 -0.45593999997E+02  0.45594000000E+02  0.51100000000E-03 0. -1.
    9900012    2    1    2    0    0  0.84278299420E+00  0.94359618218E+01 -0.42354167642E+02  0.47787272180E+02  0.20000005176E+02 0.  0.
        -12    1    1    2    0    0 -0.84278299420E+00 -0.94359618218E+01  0.42354167642E+02  0.43400727820E+02  0.00000000000E+00 0.  1.
         11    1    3    3    0    0  0.68509138325E+01  0.19460711321E+01 -0.17555936273E+02  0.18945530129E+02  0.51100000000E-03 0. -1.
        -11    1    3    3    0    0 -0.44577576866E+00  0.79435094439E+01 -0.19842808921E+02  0.21378379837E+02  0.51100000000E-03 0.  1.
         12    1    3    3    0    0 -0.55623550696E+01 -0.45361875423E+00 -0.49554224484E+01  0.74633622139E+01  0.00000000000E+00 0. -1.
</event>
<event>
 7    1  0.4236733E-010  0.4778727E+02  0.7816164E-02  0.1312668E+00
        -11   -1    0    0    0    0  0.00000000000E+00  0.00000000000E+00  0.45593999997E+02  0.45594000000E+02  0.51100000000E-03 0. -1.
         11   -1    0    0    0    0 -0.00000000000E+00 -0.00000000000E+00 -0.45593999997E+02  0.45594000000E+02  0.51100000000E-03 0.  1.
    9900012    2    1    2    0    0  0.33609805243E+02 -0.27094022530E+02 -0.44630230118E+01  0.47787266830E+02  0.19999980783E+02 0.  0.
        -12    1    1    2    0    0 -0.33609805243E+02  0.27094022530E+02  0.44630230118E+01  0.43400733170E+02  0.00000000000E+00 0.  1.
         11    1    3    3    0    0  0.19443872294E+02 -0.16523033858E+02 -0.75957799841E+01  0.26622747632E+02  0.51100000000E-03 0. -1.
        -11    1    3    3    0    0 -0.99187190448E+00 -0.39294986751E+01 -0.85480225757E+00  0.41419146386E+01  0.51100000000E-03 0.  1.
        -12    1    3    3    0    0  0.15157804853E+02 -0.66414899969E+01  0.39875592299E+01  0.17022604559E+02  0.00000000000E+00 0.  1.
</event>
<event>
 7    1  0.4236733E-010  0.4778727E+02  0.7816164E-02  0.1312668E+00
        -11   -1    0    0    0    0  0.00000000000E+00  0.00000000000E+00  0.45593999997E+02  0.45594000000E+02  0.51100000000E-03 0.  1.
         11   -1    0    0    0    0 -0.00000000000E+00 -0.00000000000E+00 -0.45593999997E+02  0.45594000000E+02  0.51100000000E-03 0. -1.
    9900012    2    1    2    0    0  0.93114386356E+01 -0.42305350132E+02 -0.26791854148E+01  0.47787267590E+02  0.19999984251E+02 0.  0.
        -12    1    1    2    0    0 -0.93114386356E+01  0.42305350132E+02  0.26791854148E+01  0.43400732410E+02  0.00000000000E+00 0.  1.
         11    1    3    3    0    0  0.13754876918E+01  0.43150128586E-01 -0.41502753939E+00  0.14373852801E+01  0.51100000000E-03 0.  1.
        -11    1    3    3    0    0  0.11048263821E+02 -0.28052756493E+02  0.40389022521E+01  0.30419303279E+02  0.51100000000E-03 0. -1.
         12    1    3    3    0    0 -0.31123128770E+01 -0.14295743767E+02 -0.63030601276E+01  0.15930579031E+02  0.00000000000E+00 0. -1.
</event>
<event>
 7    1  0.4236733E-010  0.4778728E+02  0.7816164E-02  0.1312668E+00
        -11   -1    0    0    0    0  0.00000000000E+00  0.00000000000E+00  0.45593999997E+02  0.45594000000E+02  0.51100000000E-03 0. -1.
         11   -1    0    0    0    0 -0.00000000000E+00 -0.00000000000E+00 -0.45593999997E+02  0.45594000000E+02  0.51100000000E-03 0.  1.
    9900012    2    1    2    0    0 -0.27014908817E+02  0.26604283561E+02  0.21119411870E+02  0.47787276966E+02  0.20000026997E+02 0.  0.
        -12    1    1    2    0    0  0.27014908817E+02 -0.26604283561E+02 -0.21119411870E+02  0.43400723034E+02  0.00000000000E+00 0.  1.
         11    1    3    3    0    0 -0.72780937158E+01  0.30247467756E+01  0.74488464193E+01  0.10844586411E+02  0.51100000000E-03 0. -1.
        -11    1    3    3    0    0 -0.16458846733E+02  0.78926748532E+01  0.81802574327E+01  0.20002613930E+02  0.51100000000E-03 0.  1.
         12    1    3    3    0    0 -0.32779683683E+01  0.15686861932E+02  0.54903080177E+01  0.16940076624E+02  0.00000000000E+00 0. -1.
</event>
<event>
 7    1  0.4236733E-010  0.4778728E+02  0.7816164E-02  0.1312668E+00
        -11   -1    0    0    0    0  0.00000000000E+00  0.00000000000E+00  0.45593999997E+02  0.45594000000E+02  0.51100000000E-03 0.  1.
         11   -1    0    0    0    0 -0.00000000000E+00 -0.00000000000E+00 -0.45593999997E+02  0.45594000000E+02  0.51100000000E-03 0. -1.
    9900012    2    1    2    0    0  0.27667403655E+02 -0.29807140766E+02  0.15154924398E+02  0.47787278817E+02  0.20000035440E+02 0.  0.
        -12    1    1    2    0    0 -0.27667403655E+02  0.29807140766E+02 -0.15154924398E+02  0.43400721183E+02  0.00000000000E+00 0.  1.
         11    1    3    3    0    0  0.62853354777E+01 -0.65628946027E+01 -0.10560623882E+01  0.91483493409E+01  0.51100000000E-03 0. -1.
        -11    1    3    3    0    0  0.55285645615E+01 -0.15468096121E+02  0.32752156558E+01  0.16749748105E+02  0.51100000000E-03 0.  1.
         12    1    3    3    0    0  0.15853503616E+02 -0.77761500425E+01  0.12935771131E+02  0.21889181371E+02  0.00000000000E+00 0. -1.
</event>
<event>
 7    1  0.4236733E-010  0.4778727E+02  0.7816164E-02  0.1312668E+00
        -11   -1    0    0    0    0  0.00000000000E+00  0.00000000000E+00  0.45593999997E+02  0.45594000000E+02  0.51100000000E-03 0.  1.
         11   -1    0    0    0    0 -0.00000000000E+00 -0.00000000000E+00 -0.45593999997E+02  0.45594000000E+02  0.51100000000E-03 0. -1.
    9900012    2    1    2    0    0 -0.34481095618E+02  0.20482072574E+02 -0.16588007328E+02  0.47787271445E+02  0.20000001827E+02 0.  0.
        -12    1    1    2    0    0  0.34481095618E+02 -0.20482072574E+02  0.16588007328E+02  0.43400728555E+02  0.00000000000E+00 0.  1.
         11    1    3    3    0    0 -0.20905184051E+02  0.11582774842E+02 -0.14656673713E+02  0.28035789231E+02  0.51100000000E-03 0. -1.
        -11    1    3    3    0    0 -0.75115806822E+01  0.37942865757E+00 -0.47814057641E+01  0.89123314454E+01  0.51100000000E-03 0.  1.
        -12    1    3    3    0    0 -0.60643308853E+01  0.85198690742E+01  0.28500721488E+01  0.10839150768E+02  0.00000000000E+00 0.  1.
</event>
<event>
 7    1  0.4236733E-010  0.4778728E+02  0.7816164E-02  0.1312668E+00
        -11   -1    0    0    0    0  0.00000000000E+00  0.00000000000E+00  0.45593999997E+02  0.45594000000E+02  0.51100000000E-03 0.  1.
         11   -1    0    0    0    0 -0.00000000000E+00 -0.00000000000E+00 -0.45593999997E+02  0.45594000000E+02  0.51100000000E-03 0. -1.
    9900012    2    1    2    0    0 -0.78847168138E+01  0.55240958638E+01 -0.42319480331E+02  0.47787276390E+02  0.20000024374E+02 0.  0.
        -12    1    1    2    0    0  0.78847168138E+01 -0.55240958638E+01  0.42319480331E+02  0.43400723610E+02  0.00000000000E+00 0.  1.
         11    1    3    3    0    0 -0.36178423687E+01  0.36203466693E+01 -0.26842949026E+02  0.27326536665E+02  0.51100000000E-03 0. -1.
        -11    1    3    3    0    0 -0.30663342919E+01  0.70547447418E+01 -0.11534644305E+02  0.13864337304E+02  0.51100000000E-03 0.  1.
        -12    1    3    3    0    0 -0.12005401532E+01 -0.51509955474E+01 -0.39418869994E+01  0.65964024214E+01  0.00000000000E+00 0.  1.
</event>
<event>
 7    1  0.4733473E-010  0.4778727E+02  0.7816164E-02  0.1312668E+00
        -11   -1    0    0    0    0  0.00000000000E+00  0.00000000000E+00  0.45593999997E+02  0.45594000000E+02  0.51100000000E-03 0. -1.
         11   -1    0    0    0    0 -0.00000000000E+00 -0.00000000000E+00 -0.45593999997E+02  0.45594000000E+02  0.51100000000E-03 0.  1.
    9900012    2    1    2    0    0 -0.24945783328E+02  0.11776085530E+02  0.33506044360E+02  0.47787270687E+02  0.19999998371E+02 0.  0.
        -12    1    1    2    0    0  0.24945783328E+02 -0.11776085530E+02 -0.33506044360E+02  0.43400729313E+02  0.00000000000E+00 0.  1.
         11    1    3    3    0    0 -0.57968919015E+01  0.47664761043E+01  0.15737791035E+02  0.17435633544E+02  0.51100000000E-03 0. -1.
        -11    1    3    3    0    0 -0.19473993406E+02  0.87584015656E+01  0.18664045077E+02  0.28360052821E+02  0.51100000000E-03 0.  1.
        -12    1    3    3    0    0  0.32510197882E+00 -0.17487921402E+01 -0.89579175212E+00  0.19915843214E+01  0.00000000000E+00 0.  1.
</event>
<event>
 7    1  0.4236733E-010  0.4778727E+02  0.7816164E-02  0.1312668E+00
        -11   -1    0    0    0    0  0.00000000000E+00  0.00000000000E+00  0.45593999997E+02  0.45594000000E+02  0.51100000000E-03 0. -1.
         11   -1    0    0    0    0 -0.00000000000E+00 -0.00000000000E+00 -0.45593999997E+02  0.45594000000E+02  0.51100000000E-03 0.  1.
    9900012    2    1    2    0    0 -0.38210827562E+02  0.17081734570E+02  0.11479115199E+02  0.47787273225E+02  0.20000009940E+02 0.  0.
        -12    1    1    2    0    0  0.38210827562E+02 -0.17081734570E+02 -0.11479115199E+02  0.43400726775E+02  0.00000000000E+00 0.  1.
         11    1    3    3    0    0 -0.16595770194E+02  0.71598464486E+01  0.15976012294E+01  0.18144842779E+02  0.51100000000E-03 0. -1.
        -11    1    3    3    0    0 -0.13305809090E+02  0.63669707865E+01 -0.18140213944E+01  0.14861815044E+02  0.51100000000E-03 0.  1.
         12    1    3    3    0    0 -0.83092482776E+01  0.35549173352E+01  0.11695535364E+02  0.14780615402E+02  0.00000000000E+00 0. -1.
</event>
<event>
 7    1  0.4236733E-010  0.4778727E+02  0.7816164E-02  0.1312668E+00
        -11   -1    0    0    0    0  0.00000000000E+00  0.00000000000E+00  0.45593999997E+02  0.45594000000E+02  0.51100000000E-03 0.  1.
         11   -1    0    0    0    0 -0.00000000000E+00 -0.00000000000E+00 -0.45593999997E+02  0.45594000000E+02  0.51100000000E-03 0. -1.
    9900012    2    1    2    0    0 -0.37252857440E+01  0.46756666343E+01 -0.42987020782E+02  0.47787267655E+02  0.19999984545E+02 0.  0.
        -12    1    1    2    0    0  0.37252857440E+01 -0.46756666343E+01  0.42987020782E+02  0.43400732345E+02  0.00000000000E+00 0.  1.
         11    1    3    3    0    0 -0.32634506278E+01 -0.71455824311E+00 -0.68207350687E+01  0.75949411204E+01  0.51100000000E-03 0. -1.
        -11    1    3    3    0    0 -0.35825407440E+01 -0.12589155181E+01 -0.56242872816E+00  0.38387228084E+01  0.51100000000E-03 0.  1.
        -12    1    3    3    0    0  0.31207056279E+01  0.66491403955E+01 -0.35603856986E+02  0.36353603726E+02  0.00000000000E+00 0.  1.
</event>
<event>
 7    1  0.4236733E-010  0.4778727E+02  0.7816164E-02  0.1312668E+00
        -11   -1    0    0    0    0  0.00000000000E+00  0.00000000000E+00  0.45593999997E+02  0.45594000000E+02  0.51100000000E-03 0.  1.
         11   -1    0    0    0    0 -0.00000000000E+00 -0.00000000000E+00 -0.45593999997E+02  0.45594000000E+02  0.51100000000E-03 0. -1.
    9900012    2    1    2    0    0  0.19279621278E+02  0.25465131788E+02 -0.29384461972E+02  0.47787270295E+02  0.19999996582E+02 0.  0.
        -12    1    1    2    0    0 -0.19279621278E+02 -0.25465131788E+02  0.29384461972E+02  0.43400729705E+02  0.00000000000E+00 0.  1.
         11    1    3    3    0    0  0.11661804661E+02  0.89351066279E+01 -0.16854162229E+02  0.22358367631E+02  0.51100000000E-03 0. -1.
        -11    1    3    3    0    0  0.21772996894E+01  0.82691606267E+01 -0.12961498384E+02  0.15528042118E+02  0.51100000000E-03 0.  1.
        -12    1    3    3    0    0  0.54405169281E+01  0.82608645330E+01  0.43119864170E+00  0.99008605457E+01  0.00000000000E+00 0.  1.
</event>
<event>
 7    1  0.4236733E-010  0.4778728E+02  0.7816164E-02  0.1312668E+00
        -11   -1    0    0    0    0  0.00000000000E+00  0.00000000000E+00  0.45593999997E+02  0.45594000000E+02  0.51100000000E-03 0.  1.
         11   -1    0    0    0    0 -0.00000000000E+00 -0.00000000000E+00 -0.45593999997E+02  0.45594000000E+02  0.51100000000E-03 0. -1.
    9900012    2    1    2    0    0  0.64665714104E+01 -0.27189815101E+02 -0.33204221573E+02  0.47787275106E+02  0.20000018520E+02 0.  0.
        -12    1    1    2    0    0 -0.64665714104E+01  0.27189815101E+02  0.33204221573E+02  0.43400724894E+02  0.00000000000E+00 0.  1.
         11    1    3    3    0    0 -0.31668729595E+01 -0.39229255873E+01 -0.65038002664E+01  0.82290854699E+01  0.51100000000E-03 0.  1.
        -11    1    3    3    0    0 -0.98414468722E+00 -0.50849876216E+00 -0.84288747411E+01  0.85013552696E+01  0.51100000000E-03 0. -1.
        -12    1    3    3    0    0  0.10617589057E+02 -0.22758390752E+02 -0.18271546565E+02  0.31056834367E+02  0.00000000000E+00 0.  1.
</event>
<event>
 7    1  0.4236733E-010  0.4778726E+02  0.7816164E-02  0.1312668E+00
        -11   -1    0    0    0    0  0.00000000000E+00  0.00000000000E+00  0.45593999997E+02  0.45594000000E+02  0.51100000000E-03 0.  1.
         11   -1    0    0    0    0 -0.00000000000E+00 -0.00000000000E+00 -0.45593999997E+02  0.45594000000E+02  0.51100000000E-03 0. -1.
    9900012    2    1    2    0    0 -0.57812437320E+01 -0.20191151280E+01 -0.42966547521E+02  0.47787264858E+02  0.19999971795E+02 0.  0.
        -12    1    1    2    0    0  0.57812437320E+01  0.20191151280E+01  0.42966547521E+02  0.43400735142E+02  0.00000000000E+00 0.  1.
         11    1    3    3    0    0  0.16049599109E+01  0.24031779181E+01 -0.72974064522E+00  0.29805506358E+01  0.51100000000E-03 0. -1.
        -11    1    3    3    0    0 -0.27333149276E+01 -0.26127080481E+00 -0.74094030605E+00  0.28439876450E+01  0.51100000000E-03 0.  1.
         12    1    3    3    0    0 -0.46528887154E+01 -0.41610222414E+01 -0.41495866569E+02  0.41962726578E+02  0.00000000000E+00 0. -1.
</event>
<event>
 7    1  0.4236733E-010  0.4778727E+02  0.7816164E-02  0.1312668E+00
        -11   -1    0    0    0    0  0.00000000000E+00  0.00000000000E+00  0.45593999997E+02  0.45594000000E+02  0.51100000000E-03 0. -1.
         11   -1    0    0    0    0 -0.00000000000E+00 -0.00000000000E+00 -0.45593999997E+02  0.45594000000E+02  0.51100000000E-03 0.  1.
    9900012    2    1    2    0    0  0.13586594505E+00  0.11910832813E+02  0.41734122347E+02  0.47787269984E+02  0.19999995166E+02 0.  0.
        -12    1    1    2    0    0 -0.13586594505E+00 -0.11910832813E+02 -0.41734122347E+02  0.43400730016E+02  0.00000000000E+00 0.  1.
         11    1    3    3    0    0  0.12441762361E+01 -0.10962007900E+01  0.35973208087E+01  0.39611043839E+01  0.51100000000E-03 0. -1.
        -11    1    3    3    0    0  0.69768629581E+01  0.91251916077E+00  0.11813500961E+02  0.13750204114E+02  0.51100000000E-03 0.  1.
         12    1    3    3    0    0 -0.80851732492E+01  0.12094514443E+02  0.26323300577E+02  0.30075961486E+02  0.00000000000E+00 0. -1.
</event>
<event>
 7    1  0.4236733E-010  0.4778727E+02  0.7816164E-02  0.1312668E+00
        -11   -1    0    0    0    0  0.00000000000E+00  0.00000000000E+00  0.45593999997E+02  0.45594000000E+02  0.51100000000E-03 0. -1.
         11   -1    0    0    0    0 -0.00000000000E+00 -0.00000000000E+00 -0.45593999997E+02  0.45594000000E+02  0.51100000000E-03 0.  1.
    9900012    2    1    2    0    0  0.20385058571E+02 -0.31900814206E+02  0.21222877546E+02  0.47787273148E+02  0.20000009592E+02 0.  0.
        -12    1    1    2    0    0 -0.20385058571E+02  0.31900814206E+02 -0.21222877546E+02  0.43400726852E+02  0.00000000000E+00 0.  1.
         11    1    3    3    0    0 -0.80260029958E+00 -0.34074958438E+01  0.61399551207E+01  0.70678316556E+01  0.51100000000E-03 0. -1.
        -11    1    3    3    0    0  0.18324418286E+01 -0.80247374832E+01  0.84128307941E+01  0.11769875826E+02  0.51100000000E-03 0.  1.
        -12    1    3    3    0    0  0.19355217042E+02 -0.20468580879E+02  0.66700916315E+01  0.28949565667E+02  0.00000000000E+00 0.  1.
</event>
<event>
 7    1  0.4236733E-010  0.4778727E+02  0.7816164E-02  0.1312668E+00
        -11   -1    0    0    0    0  0.00000000000E+00  0.00000000000E+00  0.45593999997E+02  0.45594000000E+02  0.51100000000E-03 0. -1.
         11   -1    0    0    0    0 -0.00000000000E+00 -0.00000000000E+00 -0.45593999997E+02  0.45594000000E+02  0.51100000000E-03 0.  1.
    9900012    2    1    2    0    0 -0.34402841590E+02 -0.89605338809E+01  0.24895311931E+02  0.47787271515E+02  0.20000002147E+02 0.  0.
        -12    1    1    2    0    0  0.34402841590E+02  0.89605338809E+01 -0.24895311931E+02  0.43400728485E+02  0.00000000000E+00 0.  1.
         11    1    3    3    0    0 -0.81316443133E+01 -0.55709121873E+01  0.13476261633E+02  0.16696356779E+02  0.51100000000E-03 0. -1.
        -11    1    3    3    0    0 -0.18064633960E+02 -0.42661665802E+01  0.13034529457E+02  0.22681052352E+02  0.51100000000E-03 0.  1.
        -12    1    3    3    0    0 -0.82065633167E+01  0.87654488659E+00 -0.16154791589E+01  0.84098623843E+01  0.00000000000E+00 0.  1.
</event>
<event>
 7    1  0.4236733E-010  0.4778727E+02  0.7816164E-02  0.1312668E+00
        -11   -1    0    0    0    0  0.00000000000E+00  0.00000000000E+00  0.45593999997E+02  0.45594000000E+02  0.51100000000E-03 0.  1.
         11   -1    0    0    0    0 -0.00000000000E+00 -0.00000000000E+00 -0.45593999997E+02  0.45594000000E+02  0.51100000000E-03 0. -1.
    9900012    2    1    2    0    0  0.40538524064E+02 -0.15413365149E+02  0.16369603440E+01  0.47787269618E+02  0.19999993497E+02 0.  0.
        -12    1    1    2    0    0 -0.40538524064E+02  0.15413365149E+02 -0.16369603440E+01  0.43400730382E+02  0.00000000000E+00 0.  1.
         11    1    3    3    0    0  0.10153642246E+02  0.11268455960E+01  0.18406808423E+01  0.10380478702E+02  0.51100000000E-03 0. -1.
        -11    1    3    3    0    0  0.30937164428E+01  0.13170181613E+01 -0.32172412134E+01  0.46536286435E+01  0.51100000000E-03 0.  1.
        -12    1    3    3    0    0  0.27291165375E+02 -0.17857228907E+02  0.30135207151E+01  0.32753162273E+02  0.00000000000E+00 0.  1.
</event>
<event>
 7    1  0.4236733E-010  0.4778727E+02  0.7816164E-02  0.1312668E+00
        -11   -1    0    0    0    0  0.00000000000E+00  0.00000000000E+00  0.45593999997E+02  0.45594000000E+02  0.51100000000E-03 0.  1.
         11   -1    0    0    0    0 -0.00000000000E+00 -0.00000000000E+00 -0.45593999997E+02  0.45594000000E+02  0.51100000000E-03 0. -1.
    9900012    2    1    2    0    0 -0.82904546093E+01  0.26771235744E+02 -0.33138985917E+02  0.47787273180E+02  0.20000009738E+02 0.  0.
        -12    1    1    2    0    0  0.82904546093E+01 -0.26771235744E+02  0.33138985917E+02  0.43400726820E+02  0.00000000000E+00 0.  1.
         11    1    3    3    0    0 -0.52392955963E+01  0.11138791157E+02 -0.15507835209E+02  0.19799389887E+02  0.51100000000E-03 0. -1.
        -11    1    3    3    0    0 -0.52396104301E+01  0.79823705303E+01 -0.17608677221E+02  0.20030907880E+02  0.51100000000E-03 0.  1.
        -12    1    3    3    0    0  0.21884514171E+01  0.76500740563E+01 -0.22473487309E-01  0.79569754134E+01  0.00000000000E+00 0.  1.
</event>
<event>
 7    1  0.4236733E-010  0.4778726E+02  0.7816164E-02  0.1312668E+00
        -11   -1    0    0    0    0  0.00000000000E+00  0.00000000000E+00  0.45593999997E+02  0.45594000000E+02  0.51100000000E-03 0.  1.
         11   -1    0    0    0    0 -0.00000000000E+00 -0.00000000000E+00 -0.45593999997E+02  0.45594000000E+02  0.51100000000E-03 0. -1.
    9900012    2    1    2    0    0  0.37363708683E+02 -0.21839451861E+02 -0.32581381341E+01  0.47787264427E+02  0.19999969827E+02 0.  0.
        -12    1    1    2    0    0 -0.37363708683E+02  0.21839451861E+02  0.32581381341E+01  0.43400735573E+02  0.00000000000E+00 0.  1.
         11    1    3    3    0    0  0.34180584592E+00 -0.32814926639E+00  0.35612397212E+00  0.59273748150E+00  0.51100000000E-03 0. -1.
        -11    1    3    3    0    0  0.38218977972E+01  0.22585460551E+01  0.36181346067E+01  0.57270263967E+01  0.51100000000E-03 0.  1.
         12    1    3    3    0    0  0.33200005040E+02 -0.23769848650E+02 -0.72323967129E+01  0.41467500549E+02  0.00000000000E+00 0. -1.
</event>
<event>
 7    1  0.4236733E-010  0.4778727E+02  0.7816164E-02  0.1312668E+00
        -11   -1    0    0    0    0  0.00000000000E+00  0.00000000000E+00  0.45593999997E+02  0.45594000000E+02  0.51100000000E-03 0.  1.
         11   -1    0    0    0    0 -0.00000000000E+00 -0.00000000000E+00 -0.45593999997E+02  0.45594000000E+02  0.51100000000E-03 0. -1.
    9900012    2    1    2    0    0  0.16422796923E+02  0.37548954318E+02 -0.14282549708E+02  0.47787268955E+02  0.19999990471E+02 0.  0.
        -12    1    1    2    0    0 -0.16422796923E+02 -0.37548954318E+02  0.14282549708E+02  0.43400731045E+02  0.00000000000E+00 0.  1.
         11    1    3    3    0    0  0.29542790382E+01  0.12721985476E+02 -0.78260517172E+01  0.15225759910E+02  0.51100000000E-03 0. -1.
        -11    1    3    3    0    0  0.86472202802E+01  0.41509928056E+01 -0.60235354255E+01  0.11326435411E+02  0.51100000000E-03 0.  1.
        -12    1    3    3    0    0  0.48212976047E+01  0.20675976036E+02 -0.43296256510E+00  0.21235073633E+02  0.00000000000E+00 0.  1.
</event>
<event>
 7    1  0.4236733E-010  0.4778727E+02  0.7816164E-02  0.1312668E+00
        -11   -1    0    0    0    0  0.00000000000E+00  0.00000000000E+00  0.45593999997E+02  0.45594000000E+02  0.51100000000E-03 0. -1.
         11   -1    0    0    0    0 -0.00000000000E+00 -0.00000000000E+00 -0.45593999997E+02  0.45594000000E+02  0.51100000000E-03 0.  1.
    9900012    2    1    2    0    0  0.29533375563E+02  0.24685912071E+02  0.20050157623E+02  0.47787270195E+02  0.19999996125E+02 0.  0.
        -12    1    1    2    0    0 -0.29533375563E+02 -0.24685912071E+02 -0.20050157623E+02  0.43400729805E+02  0.00000000000E+00 0.  1.
         11    1    3    3    0    0  0.17623998830E+02  0.75260912749E+01  0.22707207776E+01  0.19297760434E+02  0.51100000000E-03 0. -1.
        -11    1    3    3    0    0 -0.11045464798E+01  0.92019245065E+00  0.13918792843E+01  0.20010260556E+01  0.51100000000E-03 0.  1.
         12    1    3    3    0    0  0.13013923213E+02  0.16239628346E+02  0.16387557561E+02  0.26488483705E+02  0.00000000000E+00 0. -1.
</event>
<event>
 7    1  0.4236733E-010  0.4778727E+02  0.7816164E-02  0.1312668E+00
        -11   -1    0    0    0    0  0.00000000000E+00  0.00000000000E+00  0.45593999997E+02  0.45594000000E+02  0.51100000000E-03 0.  1.
         11   -1    0    0    0    0 -0.00000000000E+00 -0.00000000000E+00 -0.45593999997E+02  0.45594000000E+02  0.51100000000E-03 0. -1.
    9900012    2    1    2    0    0  0.94018418691E+01  0.26543765782E+02 -0.33025096332E+02  0.47787272815E+02  0.20000008073E+02 0.  0.
        -12    1    1    2    0    0 -0.94018418691E+01 -0.26543765782E+02  0.33025096332E+02  0.43400727185E+02  0.00000000000E+00 0.  1.
         11    1    3    3    0    0 -0.85575574783E+00  0.13674509355E+01 -0.85560161077E+01  0.87067589755E+01  0.51100000000E-03 0. -1.
        -11    1    3    3    0    0  0.94905874587E+01  0.59207494835E+01 -0.95870012140E+01  0.14732179652E+02  0.51100000000E-03 0.  1.
         12    1    3    3    0    0  0.76701015829E+00  0.19255565363E+02 -0.14882079011E+02  0.24348334188E+02  0.00000000000E+00 0. -1.
</event>
<event>
 7    1  0.4236733E-010  0.4778726E+02  0.7816164E-02  0.1312668E+00
        -11   -1    0    0    0    0  0.00000000000E+00  0.00000000000E+00  0.45593999997E+02  0.45594000000E+02  0.51100000000E-03 0.  1.
         11   -1    0    0    0    0 -0.00000000000E+00 -0.00000000000E+00 -0.45593999997E+02  0.45594000000E+02  0.51100000000E-03 0. -1.
    9900012    2    1    2    0    0 -0.29340321302E+02  0.24059692537E+02  0.21068947681E+02  0.47787264805E+02  0.19999971551E+02 0.  0.
        -12    1    1    2    0    0  0.29340321302E+02 -0.24059692537E+02 -0.21068947681E+02  0.43400735195E+02  0.00000000000E+00 0.  1.
         11    1    3    3    0    0 -0.27878272512E+01  0.68556362400E+01  0.94420349256E+00  0.74607807590E+01  0.51100000000E-03 0. -1.
        -11    1    3    3    0    0  0.12827063475E+01  0.93056135023E+00 -0.91117131576E+00  0.18279806969E+01  0.51100000000E-03 0.  1.
         12    1    3    3    0    0 -0.27835200399E+02  0.16273494947E+02  0.21035915504E+02  0.38498503349E+02  0.00000000000E+00 0. -1.
</event>
<event>
 7    1  0.4236733E-010  0.4778726E+02  0.7816164E-02  0.1312668E+00
        -11   -1    0    0    0    0  0.00000000000E+00  0.00000000000E+00  0.45593999997E+02  0.45594000000E+02  0.51100000000E-03 0.  1.
         11   -1    0    0    0    0 -0.00000000000E+00 -0.00000000000E+00 -0.45593999997E+02  0.45594000000E+02  0.51100000000E-03 0. -1.
    9900012    2    1    2    0    0 -0.41544502212E+02  0.11178019017E+02 -0.57210171410E+01  0.47787264864E+02  0.19999971823E+02 0.  0.
        -12    1    1    2    0    0  0.41544502212E+02 -0.11178019017E+02  0.57210171410E+01  0.43400735136E+02  0.00000000000E+00 0.  1.
         11    1    3    3    0    0 -0.18397666955E+02  0.41606098497E+01 -0.80938257470E+01  0.20525468063E+02  0.51100000000E-03 0. -1.
        -11    1    3    3    0    0 -0.11104568299E+01  0.34537310229E+01 -0.25097690847E+01  0.44113845298E+01  0.51100000000E-03 0.  1.
         12    1    3    3    0    0 -0.22036378427E+02  0.35636781441E+01  0.48825776907E+01  0.22850412272E+02  0.00000000000E+00 0. -1.
</event>
<event>
 7    1  0.4236733E-010  0.4778730E+02  0.7816164E-02  0.1312668E+00
        -11   -1    0    0    0    0  0.00000000000E+00  0.00000000000E+00  0.45593999997E+02  0.45594000000E+02  0.51100000000E-03 0.  1.
         11   -1    0    0    0    0 -0.00000000000E+00 -0.00000000000E+00 -0.45593999997E+02  0.45594000000E+02  0.51100000000E-03 0. -1.
    9900012    2    1    2    0    0  0.27643190326E+02 -0.25525242769E+02 -0.21631845394E+02  0.47787300409E+02  0.20000133883E+02 0.  0.
        -12    1    1    2    0    0 -0.27643190326E+02  0.25525242769E+02  0.21631845394E+02  0.43400699591E+02  0.00000000000E+00 0.  1.
         11    1    3    3    0    0  0.15857351634E+02 -0.11263406470E+02 -0.17336787965E+02  0.26055405262E+02  0.51100000000E-03 0. -1.
        -11    1    3    3    0    0  0.97459549824E+01 -0.43981289367E+01  0.21801151594E+00  0.10694611070E+02  0.51100000000E-03 0.  1.
        -12    1    3    3    0    0  0.20398837102E+01 -0.98637073630E+01 -0.45130689448E+01  0.11037284077E+02  0.00000000000E+00 0.  1.
</event>
<event>
 7    1  0.4236733E-010  0.4778727E+02  0.7816164E-02  0.1312668E+00
        -11   -1    0    0    0    0  0.00000000000E+00  0.00000000000E+00  0.45593999997E+02  0.45594000000E+02  0.51100000000E-03 0.  1.
         11   -1    0    0    0    0 -0.00000000000E+00 -0.00000000000E+00 -0.45593999997E+02  0.45594000000E+02  0.51100000000E-03 0. -1.
    9900012    2    1    2    0    0 -0.31319300935E+02 -0.16290027808E+02 -0.25245982149E+02  0.47787271531E+02  0.20000002216E+02 0.  0.
        -12    1    1    2    0    0  0.31319300935E+02  0.16290027808E+02  0.25245982149E+02  0.43400728469E+02  0.00000000000E+00 0.  1.
         11    1    3    3    0    0 -0.25024343079E+02 -0.12711234288E+02 -0.24261892453E+02  0.37100305246E+02  0.51100000000E-03 0. -1.
        -11    1    3    3    0    0 -0.51572167834E+01 -0.58582600567E+00 -0.37921898351E+01  0.64281242261E+01  0.51100000000E-03 0.  1.
        -12    1    3    3    0    0 -0.11377410724E+01 -0.29929675138E+01  0.28081001395E+01  0.42588420586E+01  0.00000000000E+00 0.  1.
</event>
<event>
 7    1  0.4236733E-010  0.4778728E+02  0.7816164E-02  0.1312668E+00
        -11   -1    0    0    0    0  0.00000000000E+00  0.00000000000E+00  0.45593999997E+02  0.45594000000E+02  0.51100000000E-03 0.  1.
         11   -1    0    0    0    0 -0.00000000000E+00 -0.00000000000E+00 -0.45593999997E+02  0.45594000000E+02  0.51100000000E-03 0. -1.
    9900012    2    1    2    0    0  0.10725634888E+02  0.22084941751E+02 -0.35788811544E+02  0.47787275033E+02  0.20000018187E+02 0.  0.
        -12    1    1    2    0    0 -0.10725634888E+02 -0.22084941751E+02  0.35788811544E+02  0.43400724967E+02  0.00000000000E+00 0.  1.
         11    1    3    3    0    0 -0.34542887940E+01  0.72144977057E+01 -0.89876446092E+01  0.12031576958E+02  0.51100000000E-03 0.  1.
        -11    1    3    3    0    0  0.21198421927E+00  0.16034029728E+01 -0.10192969166E+02  0.10320487347E+02  0.51100000000E-03 0. -1.
        -12    1    3    3    0    0  0.13967939463E+02  0.13267041073E+02 -0.16608197769E+02  0.25435210728E+02  0.00000000000E+00 0.  1.
</event>
<event>
 7    1  0.4236733E-010  0.4778727E+02  0.7816164E-02  0.1312668E+00
        -11   -1    0    0    0    0  0.00000000000E+00  0.00000000000E+00  0.45593999997E+02  0.45594000000E+02  0.51100000000E-03 0.  1.
         11   -1    0    0    0    0 -0.00000000000E+00 -0.00000000000E+00 -0.45593999997E+02  0.45594000000E+02  0.51100000000E-03 0. -1.
    9900012    2    1    2    0    0 -0.67643792828E-01  0.15838131110E+02 -0.40407580290E+02  0.47787268236E+02  0.19999987197E+02 0.  0.
        -12    1    1    2    0    0  0.67643792828E-01 -0.15838131110E+02  0.40407580290E+02  0.43400731764E+02  0.00000000000E+00 0.  1.
         11    1    3    3    0    0 -0.68195677121E+00  0.25866157115E+01 -0.16348695292E+02  0.16566094406E+02  0.51100000000E-03 0. -1.
        -11    1    3    3    0    0 -0.34818403603E+01  0.58964410613E+01 -0.21281567471E+02  0.22356125420E+02  0.51100000000E-03 0.  1.
         12    1    3    3    0    0  0.40961533386E+01  0.73550743368E+01 -0.27773175268E+01  0.88650484104E+01  0.00000000000E+00 0. -1.
</event>
<event>
 7    1  0.4236733E-010  0.4778727E+02  0.7816164E-02  0.1312668E+00
        -11   -1    0    0    0    0  0.00000000000E+00  0.00000000000E+00  0.45593999997E+02  0.45594000000E+02  0.51100000000E-03 0.  1.
         11   -1    0    0    0    0 -0.00000000000E+00 -0.00000000000E+00 -0.45593999997E+02  0.45594000000E+02  0.51100000000E-03 0. -1.
    9900012    2    1    2    0    0  0.10561743749E+02  0.12643844793E+02 -0.40152282602E+02  0.47787273735E+02  0.20000012267E+02 0.  0.
        -12    1    1    2    0    0 -0.10561743749E+02 -0.12643844793E+02  0.40152282602E+02  0.43400726265E+02  0.00000000000E+00 0.  1.
         11    1    3    3    0    0 -0.18305606983E+00 -0.54185021430E-01  0.88177940719E+00  0.90220880361E+00  0.51100000000E-03 0. -1.
        -11    1    3    3    0    0  0.93481139631E+01 -0.11765910772E+00 -0.21914756310E+02  0.23825566577E+02  0.51100000000E-03 0.  1.
         12    1    3    3    0    0  0.13966858554E+01  0.12815688922E+02 -0.19119305700E+02  0.23059498354E+02  0.00000000000E+00 0. -1.
</event>
<event>
 7    1  0.4236733E-010  0.4778724E+02  0.7816164E-02  0.1312668E+00
        -11   -1    0    0    0    0  0.00000000000E+00  0.00000000000E+00  0.45593999997E+02  0.45594000000E+02  0.51100000000E-03 0. -1.
         11   -1    0    0    0    0 -0.00000000000E+00 -0.00000000000E+00 -0.45593999997E+02  0.45594000000E+02  0.51100000000E-03 0.  1.
    9900012    2    1    2    0    0  0.24361791754E+02  0.32522064685E+02  0.15246134142E+02  0.47787237390E+02  0.19999846556E+02 0.  0.
        -12    1    1    2    0    0 -0.24361791754E+02 -0.32522064685E+02 -0.15246134142E+02  0.43400762610E+02  0.00000000000E+00 0.  1.
         11    1    3    3    0    0  0.67930687888E+01  0.10179218811E+02  0.56728963672E+01  0.13488663115E+02  0.51100000000E-03 0. -1.
        -11    1    3    3    0    0  0.56385834615E+01  0.18664091893E+02  0.97795579289E+01  0.21812420847E+02  0.51100000000E-03 0.  1.
         12    1    3    3    0    0  0.11930139504E+02  0.36787539810E+01 -0.20632015422E+00  0.12486153429E+02  0.00000000000E+00 0. -1.
</event>
<event>
 7    1  0.4236733E-010  0.4778727E+02  0.7816164E-02  0.1312668E+00
        -11   -1    0    0    0    0  0.00000000000E+00  0.00000000000E+00  0.45593999997E+02  0.45594000000E+02  0.51100000000E-03 0.  1.
         11   -1    0    0    0    0 -0.00000000000E+00 -0.00000000000E+00 -0.45593999997E+02  0.45594000000E+02  0.51100000000E-03 0. -1.
    9900012    2    1    2    0    0 -0.39265120302E+02 -0.11322312734E+02 -0.14617758476E+02  0.47787270733E+02  0.19999998582E+02 0.  0.
        -12    1    1    2    0    0  0.39265120302E+02  0.11322312734E+02  0.14617758476E+02  0.43400729267E+02  0.00000000000E+00 0.  1.
         11    1    3    3    0    0 -0.11127431683E+02  0.46535613504E+01 -0.15768222214E+01  0.12163952387E+02  0.51100000000E-03 0. -1.
        -11    1    3    3    0    0 -0.43467925312E+01  0.24365925641E+00 -0.18788544022E+01  0.47417369463E+01  0.51100000000E-03 0.  1.
        -12    1    3    3    0    0 -0.23790896088E+02 -0.16219533341E+02 -0.11162081853E+02  0.30881581400E+02  0.00000000000E+00 0.  1.
</event>
<event>
 7    1  0.4236733E-010  0.4778727E+02  0.7816164E-02  0.1312668E+00
        -11   -1    0    0    0    0  0.00000000000E+00  0.00000000000E+00  0.45593999997E+02  0.45594000000E+02  0.51100000000E-03 0. -1.
         11   -1    0    0    0    0 -0.00000000000E+00 -0.00000000000E+00 -0.45593999997E+02  0.45594000000E+02  0.51100000000E-03 0.  1.
    9900012    2    1    2    0    0  0.10000837684E+02 -0.42229292570E+02 -0.54147232914E+00  0.47787273075E+02  0.20000009260E+02 0.  0.
        -12    1    1    2    0    0 -0.10000837684E+02  0.42229292570E+02  0.54147232914E+00  0.43400726925E+02  0.00000000000E+00 0.  1.
         11    1    3    3    0    0  0.18831126730E+01 -0.14092776392E+02 -0.54948602570E+01  0.15242898323E+02  0.51100000000E-03 0. -1.
        -11    1    3    3    0    0 -0.36464721100E+01 -0.86975018195E+01  0.18687184800E+01  0.96143333501E+01  0.51100000000E-03 0.  1.
        -12    1    3    3    0    0  0.11764197121E+02 -0.19439014358E+02  0.30846694478E+01  0.22930041402E+02  0.00000000000E+00 0.  1.
</event>
<event>
 7    1  0.9763856E-010  0.4778727E+02  0.7816164E-02  0.1312668E+00
        -11   -1    0    0    0    0  0.00000000000E+00  0.00000000000E+00  0.45593999997E+02  0.45594000000E+02  0.51100000000E-03 0. -1.
         11   -1    0    0    0    0 -0.00000000000E+00 -0.00000000000E+00 -0.45593999997E+02  0.45594000000E+02  0.51100000000E-03 0.  1.
    9900012    2    1    2    0    0  0.26566740825E+02  0.33248748171E+02 -0.85060248098E+01  0.47787269233E+02  0.19999991742E+02 0.  0.
        -12    1    1    2    0    0 -0.26566740825E+02 -0.33248748171E+02  0.85060248098E+01  0.43400730767E+02  0.00000000000E+00 0.  1.
         11    1    3    3    0    0  0.11932641853E+02  0.11886077101E+02 -0.38976339337E+01  0.17287519226E+02  0.51100000000E-03 0. -1.
        -11    1    3    3    0    0  0.47843900762E+01  0.19113062720E+02 -0.52053339257E+01  0.20378789377E+02  0.51100000000E-03 0.  1.
        -12    1    3    3    0    0  0.98497088964E+01  0.22496083493E+01  0.59694304957E+00  0.10120960630E+02  0.00000000000E+00 0.  1.
</event>
<event>
 7    1  0.4236733E-010  0.4778727E+02  0.7816164E-02  0.1312668E+00
        -11   -1    0    0    0    0  0.00000000000E+00  0.00000000000E+00  0.45593999997E+02  0.45594000000E+02  0.51100000000E-03 0.  1.
         11   -1    0    0    0    0 -0.00000000000E+00 -0.00000000000E+00 -0.45593999997E+02  0.45594000000E+02  0.51100000000E-03 0. -1.
    9900012    2    1    2    0    0 -0.17144127497E+02 -0.25539473955E+02 -0.30617600068E+02  0.47787271072E+02  0.20000000125E+02 0.  0.
        -12    1    1    2    0    0  0.17144127497E+02  0.25539473955E+02  0.30617600068E+02  0.43400728928E+02  0.00000000000E+00 0.  1.
         11    1    3    3    0    0 -0.99037649055E+00 -0.51258440251E+01 -0.66451709115E+01  0.84506460858E+01  0.51100000000E-03 0. -1.
        -11    1    3    3    0    0 -0.44819797413E+01 -0.17597601851E+02 -0.93778700455E+01  0.20437910366E+02  0.51100000000E-03 0.  1.
         12    1    3    3    0    0 -0.11671771266E+02 -0.28160280792E+01 -0.14594559111E+02  0.18898714620E+02  0.00000000000E+00 0. -1.
</event>
<event>
 7    1  0.4236733E-010  0.4778727E+02  0.7816164E-02  0.1312668E+00
        -11   -1    0    0    0    0  0.00000000000E+00  0.00000000000E+00  0.45593999997E+02  0.45594000000E+02  0.51100000000E-03 0.  1.
         11   -1    0    0    0    0 -0.00000000000E+00 -0.00000000000E+00 -0.45593999997E+02  0.45594000000E+02  0.51100000000E-03 0. -1.
    9900012    2    1    2    0    0  0.28713407277E+02 -0.21916893879E+02 -0.24058544549E+02  0.47787267742E+02  0.19999984941E+02 0.  0.
        -12    1    1    2    0    0 -0.28713407277E+02  0.21916893879E+02  0.24058544549E+02  0.43400732258E+02  0.00000000000E+00 0.  1.
         11    1    3    3    0    0  0.24876415737E+01 -0.32259200747E+01 -0.11609488379E+02  0.12303460555E+02  0.51100000000E-03 0. -1.
        -11    1    3    3    0    0  0.10579448342E+02 -0.33683632513E+01 -0.22618559495E+01  0.11330780680E+02  0.51100000000E-03 0.  1.
        -12    1    3    3    0    0  0.15646317361E+02 -0.15322610553E+02 -0.10187200220E+02  0.24153026507E+02  0.00000000000E+00 0.  1.
</event>
<event>
 7    1  0.4236733E-010  0.4778726E+02  0.7816164E-02  0.1312668E+00
        -11   -1    0    0    0    0  0.00000000000E+00  0.00000000000E+00  0.45593999997E+02  0.45594000000E+02  0.51100000000E-03 0.  1.
         11   -1    0    0    0    0 -0.00000000000E+00 -0.00000000000E+00 -0.45593999997E+02  0.45594000000E+02  0.51100000000E-03 0. -1.
    9900012    2    1    2    0    0 -0.15133144445E+02 -0.39619428292E+01 -0.40483516665E+02  0.47787260683E+02  0.19999952756E+02 0.  0.
        -12    1    1    2    0    0  0.15133144445E+02  0.39619428292E+01  0.40483516665E+02  0.43400739317E+02  0.00000000000E+00 0.  1.
         11    1    3    3    0    0 -0.13671175480E+01 -0.18944763906E+01 -0.29994738760E+01  0.38019593605E+01  0.51100000000E-03 0. -1.
        -11    1    3    3    0    0  0.34718406530E+01  0.22714912087E+01 -0.13559448269E+02  0.14179985453E+02  0.51100000000E-03 0.  1.
        -12    1    3    3    0    0 -0.17237867550E+02 -0.43389576473E+01 -0.23924594520E+02  0.29805315869E+02  0.00000000000E+00 0.  1.
</event>
<event>
 7    1  0.4236733E-010  0.4778727E+02  0.7816164E-02  0.1312668E+00
        -11   -1    0    0    0    0  0.00000000000E+00  0.00000000000E+00  0.45593999997E+02  0.45594000000E+02  0.51100000000E-03 0.  1.
         11   -1    0    0    0    0 -0.00000000000E+00 -0.00000000000E+00 -0.45593999997E+02  0.45594000000E+02  0.51100000000E-03 0. -1.
    9900012    2    1    2    0    0  0.35266426473E+02  0.20371199114E+02 -0.14997217472E+02  0.47787272801E+02  0.20000008008E+02 0.  0.
        -12    1    1    2    0    0 -0.35266426473E+02 -0.20371199114E+02  0.14997217472E+02  0.43400727199E+02  0.00000000000E+00 0.  1.
         11    1    3    3    0    0  0.11731173217E+02  0.13855712716E+02 -0.97889901506E+01  0.20625846124E+02  0.51100000000E-03 0. -1.
        -11    1    3    3    0    0  0.30135306549E+01  0.45623704647E+01  0.11525733651E+01  0.55879349395E+01  0.51100000000E-03 0.  1.
         12    1    3    3    0    0  0.20521722601E+02  0.19531159334E+01 -0.63608006865E+01  0.21573491737E+02  0.00000000000E+00 0. -1.
</event>
<event>
 7    1  0.4236733E-010  0.4778727E+02  0.7816164E-02  0.1312668E+00
        -11   -1    0    0    0    0  0.00000000000E+00  0.00000000000E+00  0.45593999997E+02  0.45594000000E+02  0.51100000000E-03 0.  1.
         11   -1    0    0    0    0 -0.00000000000E+00 -0.00000000000E+00 -0.45593999997E+02  0.45594000000E+02  0.51100000000E-03 0. -1.
    9900012    2    1    2    0    0 -0.62776324537E+01 -0.16586778076E+02 -0.39611782803E+02  0.47787271746E+02  0.20000003197E+02 0.  0.
        -12    1    1    2    0    0  0.62776324537E+01  0.16586778076E+02  0.39611782803E+02  0.43400728254E+02  0.00000000000E+00 0.  1.
         11    1    3    3    0    0  0.18534339499E+01 -0.93159041849E+01 -0.75972705296E+01  0.12163050931E+02  0.51100000000E-03 0. -1.
        -11    1    3    3    0    0 -0.81013095710E+00  0.20805853551E+01 -0.10639089241E+01  0.24732670796E+01  0.51100000000E-03 0.  1.
         12    1    3    3    0    0 -0.73209354465E+01 -0.93514592461E+01 -0.30950603349E+02  0.33150953735E+02  0.00000000000E+00 0. -1.
</event>
<event>
 7    1  0.4236733E-010  0.4778727E+02  0.7816164E-02  0.1312668E+00
        -11   -1    0    0    0    0  0.00000000000E+00  0.00000000000E+00  0.45593999997E+02  0.45594000000E+02  0.51100000000E-03 0.  1.
         11   -1    0    0    0    0 -0.00000000000E+00 -0.00000000000E+00 -0.45593999997E+02  0.45594000000E+02  0.51100000000E-03 0. -1.
    9900012    2    1    2    0    0 -0.40257160661E+02 -0.14194101567E+01 -0.16154545414E+02  0.47787273656E+02  0.20000011905E+02 0.  0.
        -12    1    1    2    0    0  0.40257160661E+02  0.14194101567E+01  0.16154545414E+02  0.43400726344E+02  0.00000000000E+00 0.  1.
         11    1    3    3    0    0 -0.13509370712E+01  0.15395167050E+01 -0.24906467576E+01  0.32246649730E+01  0.51100000000E-03 0. -1.
        -11    1    3    3    0    0 -0.29775575797E+02  0.33743817419E+01 -0.47998437929E+01  0.30348144373E+02  0.51100000000E-03 0.  1.
         12    1    3    3    0    0 -0.91306477929E+01 -0.63333086036E+01 -0.88640548634E+01  0.14214464310E+02  0.00000000000E+00 0. -1.
</event>
<event>
 7    1  0.4236733E-010  0.4778727E+02  0.7816164E-02  0.1312668E+00
        -11   -1    0    0    0    0  0.00000000000E+00  0.00000000000E+00  0.45593999997E+02  0.45594000000E+02  0.51100000000E-03 0. -1.
         11   -1    0    0    0    0 -0.00000000000E+00 -0.00000000000E+00 -0.45593999997E+02  0.45594000000E+02  0.51100000000E-03 0.  1.
    9900012    2    1    2    0    0  0.36046960656E+02 -0.23541147221E+02  0.54821575575E+01  0.47787273779E+02  0.20000012467E+02 0.  0.
        -12    1    1    2    0    0 -0.36046960656E+02  0.23541147221E+02 -0.54821575575E+01  0.43400726221E+02  0.00000000000E+00 0.  1.
         11    1    3    3    0    0  0.12023449365E+02 -0.40896570322E+01 -0.12433732491E+01  0.12760666385E+02  0.51100000000E-03 0. -1.
        -11    1    3    3    0    0  0.21993126317E+01  0.25242371402E+01  0.72773670835E-01  0.33487378906E+01  0.51100000000E-03 0.  1.
        -12    1    3    3    0    0  0.21824198659E+02 -0.21975727329E+02  0.66527571357E+01  0.31677869503E+02  0.00000000000E+00 0.  1.
</event>
<event>
 7    1  0.4236733E-010  0.4778727E+02  0.7816164E-02  0.1312668E+00
        -11   -1    0    0    0    0  0.00000000000E+00  0.00000000000E+00  0.45593999997E+02  0.45594000000E+02  0.51100000000E-03 0. -1.
         11   -1    0    0    0    0 -0.00000000000E+00 -0.00000000000E+00 -0.45593999997E+02  0.45594000000E+02  0.51100000000E-03 0.  1.
    9900012    2    1    2    0    0  0.70497811657E+01 -0.32872888248E+02  0.27446265736E+02  0.47787266146E+02  0.19999977664E+02 0.  0.
        -12    1    1    2    0    0 -0.70497811657E+01  0.32872888248E+02 -0.27446265736E+02  0.43400733854E+02  0.00000000000E+00 0.  1.
         11    1    3    3    0    0 -0.77539506840E+00 -0.14867947658E+02  0.94540798835E+01  0.17636233492E+02  0.51100000000E-03 0. -1.
        -11    1    3    3    0    0  0.56017523575E+01 -0.17696995024E+02  0.19893962245E+02  0.27209060925E+02  0.51100000000E-03 0.  1.
        -12    1    3    3    0    0  0.22234238766E+01 -0.30794556560E+00 -0.19017763921E+01  0.29419717286E+01  0.00000000000E+00 0.  1.
</event>
<event>
 7    1  0.4236733E-010  0.4778727E+02  0.7816164E-02  0.1312668E+00
        -11   -1    0    0    0    0  0.00000000000E+00  0.00000000000E+00  0.45593999997E+02  0.45594000000E+02  0.51100000000E-03 0.  1.
         11   -1    0    0    0    0 -0.00000000000E+00 -0.00000000000E+00 -0.45593999997E+02  0.45594000000E+02  0.51100000000E-03 0. -1.
    9900012    2    1    2    0    0  0.96676998294E+01 -0.10669619826E+02 -0.40942862095E+02  0.47787272313E+02  0.20000005783E+02 0.  0.
        -12    1    1    2    0    0 -0.96676998294E+01  0.10669619826E+02  0.40942862095E+02  0.43400727687E+02  0.00000000000E+00 0.  1.
         11    1    3    3    0    0  0.74661764109E+01  0.20778585533E+01 -0.12877908643E+02  0.15030030527E+02  0.51100000000E-03 0. -1.
        -11    1    3    3    0    0 -0.70429305888E+00  0.12849276720E+00 -0.11747525597E+02  0.11769320160E+02  0.51100000000E-03 0.  1.
        -12    1    3    3    0    0  0.29058164774E+01 -0.12875971147E+02 -0.16317427855E+02  0.20987921626E+02  0.00000000000E+00 0.  1.
</event>
<event>
 7    1  0.4236733E-010  0.4778727E+02  0.7816164E-02  0.1312668E+00
        -11   -1    0    0    0    0  0.00000000000E+00  0.00000000000E+00  0.45593999997E+02  0.45594000000E+02  0.51100000000E-03 0. -1.
         11   -1    0    0    0    0 -0.00000000000E+00 -0.00000000000E+00 -0.45593999997E+02  0.45594000000E+02  0.51100000000E-03 0.  1.
    9900012    2    1    2    0    0 -0.20033274536E+02 -0.26136046393E+02  0.28270091349E+02  0.47787273340E+02  0.20000010466E+02 0.  0.
        -12    1    1    2    0    0  0.20033274536E+02  0.26136046393E+02 -0.28270091349E+02  0.43400726660E+02  0.00000000000E+00 0.  1.
         11    1    3    3    0    0 -0.11858226678E+02 -0.96033249840E+01  0.13657586539E+02  0.20478551243E+02  0.51100000000E-03 0. -1.
        -11    1    3    3    0    0 -0.24549083221E+01  0.21854438161E+01  0.89097936171E+00  0.34053757543E+01  0.51100000000E-03 0.  1.
         12    1    3    3    0    0 -0.57201395360E+01 -0.18718165226E+02  0.13721525449E+02  0.23903346343E+02  0.00000000000E+00 0. -1.
</event>
<event>
 7    1  0.4236733E-010  0.4778727E+02  0.7816164E-02  0.1312668E+00
        -11   -1    0    0    0    0  0.00000000000E+00  0.00000000000E+00  0.45593999997E+02  0.45594000000E+02  0.51100000000E-03 0.  1.
         11   -1    0    0    0    0 -0.00000000000E+00 -0.00000000000E+00 -0.45593999997E+02  0.45594000000E+02  0.51100000000E-03 0. -1.
    9900012    2    1    2    0    0  0.83155685646E+01 -0.39566023464E+02 -0.15779875297E+02  0.47787270079E+02  0.19999995599E+02 0.  0.
        -12    1    1    2    0    0 -0.83155685646E+01  0.39566023464E+02  0.15779875297E+02  0.43400729921E+02  0.00000000000E+00 0.  1.
         11    1    3    3    0    0 -0.11101145465E+01 -0.13983087714E+02 -0.11831994934E+02  0.18350891006E+02  0.51100000000E-03 0. -1.
        -11    1    3    3    0    0 -0.16222253078E+01 -0.37597611377E+01  0.15280157238E+01  0.43706122083E+01  0.51100000000E-03 0.  1.
         12    1    3    3    0    0  0.11047908419E+02 -0.21823174612E+02 -0.54758960863E+01  0.25065766865E+02  0.00000000000E+00 0. -1.
</event>
<event>
 7    1  0.4236733E-010  0.4778727E+02  0.7816164E-02  0.1312668E+00
        -11   -1    0    0    0    0  0.00000000000E+00  0.00000000000E+00  0.45593999997E+02  0.45594000000E+02  0.51100000000E-03 0.  1.
         11   -1    0    0    0    0 -0.00000000000E+00 -0.00000000000E+00 -0.45593999997E+02  0.45594000000E+02  0.51100000000E-03 0. -1.
    9900012    2    1    2    0    0 -0.47638260263E+01 -0.32407678334E+02 -0.28472299705E+02  0.47787268394E+02  0.19999987918E+02 0.  0.
        -12    1    1    2    0    0  0.47638260263E+01  0.32407678334E+02  0.28472299705E+02  0.43400731606E+02  0.00000000000E+00 0.  1.
         11    1    3    3    0    0 -0.11287027954E+02 -0.14641272480E+02 -0.14456993959E+02  0.23468458289E+02  0.51100000000E-03 0. -1.
        -11    1    3    3    0    0 -0.44724587938E+00 -0.62309396950E+01 -0.58619392838E+01  0.85666195659E+01  0.51100000000E-03 0.  1.
        -12    1    3    3    0    0  0.69704478069E+01 -0.11535466158E+02 -0.81533664627E+01  0.15752190540E+02  0.00000000000E+00 0.  1.
</event>
<event>
 7    1  0.4236733E-010  0.4778727E+02  0.7816164E-02  0.1312668E+00
        -11   -1    0    0    0    0  0.00000000000E+00  0.00000000000E+00  0.45593999997E+02  0.45594000000E+02  0.51100000000E-03 0.  1.
         11   -1    0    0    0    0 -0.00000000000E+00 -0.00000000000E+00 -0.45593999997E+02  0.45594000000E+02  0.51100000000E-03 0. -1.
    9900012    2    1    2    0    0  0.32631806762E+02  0.28369934054E+02 -0.37329671514E+01  0.47787274032E+02  0.20000013623E+02 0.  0.
        -12    1    1    2    0    0 -0.32631806762E+02 -0.28369934054E+02  0.37329671514E+01  0.43400725968E+02  0.00000000000E+00 0.  1.
         11    1    3    3    0    0  0.93707618508E+01  0.77701464676E+01 -0.60296932630E+01  0.13584680891E+02  0.51100000000E-03 0. -1.
        -11    1    3    3    0    0 -0.43819503796E+00  0.50690267588E+01 -0.21453817941E+01  0.55217488603E+01  0.51100000000E-03 0.  1.
         12    1    3    3    0    0  0.23699239949E+02  0.15530760828E+02  0.44421079056E+01  0.28680844281E+02  0.00000000000E+00 0. -1.
</event>
<event>
 7    1  0.4236733E-010  0.4778727E+02  0.7816164E-02  0.1312668E+00
        -11   -1    0    0    0    0  0.00000000000E+00  0.00000000000E+00  0.45593999997E+02  0.45594000000E+02  0.51100000000E-03 0.  1.
         11   -1    0    0    0    0 -0.00000000000E+00 -0.00000000000E+00 -0.45593999997E+02  0.45594000000E+02  0.51100000000E-03 0. -1.
    9900012    2    1    2    0    0 -0.18943423694E+02  0.24141807570E+02 -0.30691091001E+02  0.47787271425E+02  0.20000001735E+02 0.  0.
        -12    1    1    2    0    0  0.18943423694E+02 -0.24141807570E+02  0.30691091001E+02  0.43400728575E+02  0.00000000000E+00 0.  1.
         11    1    3    3    0    0 -0.79759043224E+01  0.12850450824E+02 -0.26361346653E+02  0.30391935341E+02  0.51100000000E-03 0. -1.
        -11    1    3    3    0    0 -0.28031576812E+01 -0.13219695402E+00 -0.76804573275E+00  0.29094782228E+01  0.51100000000E-03 0.  1.
         12    1    3    3    0    0 -0.81643616909E+01  0.11423553700E+02 -0.35616986154E+01  0.14485857862E+02  0.00000000000E+00 0. -1.
</event>
<event>
 7    1  0.4236733E-010  0.4778726E+02  0.7816164E-02  0.1312668E+00
        -11   -1    0    0    0    0  0.00000000000E+00  0.00000000000E+00  0.45593999997E+02  0.45594000000E+02  0.51100000000E-03 0.  1.
         11   -1    0    0    0    0 -0.00000000000E+00 -0.00000000000E+00 -0.45593999997E+02  0.45594000000E+02  0.51100000000E-03 0. -1.
    9900012    2    1    2    0    0 -0.36504974503E+02 -0.23188274179E+02  0.36489289850E+01  0.47787263766E+02  0.19999966816E+02 0.  0.
        -12    1    1    2    0    0  0.36504974503E+02  0.23188274179E+02 -0.36489289850E+01  0.43400736234E+02  0.00000000000E+00 0.  1.
         11    1    3    3    0    0  0.87839967092E+00 -0.13890439897E+01  0.40139708087E+00  0.16917887176E+01  0.51100000000E-03 0. -1.
        -11    1    3    3    0    0 -0.69401624628E+01 -0.10864103481E+02 -0.27879173795E+01  0.13189658185E+02  0.51100000000E-03 0.  1.
         12    1    3    3    0    0 -0.30443211711E+02 -0.10935126709E+02  0.60354492837E+01  0.32905816864E+02  0.00000000000E+00 0. -1.
</event>
<event>
 7    1  0.4236733E-010  0.4778727E+02  0.7816164E-02  0.1312668E+00
        -11   -1    0    0    0    0  0.00000000000E+00  0.00000000000E+00  0.45593999997E+02  0.45594000000E+02  0.51100000000E-03 0. -1.
         11   -1    0    0    0    0 -0.00000000000E+00 -0.00000000000E+00 -0.45593999997E+02  0.45594000000E+02  0.51100000000E-03 0.  1.
    9900012    2    1    2    0    0 -0.23306142514E+02  0.23715244076E+01  0.36535229453E+02  0.47787269614E+02  0.19999993477E+02 0.  0.
        -12    1    1    2    0    0  0.23306142514E+02 -0.23715244076E+01 -0.36535229453E+02  0.43400730386E+02  0.00000000000E+00 0.  1.
         11    1    3    3    0    0 -0.70060094872E+01  0.38243059604E+01  0.90164767319E+01  0.12041857744E+02  0.51100000000E-03 0. -1.
        -11    1    3    3    0    0 -0.21384027315E+00 -0.12205451160E+01 -0.18688703424E+01  0.22423502538E+01  0.51100000000E-03 0.  1.
         12    1    3    3    0    0 -0.16086292753E+02 -0.23223643680E+00  0.29387623064E+02  0.33503061616E+02  0.00000000000E+00 0. -1.
</event>
<event>
 7    1  0.4236733E-010  0.4778727E+02  0.7816164E-02  0.1312668E+00
        -11   -1    0    0    0    0  0.00000000000E+00  0.00000000000E+00  0.45593999997E+02  0.45594000000E+02  0.51100000000E-03 0.  1.
         11   -1    0    0    0    0 -0.00000000000E+00 -0.00000000000E+00 -0.45593999997E+02  0.45594000000E+02  0.51100000000E-03 0. -1.
    9900012    2    1    2    0    0  0.28379393907E+02  0.16362252358E+02 -0.28469459050E+02  0.47787269599E+02  0.19999993410E+02 0.  0.
        -12    1    1    2    0    0 -0.28379393907E+02 -0.16362252358E+02  0.28469459050E+02  0.43400730401E+02  0.00000000000E+00 0.  1.
         11    1    3    3    0    0  0.64115259870E+01 -0.21242289118E+01 -0.26743626644E+01  0.72644497295E+01  0.51100000000E-03 0. -1.
        -11    1    3    3    0    0  0.72027402943E+00 -0.17340098708E+01 -0.10734772238E+01  0.21628542532E+01  0.51100000000E-03 0.  1.
         12    1    3    3    0    0  0.21247593890E+02  0.20220491141E+02 -0.24721619162E+02  0.38359965616E+02  0.00000000000E+00 0. -1.
</event>
<event>
 7    1  0.4236733E-010  0.4778727E+02  0.7816164E-02  0.1312668E+00
        -11   -1    0    0    0    0  0.00000000000E+00  0.00000000000E+00  0.45593999997E+02  0.45594000000E+02  0.51100000000E-03 0. -1.
         11   -1    0    0    0    0 -0.00000000000E+00 -0.00000000000E+00 -0.45593999997E+02  0.45594000000E+02  0.51100000000E-03 0.  1.
    9900012    2    1    2    0    0  0.80655358847E+01  0.38940896929E+02  0.17383239293E+02  0.47787270386E+02  0.19999996996E+02 0.  0.
        -12    1    1    2    0    0 -0.80655358847E+01 -0.38940896929E+02 -0.17383239293E+02  0.43400729614E+02  0.00000000000E+00 0.  1.
         11    1    3    3    0    0  0.68549662734E+01  0.22560741843E+02  0.80578571491E+01  0.24917999463E+02  0.51100000000E-03 0. -1.
        -11    1    3    3    0    0  0.30777170797E+01  0.57152183076E+01 -0.23897127192E+01  0.69171374041E+01  0.51100000000E-03 0.  1.
         12    1    3    3    0    0 -0.18671474684E+01  0.10664936778E+02  0.11715094863E+02  0.15952133519E+02  0.00000000000E+00 0. -1.
</event>
<event>
 7    1  0.4236733E-010  0.4778727E+02  0.7816164E-02  0.1312668E+00
        -11   -1    0    0    0    0  0.00000000000E+00  0.00000000000E+00  0.45593999997E+02  0.45594000000E+02  0.51100000000E-03 0.  1.
         11   -1    0    0    0    0 -0.00000000000E+00 -0.00000000000E+00 -0.45593999997E+02  0.45594000000E+02  0.51100000000E-03 0. -1.
    9900012    2    1    2    0    0  0.83266454664E+01 -0.15227279277E+02 -0.39779645693E+02  0.47787271085E+02  0.20000000183E+02 0.  0.
        -12    1    1    2    0    0 -0.83266454664E+01  0.15227279277E+02  0.39779645693E+02  0.43400728915E+02  0.00000000000E+00 0.  1.
         11    1    3    3    0    0  0.35461701108E+00 -0.89032104784E+01 -0.19480288869E+02  0.21421357677E+02  0.51100000000E-03 0. -1.
        -11    1    3    3    0    0  0.78957913760E+01 -0.27739088572E+01 -0.21123178961E+02  0.22720624584E+02  0.51100000000E-03 0.  1.
        -12    1    3    3    0    0  0.76237079368E-01 -0.35501599412E+01  0.82382213612E+00  0.36452888243E+01  0.00000000000E+00 0.  1.
</event>
<event>
 7    1  0.4236733E-010  0.4778727E+02  0.7816164E-02  0.1312668E+00
        -11   -1    0    0    0    0  0.00000000000E+00  0.00000000000E+00  0.45593999997E+02  0.45594000000E+02  0.51100000000E-03 0.  1.
         11   -1    0    0    0    0 -0.00000000000E+00 -0.00000000000E+00 -0.45593999997E+02  0.45594000000E+02  0.51100000000E-03 0. -1.
    9900012    2    1    2    0    0 -0.56439681132E+00 -0.45242763955E+01 -0.43160581680E+02  0.47787269227E+02  0.19999991714E+02 0.  0.
        -12    1    1    2    0    0  0.56439681132E+00  0.45242763955E+01  0.43160581680E+02  0.43400730773E+02  0.00000000000E+00 0.  1.
         11    1    3    3    0    0  0.14716949798E+01 -0.68742577266E+00 -0.39932862331E+01  0.43110063219E+01  0.51100000000E-03 0. -1.
        -11    1    3    3    0    0 -0.10143422544E+02 -0.35890234956E+01 -0.22275700749E+02  0.24738167973E+02  0.51100000000E-03 0.  1.
        -12    1    3    3    0    0  0.81073307533E+01 -0.24782712721E+00 -0.16891594698E+02  0.18738094932E+02  0.00000000000E+00 0.  1.
</event>
<event>
 7    1  0.4236733E-010  0.4778727E+02  0.7816164E-02  0.1312668E+00
        -11   -1    0    0    0    0  0.00000000000E+00  0.00000000000E+00  0.45593999997E+02  0.45594000000E+02  0.51100000000E-03 0. -1.
         11   -1    0    0    0    0 -0.00000000000E+00 -0.00000000000E+00 -0.45593999997E+02  0.45594000000E+02  0.51100000000E-03 0.  1.
    9900012    2    1    2    0    0  0.23211504224E+01  0.18815866104E+02  0.39040988372E+02  0.47787270403E+02  0.19999997073E+02 0.  0.
        -12    1    1    2    0    0 -0.23211504224E+01 -0.18815866104E+02 -0.39040988372E+02  0.43400729597E+02  0.00000000000E+00 0.  1.
         11    1    3    3    0    0  0.14683905148E+01  0.11342738317E+02  0.14580478868E+02  0.18531169621E+02  0.51100000000E-03 0. -1.
        -11    1    3    3    0    0  0.28613233115E+01  0.69471833838E+01  0.36693007351E+01  0.83614769154E+01  0.51100000000E-03 0.  1.
         12    1    3    3    0    0 -0.20085634039E+01  0.52594440389E+00  0.20791208768E+02  0.20894623866E+02  0.00000000000E+00 0. -1.
</event>
<event>
 7    1  0.4236733E-010  0.4778726E+02  0.7816164E-02  0.1312668E+00
        -11   -1    0    0    0    0  0.00000000000E+00  0.00000000000E+00  0.45593999997E+02  0.45594000000E+02  0.51100000000E-03 0.  1.
         11   -1    0    0    0    0 -0.00000000000E+00 -0.00000000000E+00 -0.45593999997E+02  0.45594000000E+02  0.51100000000E-03 0. -1.
    9900012    2    1    2    0    0 -0.84621235409E+01  0.17641710189E+02 -0.38739994339E+02  0.47787255369E+02  0.19999928527E+02 0.  0.
        -12    1    1    2    0    0  0.84621235409E+01 -0.17641710189E+02  0.38739994339E+02  0.43400744631E+02  0.00000000000E+00 0.  1.
         11    1    3    3    0    0  0.55458947099E+00  0.74168887058E+01 -0.97669123788E+01  0.12276415814E+02  0.51100000000E-03 0. -1.
        -11    1    3    3    0    0  0.37944651141E+01  0.47920990645E+01 -0.12734593438E+02  0.14125581377E+02  0.51100000000E-03 0.  1.
        -12    1    3    3    0    0 -0.12811178126E+02  0.54327224184E+01 -0.16238488522E+02  0.21385258178E+02  0.00000000000E+00 0.  1.
</event>
<event>
 7    1  0.4236733E-010  0.4778727E+02  0.7816164E-02  0.1312668E+00
        -11   -1    0    0    0    0  0.00000000000E+00  0.00000000000E+00  0.45593999997E+02  0.45594000000E+02  0.51100000000E-03 0.  1.
         11   -1    0    0    0    0 -0.00000000000E+00 -0.00000000000E+00 -0.45593999997E+02  0.45594000000E+02  0.51100000000E-03 0. -1.
    9900012    2    1    2    0    0 -0.40737312489E+02  0.13984841302E+02  0.53403274320E+01  0.47787268299E+02  0.19999987482E+02 0.  0.
        -12    1    1    2    0    0  0.40737312489E+02 -0.13984841302E+02 -0.53403274320E+01  0.43400731701E+02  0.00000000000E+00 0.  1.
         11    1    3    3    0    0 -0.11735636206E+02  0.21705161755E+01  0.51648316657E+01  0.13004298675E+02  0.51100000000E-03 0. -1.
        -11    1    3    3    0    0 -0.99951277052E+01  0.58718096659E+01  0.72234630464E+01  0.13658665573E+02  0.51100000000E-03 0.  1.
         12    1    3    3    0    0 -0.19006548578E+02  0.59425154606E+01 -0.70479672801E+01  0.21124304051E+02  0.00000000000E+00 0. -1.
</event>
<event>
 7    1  0.4236733E-010  0.4778727E+02  0.7816164E-02  0.1312668E+00
        -11   -1    0    0    0    0  0.00000000000E+00  0.00000000000E+00  0.45593999997E+02  0.45594000000E+02  0.51100000000E-03 0.  1.
         11   -1    0    0    0    0 -0.00000000000E+00 -0.00000000000E+00 -0.45593999997E+02  0.45594000000E+02  0.51100000000E-03 0. -1.
    9900012    2    1    2    0    0 -0.31936310650E+02 -0.29259055336E+02  0.27573727772E+01  0.47787270033E+02  0.19999995387E+02 0.  0.
        -12    1    1    2    0    0  0.31936310650E+02  0.29259055336E+02 -0.27573727772E+01  0.43400729967E+02  0.00000000000E+00 0.  1.
         11    1    3    3    0    0 -0.43159973754E+01 -0.77723650309E+01 -0.39578382781E+01  0.97314940073E+01  0.51100000000E-03 0. -1.
        -11    1    3    3    0    0 -0.40554544136E+01 -0.10669304254E+02  0.68439606227E+00  0.11434559983E+02  0.51100000000E-03 0.  1.
         12    1    3    3    0    0 -0.23564858861E+02 -0.10817386050E+02  0.60308149930E+01  0.26621216042E+02  0.00000000000E+00 0. -1.
</event>
<event>
 7    1  0.4236733E-010  0.4778727E+02  0.7816164E-02  0.1312668E+00
        -11   -1    0    0    0    0  0.00000000000E+00  0.00000000000E+00  0.45593999997E+02  0.45594000000E+02  0.51100000000E-03 0.  1.
         11   -1    0    0    0    0 -0.00000000000E+00 -0.00000000000E+00 -0.45593999997E+02  0.45594000000E+02  0.51100000000E-03 0. -1.
    9900012    2    1    2    0    0  0.37907829140E+02  0.20941120746E+02  0.28441761369E+01  0.47787269751E+02  0.19999994103E+02 0.  0.
        -12    1    1    2    0    0 -0.37907829140E+02 -0.20941120746E+02 -0.28441761369E+01  0.43400730249E+02  0.00000000000E+00 0.  1.
         11    1    3    3    0    0  0.21243086586E+02  0.94209273405E+01  0.42066455855E+01  0.23616063749E+02  0.51100000000E-03 0. -1.
        -11    1    3    3    0    0  0.10356241987E+02 -0.68837556162E+00 -0.21622306516E+00  0.10381346814E+02  0.51100000000E-03 0.  1.
         12    1    3    3    0    0  0.63085005677E+01  0.12208568968E+02 -0.11462463834E+01  0.13789859188E+02  0.00000000000E+00 0. -1.
</event>
<event>
 7    1  0.4236733E-010  0.4778727E+02  0.7816164E-02  0.1312668E+00
        -11   -1    0    0    0    0  0.00000000000E+00  0.00000000000E+00  0.45593999997E+02  0.45594000000E+02  0.51100000000E-03 0.  1.
         11   -1    0    0    0    0 -0.00000000000E+00 -0.00000000000E+00 -0.45593999997E+02  0.45594000000E+02  0.51100000000E-03 0. -1.
    9900012    2    1    2    0    0  0.28698870127E+02  0.31520290879E+02 -0.81528614409E+01  0.47787273816E+02  0.20000012636E+02 0.  0.
        -12    1    1    2    0    0 -0.28698870127E+02 -0.31520290879E+02  0.81528614409E+01  0.43400726184E+02  0.00000000000E+00 0.  1.
         11    1    3    3    0    0  0.67903156035E+01  0.14782758772E+02 -0.16609699438E+01  0.16352283153E+02  0.51100000000E-03 0. -1.
        -11    1    3    3    0    0  0.13315062502E+02  0.17298013332E+02 -0.25959447150E+01  0.21982972591E+02  0.51100000000E-03 0.  1.
        -12    1    3    3    0    0  0.85934920209E+01 -0.56048122531E+00 -0.38959467820E+01  0.94520180726E+01  0.00000000000E+00 0.  1.
</event>
<event>
 7    1  0.4236733E-010  0.4778727E+02  0.7816164E-02  0.1312668E+00
        -11   -1    0    0    0    0  0.00000000000E+00  0.00000000000E+00  0.45593999997E+02  0.45594000000E+02  0.51100000000E-03 0.  1.
         11   -1    0    0    0    0 -0.00000000000E+00 -0.00000000000E+00 -0.45593999997E+02  0.45594000000E+02  0.51100000000E-03 0. -1.
    9900012    2    1    2    0    0  0.36457672086E+02 -0.23271575797E+02 -0.35910299589E+01  0.47787267401E+02  0.19999983387E+02 0.  0.
        -12    1    1    2    0    0 -0.36457672086E+02  0.23271575797E+02  0.35910299589E+01  0.43400732599E+02  0.00000000000E+00 0.  1.
         11    1    3    3    0    0  0.48138049776E+01 -0.87508628072E-01  0.66479740134E+00  0.48602810586E+01  0.51100000000E-03 0. -1.
        -11    1    3    3    0    0  0.15730414222E+02 -0.14412390988E+02  0.58671866469E+01  0.22126608981E+02  0.51100000000E-03 0.  1.
         12    1    3    3    0    0  0.15913452886E+02 -0.87716761814E+01 -0.10123014007E+02  0.20800377361E+02  0.00000000000E+00 0. -1.
</event>
<event>
 7    1  0.4236733E-010  0.4778727E+02  0.7816164E-02  0.1312668E+00
        -11   -1    0    0    0    0  0.00000000000E+00  0.00000000000E+00  0.45593999997E+02  0.45594000000E+02  0.51100000000E-03 0.  1.
         11   -1    0    0    0    0 -0.00000000000E+00 -0.00000000000E+00 -0.45593999997E+02  0.45594000000E+02  0.51100000000E-03 0. -1.
    9900012    2    1    2    0    0  0.77063524353E+01  0.41837671321E+02  0.85932839132E+01  0.47787272612E+02  0.20000007145E+02 0.  0.
        -12    1    1    2    0    0 -0.77063524353E+01 -0.41837671321E+02 -0.85932839132E+01  0.43400727388E+02  0.00000000000E+00 0.  1.
         11    1    3    3    0    0  0.25517510806E+01  0.52729308448E+01 -0.13512859562E+00  0.58594789247E+01  0.51100000000E-03 0. -1.
        -11    1    3    3    0    0 -0.30391678893E+01 -0.38977369018E+00  0.14182245228E+01  0.33763628430E+01  0.51100000000E-03 0.  1.
         12    1    3    3    0    0  0.81937692441E+01  0.36954514167E+02  0.73101879860E+01  0.38551430844E+02  0.00000000000E+00 0. -1.
</event>
<event>
 7    1  0.4236733E-010  0.4778727E+02  0.7816164E-02  0.1312668E+00
        -11   -1    0    0    0    0  0.00000000000E+00  0.00000000000E+00  0.45593999997E+02  0.45594000000E+02  0.51100000000E-03 0. -1.
         11   -1    0    0    0    0 -0.00000000000E+00 -0.00000000000E+00 -0.45593999997E+02  0.45594000000E+02  0.51100000000E-03 0.  1.
    9900012    2    1    2    0    0 -0.37378651044E+02  0.19602643538E+02 -0.10109212964E+02  0.47787269888E+02  0.19999994726E+02 0.  0.
        -12    1    1    2    0    0  0.37378651044E+02 -0.19602643538E+02  0.10109212964E+02  0.43400730112E+02  0.00000000000E+00 0.  1.
         11    1    3    3    0    0 -0.32500531768E+01 -0.16899626553E+01 -0.34322772169E+01  0.50198950770E+01  0.51100000000E-03 0. -1.
        -11    1    3    3    0    0 -0.22225466969E+02  0.65509043344E+01 -0.20369862852E+01  0.23260159995E+02  0.51100000000E-03 0.  1.
        -12    1    3    3    0    0 -0.11903130898E+02  0.14741701859E+02 -0.46399494622E+01  0.19507214816E+02  0.00000000000E+00 0.  1.
</event>
<event>
 7    1  0.4236733E-010  0.4778727E+02  0.7816164E-02  0.1312668E+00
        -11   -1    0    0    0    0  0.00000000000E+00  0.00000000000E+00  0.45593999997E+02  0.45594000000E+02  0.51100000000E-03 0.  1.
         11   -1    0    0    0    0 -0.00000000000E+00 -0.00000000000E+00 -0.45593999997E+02  0.45594000000E+02  0.51100000000E-03 0. -1.
    9900012    2    1    2    0    0  0.25251117286E+02  0.19273833775E+02  0.29572351884E+02  0.47787267419E+02  0.19999983471E+02 0.  0.
        -12    1    1    2    0    0 -0.25251117286E+02 -0.19273833775E+02 -0.29572351884E+02  0.43400732581E+02  0.00000000000E+00 0.  1.
         11    1    3    3    0    0  0.22837904166E+02  0.81191988022E+01  0.26343533112E+02  0.35797667424E+02  0.51100000000E-03 0.  1.
        -11    1    3    3    0    0  0.15824813883E+01  0.37664449304E+01  0.15358312430E+01  0.43645312035E+01  0.51100000000E-03 0. -1.
        -12    1    3    3    0    0  0.83073173179E+00  0.73881900422E+01  0.16929875293E+01  0.76250687921E+01  0.00000000000E+00 0.  1.
</event>
<event>
 7    1  0.4236733E-010  0.4778728E+02  0.7816164E-02  0.1312668E+00
        -11   -1    0    0    0    0  0.00000000000E+00  0.00000000000E+00  0.45593999997E+02  0.45594000000E+02  0.51100000000E-03 0.  1.
         11   -1    0    0    0    0 -0.00000000000E+00 -0.00000000000E+00 -0.45593999997E+02  0.45594000000E+02  0.51100000000E-03 0. -1.
    9900012    2    1    2    0    0  0.10368233644E+01  0.39705403083E+01 -0.43206276669E+02  0.47787279538E+02  0.20000038725E+02 0.  0.
        -12    1    1    2    0    0 -0.10368233644E+01 -0.39705403083E+01  0.43206276669E+02  0.43400720462E+02  0.00000000000E+00 0.  1.
         11    1    3    3    0    0  0.43090063704E+01 -0.13860338857E+00 -0.48070470845E+01  0.64571238747E+01  0.51100000000E-03 0. -1.
        -11    1    3    3    0    0  0.17394590816E+01  0.28876937934E+01 -0.91559609553E+00  0.34932520396E+01  0.51100000000E-03 0.  1.
         12    1    3    3    0    0 -0.50116420877E+01  0.12214499034E+01 -0.37483633489E+02  0.37836903624E+02  0.00000000000E+00 0. -1.
</event>
<event>
 7    1  0.4236733E-010  0.4778728E+02  0.7816164E-02  0.1312668E+00
        -11   -1    0    0    0    0  0.00000000000E+00  0.00000000000E+00  0.45593999997E+02  0.45594000000E+02  0.51100000000E-03 0. -1.
         11   -1    0    0    0    0 -0.00000000000E+00 -0.00000000000E+00 -0.45593999997E+02  0.45594000000E+02  0.51100000000E-03 0.  1.
    9900012    2    1    2    0    0 -0.84691970625E+01  0.42029538228E+02 -0.67389473046E+01  0.47787276580E+02  0.20000025241E+02 0.  0.
        -12    1    1    2    0    0  0.84691970625E+01 -0.42029538228E+02  0.67389473046E+01  0.43400723420E+02  0.00000000000E+00 0.  1.
         11    1    3    3    0    0 -0.49564585777E+01  0.90191552061E+01 -0.66606295120E+01  0.12258696016E+02  0.51100000000E-03 0. -1.
        -11    1    3    3    0    0  0.36706825991E+01  0.13230702055E+02 -0.35944593362E+01  0.14193150665E+02  0.51100000000E-03 0.  1.
         12    1    3    3    0    0 -0.71834210839E+01  0.19779680967E+02  0.35161415436E+01  0.21335429899E+02  0.00000000000E+00 0. -1.
</event>
<event>
 7    1  0.4236733E-010  0.4778727E+02  0.7816164E-02  0.1312668E+00
        -11   -1    0    0    0    0  0.00000000000E+00  0.00000000000E+00  0.45593999997E+02  0.45594000000E+02  0.51100000000E-03 0.  1.
         11   -1    0    0    0    0 -0.00000000000E+00 -0.00000000000E+00 -0.45593999997E+02  0.45594000000E+02  0.51100000000E-03 0. -1.
    9900012    2    1    2    0    0  0.26082935426E+02  0.34039438775E+02 -0.66798698583E+01  0.47787267588E+02  0.19999984240E+02 0.  0.
        -12    1    1    2    0    0 -0.26082935426E+02 -0.34039438775E+02  0.66798698583E+01  0.43400732412E+02  0.00000000000E+00 0.  1.
         11    1    3    3    0    0 -0.26133488999E-01 -0.61189496332E+00 -0.15159536965E+01  0.16349967206E+01  0.51100000000E-03 0. -1.
        -11    1    3    3    0    0  0.20887441370E+02  0.15498734349E+02 -0.31005863509E+01  0.26193694077E+02  0.51100000000E-03 0.  1.
         12    1    3    3    0    0  0.52216275456E+01  0.19152599389E+02 -0.20633298109E+01  0.19958576791E+02  0.00000000000E+00 0. -1.
</event>
<event>
 7    1  0.4236733E-010  0.4778727E+02  0.7816164E-02  0.1312668E+00
        -11   -1    0    0    0    0  0.00000000000E+00  0.00000000000E+00  0.45593999997E+02  0.45594000000E+02  0.51100000000E-03 0.  1.
         11   -1    0    0    0    0 -0.00000000000E+00 -0.00000000000E+00 -0.45593999997E+02  0.45594000000E+02  0.51100000000E-03 0. -1.
    9900012    2    1    2    0    0 -0.31218820135E+02  0.14924373910E+02 -0.26196790632E+02  0.47787268363E+02  0.19999987773E+02 0.  0.
        -12    1    1    2    0    0  0.31218820135E+02 -0.14924373910E+02  0.26196790632E+02  0.43400731637E+02  0.00000000000E+00 0.  1.
         11    1    3    3    0    0 -0.27862056368E+01  0.28854634462E+01  0.17503753455E+01  0.43763746710E+01  0.51100000000E-03 0. -1.
        -11    1    3    3    0    0 -0.83297983095E+01  0.71667141961E+01 -0.38266788659E+01  0.11635755397E+02  0.51100000000E-03 0.  1.
         12    1    3    3    0    0 -0.20102816189E+02  0.48721962678E+01 -0.24120487111E+02  0.31775138295E+02  0.00000000000E+00 0. -1.
</event>
<event>
 7    1  0.4236733E-010  0.4778727E+02  0.7816164E-02  0.1312668E+00
        -11   -1    0    0    0    0  0.00000000000E+00  0.00000000000E+00  0.45593999997E+02  0.45594000000E+02  0.51100000000E-03 0. -1.
         11   -1    0    0    0    0 -0.00000000000E+00 -0.00000000000E+00 -0.45593999997E+02  0.45594000000E+02  0.51100000000E-03 0.  1.
    9900012    2    1    2    0    0 -0.13755185635E+02 -0.40254959299E+02 -0.85997957779E+01  0.47787269967E+02  0.19999995086E+02 0.  0.
        -12    1    1    2    0    0  0.13755185635E+02  0.40254959299E+02  0.85997957779E+01  0.43400730033E+02  0.00000000000E+00 0.  1.
         11    1    3    3    0    0  0.12767964526E+01 -0.52665796045E+01  0.19623879593E+00  0.54226911988E+01  0.51100000000E-03 0. -1.
        -11    1    3    3    0    0  0.11389221146E+01 -0.17069480921E+02 -0.16218063199E+01  0.17184137409E+02  0.51100000000E-03 0.  1.
        -12    1    3    3    0    0 -0.16170904202E+02 -0.17918898773E+02 -0.71742282539E+01  0.25180441359E+02  0.00000000000E+00 0.  1.
</event>
<event>
 7    1  0.4236733E-010  0.4778727E+02  0.7816164E-02  0.1312668E+00
        -11   -1    0    0    0    0  0.00000000000E+00  0.00000000000E+00  0.45593999997E+02  0.45594000000E+02  0.51100000000E-03 0.  1.
         11   -1    0    0    0    0 -0.00000000000E+00 -0.00000000000E+00 -0.45593999997E+02  0.45594000000E+02  0.51100000000E-03 0. -1.
    9900012    2    1    2    0    0 -0.25175063755E+02 -0.95181807457E+01 -0.34047665768E+02  0.47787272540E+02  0.20000006819E+02 0.  0.
        -12    1    1    2    0    0  0.25175063755E+02  0.95181807457E+01  0.34047665768E+02  0.43400727460E+02  0.00000000000E+00 0.  1.
         11    1    3    3    0    0 -0.22111413572E+02 -0.81471404889E+00 -0.19631209489E+02  0.29579769360E+02  0.51100000000E-03 0. -1.
        -11    1    3    3    0    0 -0.18637482742E+01 -0.78066897020E+01 -0.70264204992E+01  0.10667171463E+02  0.51100000000E-03 0.  1.
         12    1    3    3    0    0 -0.11999019093E+01 -0.89677699477E+00 -0.73900357802E+01  0.75403317171E+01  0.00000000000E+00 0. -1.
</event>
<event>
 7    1  0.4236733E-010  0.4778728E+02  0.7816164E-02  0.1312668E+00
        -11   -1    0    0    0    0  0.00000000000E+00  0.00000000000E+00  0.45593999997E+02  0.45594000000E+02  0.51100000000E-03 0.  1.
         11   -1    0    0    0    0 -0.00000000000E+00 -0.00000000000E+00 -0.45593999997E+02  0.45594000000E+02  0.51100000000E-03 0. -1.
    9900012    2    1    2    0    0  0.40204476315E+01 -0.42541723445E+02  0.75934224511E+01  0.47787282295E+02  0.20000051294E+02 0.  0.
        -12    1    1    2    0    0 -0.40204476315E+01  0.42541723445E+02 -0.75934224511E+01  0.43400717705E+02  0.00000000000E+00 0.  1.
         11    1    3    3    0    0  0.15021486110E+01 -0.16871586077E+02  0.54705984531E+01  0.17799840305E+02  0.51100000000E-03 0. -1.
        -11    1    3    3    0    0  0.30819028057E+01 -0.21700361253E+02  0.76010020756E+01  0.23198686089E+02  0.51100000000E-03 0.  1.
        -12    1    3    3    0    0 -0.56360378519E+00 -0.39697761149E+01 -0.54781780776E+01  0.67887559007E+01  0.00000000000E+00 0.  1.
</event>
<event>
 7    1  0.4236733E-010  0.4778727E+02  0.7816164E-02  0.1312668E+00
        -11   -1    0    0    0    0  0.00000000000E+00  0.00000000000E+00  0.45593999997E+02  0.45594000000E+02  0.51100000000E-03 0.  1.
         11   -1    0    0    0    0 -0.00000000000E+00 -0.00000000000E+00 -0.45593999997E+02  0.45594000000E+02  0.51100000000E-03 0. -1.
    9900012    2    1    2    0    0  0.13697518446E+02  0.24094643999E+02 -0.33398344996E+02  0.47787270403E+02  0.19999997077E+02 0.  0.
        -12    1    1    2    0    0 -0.13697518446E+02 -0.24094643999E+02  0.33398344996E+02  0.43400729597E+02  0.00000000000E+00 0.  1.
         11    1    3    3    0    0  0.27712800901E+01  0.34043442078E+01 -0.84240552676E+01  0.94991715552E+01  0.51100000000E-03 0. -1.
        -11    1    3    3    0    0 -0.46006934118E+01  0.57104930422E+01 -0.49091453369E+01  0.88247276929E+01  0.51100000000E-03 0.  1.
        -12    1    3    3    0    0  0.15526931768E+02  0.14979806749E+02 -0.20065144392E+02  0.29463371155E+02  0.00000000000E+00 0.  1.
</event>
<event>
 7    1  0.4236733E-010  0.4778727E+02  0.7816164E-02  0.1312668E+00
        -11   -1    0    0    0    0  0.00000000000E+00  0.00000000000E+00  0.45593999997E+02  0.45594000000E+02  0.51100000000E-03 0.  1.
         11   -1    0    0    0    0 -0.00000000000E+00 -0.00000000000E+00 -0.45593999997E+02  0.45594000000E+02  0.51100000000E-03 0. -1.
    9900012    2    1    2    0    0  0.25813236571E+01  0.56443092465E+01 -0.42954650250E+02  0.47787269167E+02  0.19999991441E+02 0.  0.
        -12    1    1    2    0    0 -0.25813236571E+01 -0.56443092465E+01  0.42954650250E+02  0.43400730833E+02  0.00000000000E+00 0.  1.
         11    1    3    3    0    0  0.27848511381E+00 -0.38172837801E+01 -0.19190704793E+01  0.42815932994E+01  0.51100000000E-03 0. -1.
        -11    1    3    3    0    0  0.51168983046E+01  0.77172649695E+00 -0.17875464277E+02  0.18609417869E+02  0.51100000000E-03 0.  1.
         12    1    3    3    0    0 -0.28140597612E+01  0.86898665296E+01 -0.23160115494E+02  0.24896257999E+02  0.00000000000E+00 0. -1.
</event>
<event>
 7    1  0.4236733E-010  0.4778727E+02  0.7816164E-02  0.1312668E+00
        -11   -1    0    0    0    0  0.00000000000E+00  0.00000000000E+00  0.45593999997E+02  0.45594000000E+02  0.51100000000E-03 0.  1.
         11   -1    0    0    0    0 -0.00000000000E+00 -0.00000000000E+00 -0.45593999997E+02  0.45594000000E+02  0.51100000000E-03 0. -1.
    9900012    2    1    2    0    0 -0.41663595481E+02  0.59216898872E+01 -0.10616095564E+02  0.47787273226E+02  0.20000009945E+02 0.  0.
        -12    1    1    2    0    0  0.41663595481E+02 -0.59216898872E+01  0.10616095564E+02  0.43400726774E+02  0.00000000000E+00 0.  1.
         11    1    3    3    0    0 -0.23642507097E+02  0.36235068713E+01 -0.52862757394E+01  0.24495768110E+02  0.51100000000E-03 0. -1.
        -11    1    3    3    0    0 -0.17311782525E+02  0.34459430093E+01  0.14588879661E+00  0.17652014650E+02  0.51100000000E-03 0.  1.
        -12    1    3    3    0    0 -0.70930585936E+00 -0.11477599935E+01 -0.54757086208E+01  0.56394904650E+01  0.00000000000E+00 0.  1.
</event>
<event>
 7    1  0.4236733E-010  0.4778727E+02  0.7816164E-02  0.1312668E+00
        -11   -1    0    0    0    0  0.00000000000E+00  0.00000000000E+00  0.45593999997E+02  0.45594000000E+02  0.51100000000E-03 0.  1.
         11   -1    0    0    0    0 -0.00000000000E+00 -0.00000000000E+00 -0.45593999997E+02  0.45594000000E+02  0.51100000000E-03 0. -1.
    9900012    2    1    2    0    0 -0.17479383078E+02  0.25791504242E+02 -0.30214110724E+02  0.47787274076E+02  0.20000013824E+02 0.  0.
        -12    1    1    2    0    0  0.17479383078E+02 -0.25791504242E+02  0.30214110724E+02  0.43400725924E+02  0.00000000000E+00 0.  1.
         11    1    3    3    0    0 -0.97050682905E+01  0.14583766022E+02 -0.92143263187E+01  0.19793392627E+02  0.51100000000E-03 0. -1.
        -11    1    3    3    0    0 -0.10598321068E+02  0.10344901197E+02 -0.19978673645E+02  0.24869434877E+02  0.51100000000E-03 0.  1.
        -12    1    3    3    0    0  0.28240062804E+01  0.86283702268E+00 -0.10211107610E+01  0.31244465727E+01  0.00000000000E+00 0.  1.
</event>
<event>
 7    1  0.4236733E-010  0.4778727E+02  0.7816164E-02  0.1312668E+00
        -11   -1    0    0    0    0  0.00000000000E+00  0.00000000000E+00  0.45593999997E+02  0.45594000000E+02  0.51100000000E-03 0. -1.
         11   -1    0    0    0    0 -0.00000000000E+00 -0.00000000000E+00 -0.45593999997E+02  0.45594000000E+02  0.51100000000E-03 0.  1.
    9900012    2    1    2    0    0 -0.27940452689E+02 -0.28977587961E+02  0.16225102034E+02  0.47787269171E+02  0.19999991458E+02 0.  0.
        -12    1    1    2    0    0  0.27940452689E+02  0.28977587961E+02 -0.16225102034E+02  0.43400730829E+02  0.00000000000E+00 0.  1.
         11    1    3    3    0    0 -0.37992075436E+01 -0.63847330513E+01 -0.44747408499E+00  0.74430522915E+01  0.51100000000E-03 0. -1.
        -11    1    3    3    0    0 -0.19164738787E+02 -0.24631494285E+02  0.12873586402E+02  0.33759842277E+02  0.51100000000E-03 0.  1.
        -12    1    3    3    0    0 -0.49765063576E+01  0.20386393749E+01  0.37989897173E+01  0.65843746021E+01  0.00000000000E+00 0.  1.
</event>
<event>
 7    1  0.4236733E-010  0.4778727E+02  0.7816164E-02  0.1312668E+00
        -11   -1    0    0    0    0  0.00000000000E+00  0.00000000000E+00  0.45593999997E+02  0.45594000000E+02  0.51100000000E-03 0.  1.
         11   -1    0    0    0    0 -0.00000000000E+00 -0.00000000000E+00 -0.45593999997E+02  0.45594000000E+02  0.51100000000E-03 0. -1.
    9900012    2    1    2    0    0  0.10884472891E+02  0.25092374686E+02 -0.33697544007E+02  0.47787268559E+02  0.19999988668E+02 0.  0.
        -12    1    1    2    0    0 -0.10884472891E+02 -0.25092374686E+02  0.33697544007E+02  0.43400731441E+02  0.00000000000E+00 0.  1.
         11    1    3    3    0    0  0.17894604113E+01  0.85232034520E+01 -0.12196141098E+02  0.14986427980E+02  0.51100000000E-03 0. -1.
        -11    1    3    3    0    0 -0.41307148755E+01  0.26383547500E+01 -0.16362272479E+01  0.51672972662E+01  0.51100000000E-03 0.  1.
        -12    1    3    3    0    0  0.13225727355E+02  0.13930816484E+02 -0.19865175661E+02  0.27633543313E+02  0.00000000000E+00 0.  1.
</event>
<event>
 7    1  0.4236733E-010  0.4778727E+02  0.7816164E-02  0.1312668E+00
        -11   -1    0    0    0    0  0.00000000000E+00  0.00000000000E+00  0.45593999997E+02  0.45594000000E+02  0.51100000000E-03 0.  1.
         11   -1    0    0    0    0 -0.00000000000E+00 -0.00000000000E+00 -0.45593999997E+02  0.45594000000E+02  0.51100000000E-03 0. -1.
    9900012    2    1    2    0    0 -0.17846211036E+02  0.25868383559E+01 -0.39477136476E+02  0.47787270912E+02  0.19999999397E+02 0.  0.
        -12    1    1    2    0    0  0.17846211036E+02 -0.25868383559E+01  0.39477136476E+02  0.43400729088E+02  0.00000000000E+00 0.  1.
         11    1    3    3    0    0 -0.10201327374E+02  0.70597120989E+00 -0.20963254057E+02  0.23324311275E+02  0.51100000000E-03 0. -1.
        -11    1    3    3    0    0  0.38147647498E+01  0.23822681853E+01 -0.57979089059E+01  0.73378048315E+01  0.51100000000E-03 0.  1.
        -12    1    3    3    0    0 -0.11459648412E+02 -0.50140103921E+00 -0.12715973513E+02  0.17125154806E+02  0.00000000000E+00 0.  1.
</event>
<event>
 7    1  0.4236733E-010  0.4778727E+02  0.7816164E-02  0.1312668E+00
        -11   -1    0    0    0    0  0.00000000000E+00  0.00000000000E+00  0.45593999997E+02  0.45594000000E+02  0.51100000000E-03 0. -1.
         11   -1    0    0    0    0 -0.00000000000E+00 -0.00000000000E+00 -0.45593999997E+02  0.45594000000E+02  0.51100000000E-03 0.  1.
    9900012    2    1    2    0    0  0.23816718427E+02 -0.48980928763E+01  0.35949906484E+02  0.47787272279E+02  0.20000005631E+02 0.  0.
        -12    1    1    2    0    0 -0.23816718427E+02  0.48980928763E+01 -0.35949906484E+02  0.43400727721E+02  0.00000000000E+00 0.  1.
         11    1    3    3    0    0  0.22305727851E+02 -0.86184800969E+01  0.23023512299E+02  0.33194966681E+02  0.51100000000E-03 0. -1.
        -11    1    3    3    0    0  0.26297240019E+01 -0.23820750991E+00  0.55598124918E+01  0.61549741144E+01  0.51100000000E-03 0.  1.
        -12    1    3    3    0    0 -0.11187334259E+01  0.39585947305E+01  0.73665816937E+01  0.84373314838E+01  0.00000000000E+00 0.  1.
</event>
<event>
 7    1  0.4236733E-010  0.4778727E+02  0.7816164E-02  0.1312668E+00
        -11   -1    0    0    0    0  0.00000000000E+00  0.00000000000E+00  0.45593999997E+02  0.45594000000E+02  0.51100000000E-03 0. -1.
         11   -1    0    0    0    0 -0.00000000000E+00 -0.00000000000E+00 -0.45593999997E+02  0.45594000000E+02  0.51100000000E-03 0.  1.
    9900012    2    1    2    0    0  0.14345717988E+02 -0.12716217668E+01  0.40941501826E+02  0.47787271685E+02  0.20000002918E+02 0.  0.
        -12    1    1    2    0    0 -0.14345717988E+02  0.12716217668E+01 -0.40941501826E+02  0.43400728315E+02  0.00000000000E+00 0.  1.
         11    1    3    3    0    0  0.11400202278E+02 -0.17072857991E+01  0.37263047973E+02  0.39005309655E+02  0.51100000000E-03 0. -1.
        -11    1    3    3    0    0  0.15303298659E+01 -0.54794995843E+00  0.58144489196E+01  0.60373814817E+01  0.51100000000E-03 0.  1.
        -12    1    3    3    0    0  0.14151858443E+01  0.98361399070E+00 -0.21359950667E+01  0.27445805475E+01  0.00000000000E+00 0.  1.
</event>
<event>
 7    1  0.4236733E-010  0.4778727E+02  0.7816164E-02  0.1312668E+00
        -11   -1    0    0    0    0  0.00000000000E+00  0.00000000000E+00  0.45593999997E+02  0.45594000000E+02  0.51100000000E-03 0.  1.
         11   -1    0    0    0    0 -0.00000000000E+00 -0.00000000000E+00 -0.45593999997E+02  0.45594000000E+02  0.51100000000E-03 0. -1.
    9900012    2    1    2    0    0  0.71570687004E+01 -0.21622913934E+02 -0.36943871332E+02  0.47787266499E+02  0.19999979277E+02 0.  0.
        -12    1    1    2    0    0 -0.71570687004E+01  0.21622913934E+02  0.36943871332E+02  0.43400733501E+02  0.00000000000E+00 0.  1.
         11    1    3    3    0    0  0.20573387334E+01  0.66790609385E+00 -0.94423484329E+01  0.96869337462E+01  0.51100000000E-03 0. -1.
        -11    1    3    3    0    0  0.40384094044E+01 -0.27898637392E+01 -0.73006215596E+00  0.49623664932E+01  0.51100000000E-03 0.  1.
        -12    1    3    3    0    0  0.10613205627E+01 -0.19500956288E+02 -0.26771460744E+02  0.33137966260E+02  0.00000000000E+00 0.  1.
</event>
<event>
 7    1  0.4236733E-010  0.4778727E+02  0.7816164E-02  0.1312668E+00
        -11   -1    0    0    0    0  0.00000000000E+00  0.00000000000E+00  0.45593999997E+02  0.45594000000E+02  0.51100000000E-03 0. -1.
         11   -1    0    0    0    0 -0.00000000000E+00 -0.00000000000E+00 -0.45593999997E+02  0.45594000000E+02  0.51100000000E-03 0.  1.
    9900012    2    1    2    0    0  0.42746942946E+02  0.66685897860E+01  0.34426833281E+01  0.47787270865E+02  0.19999999182E+02 0.  0.
        -12    1    1    2    0    0 -0.42746942946E+02 -0.66685897860E+01 -0.34426833281E+01  0.43400729135E+02  0.00000000000E+00 0.  1.
         11    1    3    3    0    0  0.10024332831E+02 -0.22025386436E+01 -0.32189644834E+01  0.10756400782E+02  0.51100000000E-03 0. -1.
        -11    1    3    3    0    0  0.46728910502E+01 -0.12180538049E+01  0.53297978840E+01  0.71921006377E+01  0.51100000000E-03 0.  1.
        -12    1    3    3    0    0  0.28049719065E+02  0.10089182234E+02  0.13318499276E+01  0.29838769445E+02  0.00000000000E+00 0.  1.
</event>
<event>
 7    1  0.4236733E-010  0.4778727E+02  0.7816164E-02  0.1312668E+00
        -11   -1    0    0    0    0  0.00000000000E+00  0.00000000000E+00  0.45593999997E+02  0.45594000000E+02  0.51100000000E-03 0.  1.
         11   -1    0    0    0    0 -0.00000000000E+00 -0.00000000000E+00 -0.45593999997E+02  0.45594000000E+02  0.51100000000E-03 0. -1.
    9900012    2    1    2    0    0 -0.41254675577E+02  0.10546348340E+02 -0.83934215283E+01  0.47787271375E+02  0.20000001506E+02 0.  0.
        -12    1    1    2    0    0  0.41254675577E+02 -0.10546348340E+02  0.83934215283E+01  0.43400728625E+02  0.00000000000E+00 0.  1.
         11    1    3    3    0    0 -0.34106191960E+02  0.48504004203E+01 -0.11859308546E+02  0.36433527330E+02  0.51100000000E-03 0. -1.
        -11    1    3    3    0    0 -0.36077554412E+01 -0.82433069243E-01 -0.26376267985E+00  0.36183235824E+01  0.51100000000E-03 0.  1.
        -12    1    3    3    0    0 -0.35407281759E+01  0.57783809888E+01  0.37296496977E+01  0.77354204627E+01  0.00000000000E+00 0.  1.
</event>
<event>
 7    1  0.4236733E-010  0.4778727E+02  0.7816164E-02  0.1312668E+00
        -11   -1    0    0    0    0  0.00000000000E+00  0.00000000000E+00  0.45593999997E+02  0.45594000000E+02  0.51100000000E-03 0.  1.
         11   -1    0    0    0    0 -0.00000000000E+00 -0.00000000000E+00 -0.45593999997E+02  0.45594000000E+02  0.51100000000E-03 0. -1.
    9900012    2    1    2    0    0 -0.35146356754E+02  0.24811285256E+02 -0.57233802754E+01  0.47787270157E+02  0.19999995954E+02 0.  0.
        -12    1    1    2    0    0  0.35146356754E+02 -0.24811285256E+02  0.57233802754E+01  0.43400729843E+02  0.00000000000E+00 0.  1.
         11    1    3    3    0    0 -0.51255818952E+01  0.75229241654E+01  0.31366577287E+01  0.96283227891E+01  0.51100000000E-03 0. -1.
        -11    1    3    3    0    0 -0.37682579341E+01  0.72940967357E+01  0.12496637375E+01  0.83045333864E+01  0.51100000000E-03 0.  1.
         12    1    3    3    0    0 -0.26252516925E+02  0.99942643544E+01 -0.10109701742E+02  0.29854413982E+02  0.00000000000E+00 0. -1.
</event>
<event>
 7    1  0.4236733E-010  0.4778727E+02  0.7816164E-02  0.1312668E+00
        -11   -1    0    0    0    0  0.00000000000E+00  0.00000000000E+00  0.45593999997E+02  0.45594000000E+02  0.51100000000E-03 0.  1.
         11   -1    0    0    0    0 -0.00000000000E+00 -0.00000000000E+00 -0.45593999997E+02  0.45594000000E+02  0.51100000000E-03 0. -1.
    9900012    2    1    2    0    0 -0.24534125394E+02  0.35596208466E+02 -0.38222728144E+01  0.47787272639E+02  0.20000007269E+02 0.  0.
        -12    1    1    2    0    0  0.24534125394E+02 -0.35596208466E+02  0.38222728144E+01  0.43400727361E+02  0.00000000000E+00 0.  1.
         11    1    3    3    0    0 -0.19699011588E+02  0.14344888248E+02 -0.14761752404E+01  0.24413233501E+02  0.51100000000E-03 0. -1.
        -11    1    3    3    0    0 -0.11920522875E+01 -0.37895169828E+00  0.28203424708E+00  0.12822389104E+01  0.51100000000E-03 0.  1.
        -12    1    3    3    0    0 -0.36430615190E+01  0.21630271916E+02 -0.26281318210E+01  0.22091800227E+02  0.00000000000E+00 0.  1.
</event>
<event>
 7    1  0.4236733E-010  0.4778727E+02  0.7816164E-02  0.1312668E+00
        -11   -1    0    0    0    0  0.00000000000E+00  0.00000000000E+00  0.45593999997E+02  0.45594000000E+02  0.51100000000E-03 0.  1.
         11   -1    0    0    0    0 -0.00000000000E+00 -0.00000000000E+00 -0.45593999997E+02  0.45594000000E+02  0.51100000000E-03 0. -1.
    9900012    2    1    2    0    0  0.13051847672E+01 -0.12327016916E+02 -0.41592839116E+02  0.47787272828E+02  0.20000008134E+02 0.  0.
        -12    1    1    2    0    0 -0.13051847672E+01  0.12327016916E+02  0.41592839116E+02  0.43400727172E+02  0.00000000000E+00 0.  1.
         11    1    3    3    0    0 -0.64381806744E+00 -0.15325273461E+02 -0.26211468915E+02  0.30369715365E+02  0.51100000000E-03 0. -1.
        -11    1    3    3    0    0 -0.24175698222E+01 -0.38910580854E+00 -0.66253292102E+01  0.70633585907E+01  0.51100000000E-03 0.  1.
         12    1    3    3    0    0  0.43665726569E+01  0.33873623541E+01 -0.87560409900E+01  0.10354198873E+02  0.00000000000E+00 0. -1.
</event>
<event>
 7    1  0.4236733E-010  0.4778727E+02  0.7816164E-02  0.1312668E+00
        -11   -1    0    0    0    0  0.00000000000E+00  0.00000000000E+00  0.45593999997E+02  0.45594000000E+02  0.51100000000E-03 0.  1.
         11   -1    0    0    0    0 -0.00000000000E+00 -0.00000000000E+00 -0.45593999997E+02  0.45594000000E+02  0.51100000000E-03 0. -1.
    9900012    2    1    2    0    0  0.12917918231E+02  0.39734152463E+02 -0.11745121404E+02  0.47787270051E+02  0.19999995468E+02 0.  0.
        -12    1    1    2    0    0 -0.12917918231E+02 -0.39734152463E+02  0.11745121404E+02  0.43400729949E+02  0.00000000000E+00 0.  1.
         11    1    3    3    0    0  0.93497158196E+01  0.17537272162E+02 -0.79423818089E+01  0.21402208527E+02  0.51100000000E-03 0. -1.
        -11    1    3    3    0    0  0.27861515592E+01  0.98723620345E+01 -0.83483071082E+01  0.13225747785E+02  0.51100000000E-03 0.  1.
         12    1    3    3    0    0  0.78205085262E+00  0.12324518266E+02  0.45455675132E+01  0.13159313738E+02  0.00000000000E+00 0. -1.
</event>
<event>
 7    1  0.4236733E-010  0.4778727E+02  0.7816164E-02  0.1312668E+00
        -11   -1    0    0    0    0  0.00000000000E+00  0.00000000000E+00  0.45593999997E+02  0.45594000000E+02  0.51100000000E-03 0.  1.
         11   -1    0    0    0    0 -0.00000000000E+00 -0.00000000000E+00 -0.45593999997E+02  0.45594000000E+02  0.51100000000E-03 0. -1.
    9900012    2    1    2    0    0 -0.13644659198E+02  0.32573903920E+02 -0.25226722876E+02  0.47787268575E+02  0.19999988740E+02 0.  0.
        -12    1    1    2    0    0  0.13644659198E+02 -0.32573903920E+02  0.25226722876E+02  0.43400731425E+02  0.00000000000E+00 0.  1.
         11    1    3    3    0    0 -0.51928153426E+01  0.19120226499E+02 -0.62432765787E+01  0.20773225442E+02  0.51100000000E-03 0. -1.
        -11    1    3    3    0    0 -0.47239242508E+01  0.19267172558E+01 -0.79949091616E+00  0.51639990025E+01  0.51100000000E-03 0.  1.
         12    1    3    3    0    0 -0.37279196041E+01  0.11526960165E+02 -0.18183955381E+02  0.21850044131E+02  0.00000000000E+00 0. -1.
</event>
<event>
 7    1  0.4236733E-010  0.4778727E+02  0.7816164E-02  0.1312668E+00
        -11   -1    0    0    0    0  0.00000000000E+00  0.00000000000E+00  0.45593999997E+02  0.45594000000E+02  0.51100000000E-03 0. -1.
         11   -1    0    0    0    0 -0.00000000000E+00 -0.00000000000E+00 -0.45593999997E+02  0.45594000000E+02  0.51100000000E-03 0.  1.
    9900012    2    1    2    0    0  0.30327148510E+01  0.41961472904E+02  0.10661178979E+02  0.47787270687E+02  0.19999998372E+02 0.  0.
        -12    1    1    2    0    0 -0.30327148510E+01 -0.41961472904E+02 -0.10661178979E+02  0.43400729313E+02  0.00000000000E+00 0.  1.
         11    1    3    3    0    0  0.55420396832E+00  0.22506292550E+02 -0.17907463969E+01  0.22584222796E+02  0.51100000000E-03 0. -1.
        -11    1    3    3    0    0  0.35116415564E+01  0.16525807274E+02  0.58017714739E+01  0.17863215976E+02  0.51100000000E-03 0.  1.
        -12    1    3    3    0    0 -0.10331306737E+01  0.29293730796E+01  0.66501539025E+01  0.73398319160E+01  0.00000000000E+00 0.  1.
</event>
<event>
 7    1  0.4236733E-010  0.4778727E+02  0.7816164E-02  0.1312668E+00
        -11   -1    0    0    0    0  0.00000000000E+00  0.00000000000E+00  0.45593999997E+02  0.45594000000E+02  0.51100000000E-03 0.  1.
         11   -1    0    0    0    0 -0.00000000000E+00 -0.00000000000E+00 -0.45593999997E+02  0.45594000000E+02  0.51100000000E-03 0. -1.
    9900012    2    1    2    0    0 -0.41635326938E+02 -0.44281899427E+01 -0.11424255968E+02  0.47787274893E+02  0.20000017547E+02 0.  0.
        -12    1    1    2    0    0  0.41635326938E+02  0.44281899427E+01  0.11424255968E+02  0.43400725107E+02  0.00000000000E+00 0.  1.
         11    1    3    3    0    0 -0.15510604867E+02 -0.18017640847E+01 -0.24999039683E+01  0.15813751525E+02  0.51100000000E-03 0. -1.
        -11    1    3    3    0    0 -0.10394880123E+02  0.55161216050E+01  0.74930896334E+00  0.11791632394E+02  0.51100000000E-03 0.  1.
         12    1    3    3    0    0 -0.15729841948E+02 -0.81425474630E+01 -0.96736609629E+01  0.20181890974E+02  0.00000000000E+00 0. -1.
</event>
<event>
 7    1  0.4236733E-010  0.4778726E+02  0.7816164E-02  0.1312668E+00
        -11   -1    0    0    0    0  0.00000000000E+00  0.00000000000E+00  0.45593999997E+02  0.45594000000E+02  0.51100000000E-03 0.  1.
         11   -1    0    0    0    0 -0.00000000000E+00 -0.00000000000E+00 -0.45593999997E+02  0.45594000000E+02  0.51100000000E-03 0. -1.
    9900012    2    1    2    0    0  0.22488303291E+02 -0.16751753399E+02 -0.33125198588E+02  0.47787264887E+02  0.19999971924E+02 0.  0.
        -12    1    1    2    0    0 -0.22488303291E+02  0.16751753399E+02  0.33125198588E+02  0.43400735113E+02  0.00000000000E+00 0.  1.
         11    1    3    3    0    0  0.99068352503E+01 -0.56684390167E+01 -0.15639607289E+02  0.19361660620E+02  0.51100000000E-03 0. -1.
        -11    1    3    3    0    0  0.29218731982E+01 -0.11881664960E+02 -0.12629876429E+02  0.17584796959E+02  0.51100000000E-03 0.  1.
        -12    1    3    3    0    0  0.96595948428E+01  0.79835057819E+00 -0.48557148706E+01  0.10840807307E+02  0.00000000000E+00 0.  1.
</event>
<event>
 7    1  0.4236733E-010  0.4778727E+02  0.7816164E-02  0.1312668E+00
        -11   -1    0    0    0    0  0.00000000000E+00  0.00000000000E+00  0.45593999997E+02  0.45594000000E+02  0.51100000000E-03 0. -1.
         11   -1    0    0    0    0 -0.00000000000E+00 -0.00000000000E+00 -0.45593999997E+02  0.45594000000E+02  0.51100000000E-03 0.  1.
    9900012    2    1    2    0    0 -0.24738388173E+02 -0.12057893702E+01  0.35639606155E+02  0.47787270694E+02  0.19999998401E+02 0.  0.
        -12    1    1    2    0    0  0.24738388173E+02  0.12057893702E+01 -0.35639606155E+02  0.43400729306E+02  0.00000000000E+00 0.  1.
         11    1    3    3    0    0  0.13024194469E+01  0.15129160677E+01  0.21704221756E+01  0.29488886254E+01  0.51100000000E-03 0.  1.
        -11    1    3    3    0    0 -0.12223215617E+02  0.12439424729E+01  0.25729779985E+02  0.28512733493E+02  0.51100000000E-03 0. -1.
        -12    1    3    3    0    0 -0.13817592003E+02 -0.39626479108E+01  0.77394039949E+01  0.16325648576E+02  0.00000000000E+00 0.  1.
</event>
<event>
 7    1  0.4236733E-010  0.4778727E+02  0.7816164E-02  0.1312668E+00
        -11   -1    0    0    0    0  0.00000000000E+00  0.00000000000E+00  0.45593999997E+02  0.45594000000E+02  0.51100000000E-03 0.  1.
         11   -1    0    0    0    0 -0.00000000000E+00 -0.00000000000E+00 -0.45593999997E+02  0.45594000000E+02  0.51100000000E-03 0. -1.
    9900012    2    1    2    0    0  0.19047585255E+02  0.34694090040E+02  0.17808221474E+02  0.47787272589E+02  0.20000007040E+02 0.  0.
        -12    1    1    2    0    0 -0.19047585255E+02 -0.34694090040E+02 -0.17808221474E+02  0.43400727411E+02  0.00000000000E+00 0.  1.
         11    1    3    3    0    0  0.69156454022E+01  0.15193215126E+02  0.94443496740E+01  0.19179564078E+02  0.51100000000E-03 0. -1.
        -11    1    3    3    0    0  0.29450428208E+01  0.21526368531E+01  0.82017893406E+01  0.89764397890E+01  0.51100000000E-03 0.  1.
         12    1    3    3    0    0  0.91868970317E+01  0.17348238061E+02  0.16208245990E+00  0.19631268721E+02  0.00000000000E+00 0. -1.
</event>
<event>
 7    1  0.4236733E-010  0.4778728E+02  0.7816164E-02  0.1312668E+00
        -11   -1    0    0    0    0  0.00000000000E+00  0.00000000000E+00  0.45593999997E+02  0.45594000000E+02  0.51100000000E-03 0.  1.
         11   -1    0    0    0    0 -0.00000000000E+00 -0.00000000000E+00 -0.45593999997E+02  0.45594000000E+02  0.51100000000E-03 0. -1.
    9900012    2    1    2    0    0  0.49831274207E+01  0.29344415985E+02 -0.31586333490E+02  0.47787276830E+02  0.20000026377E+02 0.  0.
        -12    1    1    2    0    0 -0.49831274207E+01 -0.29344415985E+02  0.31586333490E+02  0.43400723170E+02  0.00000000000E+00 0.  1.
         11    1    3    3    0    0  0.13277780825E+00  0.65732545400E+00 -0.83991736399E+01  0.84259020166E+01  0.51100000000E-03 0. -1.
        -11    1    3    3    0    0  0.71311352021E+01  0.18599832314E+02 -0.20693074266E+02  0.28722990342E+02  0.51100000000E-03 0.  1.
        -12    1    3    3    0    0 -0.22807855896E+01  0.10087258217E+02 -0.24940855836E+01  0.10638384471E+02  0.00000000000E+00 0.  1.
</event>
<event>
 7    1  0.4236733E-010  0.4778727E+02  0.7816164E-02  0.1312668E+00
        -11   -1    0    0    0    0  0.00000000000E+00  0.00000000000E+00  0.45593999997E+02  0.45594000000E+02  0.51100000000E-03 0. -1.
         11   -1    0    0    0    0 -0.00000000000E+00 -0.00000000000E+00 -0.45593999997E+02  0.45594000000E+02  0.51100000000E-03 0.  1.
    9900012    2    1    2    0    0 -0.18959751344E+02  0.15932659090E+02  0.35641293559E+02  0.47787267250E+02  0.19999982700E+02 0.  0.
        -12    1    1    2    0    0  0.18959751344E+02 -0.15932659090E+02 -0.35641293559E+02  0.43400732750E+02  0.00000000000E+00 0.  1.
         11    1    3    3    0    0 -0.16747385784E+02  0.11073219098E+02  0.19243337937E+02  0.27810019184E+02  0.51100000000E-03 0. -1.
        -11    1    3    3    0    0 -0.59972640711E+01  0.43806196154E+01  0.12378492823E+02  0.14435514864E+02  0.51100000000E-03 0.  1.
        -12    1    3    3    0    0  0.37848985115E+01  0.47882037602E+00  0.40194627978E+01  0.55417332016E+01  0.00000000000E+00 0.  1.
</event>
<event>
 7    1  0.4236733E-010  0.4778727E+02  0.7816164E-02  0.1312668E+00
        -11   -1    0    0    0    0  0.00000000000E+00  0.00000000000E+00  0.45593999997E+02  0.45594000000E+02  0.51100000000E-03 0.  1.
         11   -1    0    0    0    0 -0.00000000000E+00 -0.00000000000E+00 -0.45593999997E+02  0.45594000000E+02  0.51100000000E-03 0. -1.
    9900012    2    1    2    0    0  0.26188725830E+02  0.26320599943E+02 -0.22472204603E+02  0.47787270494E+02  0.19999997489E+02 0.  0.
        -12    1    1    2    0    0 -0.26188725830E+02 -0.26320599943E+02  0.22472204603E+02  0.43400729506E+02  0.00000000000E+00 0.  1.
         11    1    3    3    0    0 -0.10710164874E+01  0.69095683702E+01 -0.58909850296E+01  0.91429161792E+01  0.51100000000E-03 0. -1.
        -11    1    3    3    0    0  0.31877995596E+01  0.18282489359E+00  0.77131124119E+00  0.32848762939E+01  0.51100000000E-03 0.  1.
        -12    1    3    3    0    0  0.24071942757E+02  0.19228206680E+02 -0.17352530814E+02  0.35359478021E+02  0.00000000000E+00 0.  1.
</event>
<event>
 7    1  0.4236733E-010  0.4778727E+02  0.7816164E-02  0.1312668E+00
        -11   -1    0    0    0    0  0.00000000000E+00  0.00000000000E+00  0.45593999997E+02  0.45594000000E+02  0.51100000000E-03 0.  1.
         11   -1    0    0    0    0 -0.00000000000E+00 -0.00000000000E+00 -0.45593999997E+02  0.45594000000E+02  0.51100000000E-03 0. -1.
    9900012    2    1    2    0    0 -0.42803958358E+02 -0.12234801872E+00  0.71714232212E+01  0.47787272688E+02  0.20000007496E+02 0.  0.
        -12    1    1    2    0    0  0.42803958358E+02  0.12234801872E+00 -0.71714232212E+01  0.43400727312E+02  0.00000000000E+00 0.  1.
         11    1    3    3    0    0 -0.72489636331E+01 -0.35048354061E+00  0.47781104018E+01  0.86891111018E+01  0.51100000000E-03 0. -1.
        -11    1    3    3    0    0 -0.13491508490E+01 -0.71079758079E+00 -0.40057963036E+01  0.42862390859E+01  0.51100000000E-03 0.  1.
         12    1    3    3    0    0 -0.34205843876E+02  0.93893310268E+00  0.63991091230E+01  0.34811922501E+02  0.00000000000E+00 0. -1.
</event>
<event>
 7    1  0.4236733E-010  0.4778729E+02  0.7816164E-02  0.1312668E+00
        -11   -1    0    0    0    0  0.00000000000E+00  0.00000000000E+00  0.45593999997E+02  0.45594000000E+02  0.51100000000E-03 0.  1.
         11   -1    0    0    0    0 -0.00000000000E+00 -0.00000000000E+00 -0.45593999997E+02  0.45594000000E+02  0.51100000000E-03 0. -1.
    9900012    2    1    2    0    0 -0.13227213499E+02 -0.30533445410E+02 -0.27863445194E+02  0.47787285218E+02  0.20000064621E+02 0.  0.
        -12    1    1    2    0    0  0.13227213499E+02  0.30533445410E+02  0.27863445194E+02  0.43400714782E+02  0.00000000000E+00 0.  1.
         11    1    3    3    0    0  0.34172281354E+01 -0.25064061269E+01 -0.43345661678E+01  0.60620115413E+01  0.51100000000E-03 0.  1.
        -11    1    3    3    0    0 -0.30908556807E+01 -0.15581384710E+02 -0.12989813486E+02  0.20519946223E+02  0.51100000000E-03 0. -1.
        -12    1    3    3    0    0 -0.13553585954E+02 -0.12445654573E+02 -0.10539065540E+02  0.21205327454E+02  0.00000000000E+00 0.  1.
</event>
<event>
 7    1  0.4236733E-010  0.4778729E+02  0.7816164E-02  0.1312668E+00
        -11   -1    0    0    0    0  0.00000000000E+00  0.00000000000E+00  0.45593999997E+02  0.45594000000E+02  0.51100000000E-03 0. -1.
         11   -1    0    0    0    0 -0.00000000000E+00 -0.00000000000E+00 -0.45593999997E+02  0.45594000000E+02  0.51100000000E-03 0.  1.
    9900012    2    1    2    0    0  0.25007569500E+02  0.15309329697E+02  0.31997932959E+02  0.47787287774E+02  0.20000076276E+02 0.  0.
        -12    1    1    2    0    0 -0.25007569500E+02 -0.15309329697E+02 -0.31997932959E+02  0.43400712226E+02  0.00000000000E+00 0.  1.
         11    1    3    3    0    0  0.88373812401E+01  0.11457482735E+02  0.11854146223E+02  0.18705453770E+02  0.51100000000E-03 0. -1.
        -11    1    3    3    0    0  0.10413340777E+02  0.69279079104E+01  0.68217781136E+01  0.14246762125E+02  0.51100000000E-03 0.  1.
        -12    1    3    3    0    0  0.57568474834E+01 -0.30760609487E+01  0.13322008623E+02  0.14835071879E+02  0.00000000000E+00 0.  1.
</event>
<event>
 7    1  0.4236733E-010  0.4778727E+02  0.7816164E-02  0.1312668E+00
        -11   -1    0    0    0    0  0.00000000000E+00  0.00000000000E+00  0.45593999997E+02  0.45594000000E+02  0.51100000000E-03 0.  1.
         11   -1    0    0    0    0 -0.00000000000E+00 -0.00000000000E+00 -0.45593999997E+02  0.45594000000E+02  0.51100000000E-03 0. -1.
    9900012    2    1    2    0    0  0.39613230382E+02 -0.15325447409E+02 -0.89188395980E+01  0.47787273516E+02  0.20000011268E+02 0.  0.
        -12    1    1    2    0    0 -0.39613230382E+02  0.15325447409E+02  0.89188395980E+01  0.43400726484E+02  0.00000000000E+00 0.  1.
         11    1    3    3    0    0  0.13152535533E+02  0.10976747361E+01 -0.48407252280E+01  0.14057976447E+02  0.51100000000E-03 0. -1.
        -11    1    3    3    0    0  0.20250581379E+01 -0.49287060947E+01 -0.41030458910E+01  0.67251758397E+01  0.51100000000E-03 0.  1.
         12    1    3    3    0    0  0.24435636711E+02 -0.11494416050E+02  0.24931521054E-01  0.27004121230E+02  0.00000000000E+00 0. -1.
</event>
<event>
 7    1  0.4236733E-010  0.4778727E+02  0.7816164E-02  0.1312668E+00
        -11   -1    0    0    0    0  0.00000000000E+00  0.00000000000E+00  0.45593999997E+02  0.45594000000E+02  0.51100000000E-03 0. -1.
         11   -1    0    0    0    0 -0.00000000000E+00 -0.00000000000E+00 -0.45593999997E+02  0.45594000000E+02  0.51100000000E-03 0.  1.
    9900012    2    1    2    0    0  0.34012385571E+02  0.20239922529E+02  0.17808046321E+02  0.47787270168E+02  0.19999996003E+02 0.  0.
        -12    1    1    2    0    0 -0.34012385571E+02 -0.20239922529E+02 -0.17808046321E+02  0.43400729832E+02  0.00000000000E+00 0.  1.
         11    1    3    3    0    0  0.91555112039E+01 -0.12962729195E+01 -0.11939241688E+01  0.93235810754E+01  0.51100000000E-03 0. -1.
        -11    1    3    3    0    0  0.34475619836E+00  0.11335599132E+01  0.19948332099E+01  0.23201669573E+01  0.51100000000E-03 0.  1.
         12    1    3    3    0    0  0.24512118169E+02  0.20402635535E+02  0.17007137279E+02  0.36143522135E+02  0.00000000000E+00 0. -1.
</event>
<event>
 7    1  0.4236733E-010  0.4778728E+02  0.7816164E-02  0.1312668E+00
        -11   -1    0    0    0    0  0.00000000000E+00  0.00000000000E+00  0.45593999997E+02  0.45594000000E+02  0.51100000000E-03 0.  1.
         11   -1    0    0    0    0 -0.00000000000E+00 -0.00000000000E+00 -0.45593999997E+02  0.45594000000E+02  0.51100000000E-03 0. -1.
    9900012    2    1    2    0    0 -0.23855976760E+02 -0.17599987677E+02 -0.31697879972E+02  0.47787276641E+02  0.20000025515E+02 0.  0.
        -12    1    1    2    0    0  0.23855976760E+02  0.17599987677E+02  0.31697879972E+02  0.43400723359E+02  0.00000000000E+00 0.  1.
         11    1    3    3    0    0 -0.18772918409E+02 -0.16816320781E+02 -0.17626983329E+02  0.30755839311E+02  0.51100000000E-03 0. -1.
        -11    1    3    3    0    0 -0.13167545850E+01  0.24916115458E+00  0.86391879645E+00  0.15944528422E+01  0.51100000000E-03 0.  1.
         12    1    3    3    0    0 -0.37663037651E+01 -0.10328280512E+01 -0.14934815440E+02  0.15436984487E+02  0.00000000000E+00 0. -1.
</event>
<event>
 7    1  0.4236733E-010  0.4778727E+02  0.7816164E-02  0.1312668E+00
        -11   -1    0    0    0    0  0.00000000000E+00  0.00000000000E+00  0.45593999997E+02  0.45594000000E+02  0.51100000000E-03 0.  1.
         11   -1    0    0    0    0 -0.00000000000E+00 -0.00000000000E+00 -0.45593999997E+02  0.45594000000E+02  0.51100000000E-03 0. -1.
    9900012    2    1    2    0    0 -0.24578016141E+02  0.30747666579E+02 -0.18279096566E+02  0.47787271334E+02  0.20000001319E+02 0.  0.
        -12    1    1    2    0    0  0.24578016141E+02 -0.30747666579E+02  0.18279096566E+02  0.43400728666E+02  0.00000000000E+00 0.  1.
         11    1    3    3    0    0 -0.16556563094E+02  0.20736621779E+02 -0.13285066290E+02  0.29675246433E+02  0.51100000000E-03 0. -1.
        -11    1    3    3    0    0 -0.10892781263E+02  0.78156309230E+01 -0.54437981208E+01  0.14469682395E+02  0.51100000000E-03 0.  1.
        -12    1    3    3    0    0  0.28713282160E+01  0.21954138772E+01  0.44976784427E+00  0.36423425058E+01  0.00000000000E+00 0.  1.
</event>
<event>
 7    1  0.4236733E-010  0.4778726E+02  0.7816164E-02  0.1312668E+00
        -11   -1    0    0    0    0  0.00000000000E+00  0.00000000000E+00  0.45593999997E+02  0.45594000000E+02  0.51100000000E-03 0.  1.
         11   -1    0    0    0    0 -0.00000000000E+00 -0.00000000000E+00 -0.45593999997E+02  0.45594000000E+02  0.51100000000E-03 0. -1.
    9900012    2    1    2    0    0  0.32859492776E+02  0.14180802453E+02 -0.24551628559E+02  0.47787263963E+02  0.19999967711E+02 0.  0.
        -12    1    1    2    0    0 -0.32859492776E+02 -0.14180802453E+02  0.24551628559E+02  0.43400736037E+02  0.00000000000E+00 0.  1.
         11    1    3    3    0    0  0.33919453277E+00 -0.36459268959E+00  0.11852724067E+01  0.12856328013E+01  0.51100000000E-03 0. -1.
        -11    1    3    3    0    0  0.40180316758E+01 -0.97256204270E-01 -0.10051035046E+02  0.10824848408E+02  0.51100000000E-03 0.  1.
         12    1    3    3    0    0  0.28502266567E+02  0.14642651347E+02 -0.15685865920E+02  0.35676782753E+02  0.00000000000E+00 0. -1.
</event>
<event>
 7    1  0.4236733E-010  0.4778727E+02  0.7816164E-02  0.1312668E+00
        -11   -1    0    0    0    0  0.00000000000E+00  0.00000000000E+00  0.45593999997E+02  0.45594000000E+02  0.51100000000E-03 0.  1.
         11   -1    0    0    0    0 -0.00000000000E+00 -0.00000000000E+00 -0.45593999997E+02  0.45594000000E+02  0.51100000000E-03 0. -1.
    9900012    2    1    2    0    0  0.42686587220E+02 -0.31206796881E+01 -0.71930769553E+01  0.47787265832E+02  0.19999976236E+02 0.  0.
        -12    1    1    2    0    0 -0.42686587220E+02  0.31206796881E+01  0.71930769553E+01  0.43400734168E+02  0.00000000000E+00 0.  1.
         11    1    3    3    0    0  0.11576837140E+02 -0.43891802001E+01  0.37511025359E+01  0.12936724141E+02  0.51100000000E-03 0. -1.
        -11    1    3    3    0    0 -0.36898471064E+00  0.10884955420E+01  0.63032112554E+00  0.13108307458E+01  0.51100000000E-03 0.  1.
         12    1    3    3    0    0  0.31478734791E+02  0.18000497000E+00 -0.11574500617E+02  0.33539710946E+02  0.00000000000E+00 0. -1.
</event>
<event>
 7    1  0.4236733E-010  0.4778726E+02  0.7816164E-02  0.1312668E+00
        -11   -1    0    0    0    0  0.00000000000E+00  0.00000000000E+00  0.45593999997E+02  0.45594000000E+02  0.51100000000E-03 0.  1.
         11   -1    0    0    0    0 -0.00000000000E+00 -0.00000000000E+00 -0.45593999997E+02  0.45594000000E+02  0.51100000000E-03 0. -1.
    9900012    2    1    2    0    0  0.21670023260E+02 -0.20626292602E+02 -0.31441851745E+02  0.47787263880E+02  0.19999967334E+02 0.  0.
        -12    1    1    2    0    0 -0.21670023260E+02  0.20626292602E+02  0.31441851745E+02  0.43400736120E+02  0.00000000000E+00 0.  1.
         11    1    3    3    0    0  0.26773337847E+00 -0.19439207809E+00 -0.21440101740E+01  0.21693891604E+01  0.51100000000E-03 0. -1.
        -11    1    3    3    0    0  0.18276202211E+02 -0.19328598291E+02 -0.31803968117E+02  0.41462111227E+02  0.51100000000E-03 0.  1.
        -12    1    3    3    0    0  0.31260876705E+01 -0.11033022332E+01  0.25061265458E+01  0.41557634924E+01  0.00000000000E+00 0.  1.
</event>
<event>
 7    1  0.4236733E-010  0.4778727E+02  0.7816164E-02  0.1312668E+00
        -11   -1    0    0    0    0  0.00000000000E+00  0.00000000000E+00  0.45593999997E+02  0.45594000000E+02  0.51100000000E-03 0.  1.
         11   -1    0    0    0    0 -0.00000000000E+00 -0.00000000000E+00 -0.45593999997E+02  0.45594000000E+02  0.51100000000E-03 0. -1.
    9900012    2    1    2    0    0 -0.11418190480E+02 -0.20388050681E+02 -0.36572881840E+02  0.47787269931E+02  0.19999994923E+02 0.  0.
        -12    1    1    2    0    0  0.11418190480E+02  0.20388050681E+02  0.36572881840E+02  0.43400730069E+02  0.00000000000E+00 0.  1.
         11    1    3    3    0    0  0.11172756086E+01 -0.32219778843E+01 -0.11650254101E+02  0.12139104874E+02  0.51100000000E-03 0.  1.
        -11    1    3    3    0    0 -0.15643504565E+02 -0.13692378091E+02 -0.19584195748E+02  0.28561183033E+02  0.51100000000E-03 0. -1.
         12    1    3    3    0    0  0.31080384766E+01 -0.34736947060E+01 -0.53384319912E+01  0.70869820239E+01  0.00000000000E+00 0. -1.
</event>
<event>
 7    1  0.4236733E-010  0.4778727E+02  0.7816164E-02  0.1312668E+00
        -11   -1    0    0    0    0  0.00000000000E+00  0.00000000000E+00  0.45593999997E+02  0.45594000000E+02  0.51100000000E-03 0.  1.
         11   -1    0    0    0    0 -0.00000000000E+00 -0.00000000000E+00 -0.45593999997E+02  0.45594000000E+02  0.51100000000E-03 0. -1.
    9900012    2    1    2    0    0  0.32854685210E+02  0.26359968251E+02 -0.10456812342E+02  0.47787272001E+02  0.20000004363E+02 0.  0.
        -12    1    1    2    0    0 -0.32854685210E+02 -0.26359968251E+02  0.10456812342E+02  0.43400727999E+02  0.00000000000E+00 0.  1.
         11    1    3    3    0    0  0.93969178162E+01  0.29280806976E+01 -0.14462885984E+01  0.99482396426E+01  0.51100000000E-03 0. -1.
        -11    1    3    3    0    0  0.10782880710E+02  0.13190406273E+02 -0.12554105946E+02  0.21162771804E+02  0.51100000000E-03 0.  1.
        -12    1    3    3    0    0  0.12674886683E+02  0.10241481281E+02  0.35435822026E+01  0.16676260555E+02  0.00000000000E+00 0.  1.
</event>
<event>
 7    1  0.4236733E-010  0.4778727E+02  0.7816164E-02  0.1312668E+00
        -11   -1    0    0    0    0  0.00000000000E+00  0.00000000000E+00  0.45593999997E+02  0.45594000000E+02  0.51100000000E-03 0.  1.
         11   -1    0    0    0    0 -0.00000000000E+00 -0.00000000000E+00 -0.45593999997E+02  0.45594000000E+02  0.51100000000E-03 0. -1.
    9900012    2    1    2    0    0  0.41210665136E+02 -0.13571903964E+02 -0.10524373295E+01  0.47787272789E+02  0.20000007954E+02 0.  0.
        -12    1    1    2    0    0 -0.41210665136E+02  0.13571903964E+02  0.10524373295E+01  0.43400727211E+02  0.00000000000E+00 0.  1.
         11    1    3    3    0    0  0.16983051869E+02 -0.68815723409E+00 -0.40976421144E+00  0.17001926894E+02  0.51100000000E-03 0. -1.
        -11    1    3    3    0    0  0.12997018869E+02 -0.56315739494E+01  0.65487147817E+01  0.15605216762E+02  0.51100000000E-03 0.  1.
         12    1    3    3    0    0  0.11230594398E+02 -0.72521727803E+01 -0.71913878997E+01  0.15180129133E+02  0.00000000000E+00 0. -1.
</event>
<event>
 7    1  0.4236733E-010  0.4778733E+02  0.7816164E-02  0.1312668E+00
        -11   -1    0    0    0    0  0.00000000000E+00  0.00000000000E+00  0.45593999997E+02  0.45594000000E+02  0.51100000000E-03 0. -1.
         11   -1    0    0    0    0 -0.00000000000E+00 -0.00000000000E+00 -0.45593999997E+02  0.45594000000E+02  0.51100000000E-03 0.  1.
    9900012    2    1    2    0    0 -0.16628680113E+02 -0.10611645628E+02  0.38658741263E+02  0.47787328331E+02  0.20000261192E+02 0.  0.
        -12    1    1    2    0    0  0.16628680113E+02  0.10611645628E+02 -0.38658741263E+02  0.43400671669E+02  0.00000000000E+00 0.  1.
         11    1    3    3    0    0  0.11532994557E+01  0.50270389816E+00  0.63738121824E+00  0.14103424840E+01  0.51100000000E-03 0. -1.
        -11    1    3    3    0    0 -0.32824348902E+01 -0.91236313464E+01  0.66436191036E+01  0.11753837791E+02  0.51100000000E-03 0.  1.
         12    1    3    3    0    0 -0.14499544679E+02 -0.19907181794E+01  0.31377740942E+02  0.34623148057E+02  0.00000000000E+00 0. -1.
</event>
<event>
 7    1  0.4236733E-010  0.4778729E+02  0.7816164E-02  0.1312668E+00
        -11   -1    0    0    0    0  0.00000000000E+00  0.00000000000E+00  0.45593999997E+02  0.45594000000E+02  0.51100000000E-03 0.  1.
         11   -1    0    0    0    0 -0.00000000000E+00 -0.00000000000E+00 -0.45593999997E+02  0.45594000000E+02  0.51100000000E-03 0. -1.
    9900012    2    1    2    0    0 -0.42935071870E+02 -0.62916732512E+01 -0.78477593288E+00  0.47787292378E+02  0.20000097269E+02 0.  0.
        -12    1    1    2    0    0  0.42935071870E+02  0.62916732512E+01  0.78477593288E+00  0.43400707622E+02  0.00000000000E+00 0.  1.
         11    1    3    3    0    0 -0.15155025015E+02  0.61185727882E+00  0.10830526672E+00  0.15167758002E+02  0.51100000000E-03 0. -1.
        -11    1    3    3    0    0 -0.21328278660E+02  0.19873520696E+01  0.11266292942E+01  0.21450275818E+02  0.51100000000E-03 0.  1.
         12    1    3    3    0    0 -0.64517681960E+01 -0.88908825996E+01 -0.20197104938E+01  0.11169258558E+02  0.00000000000E+00 0. -1.
</event>
<event>
 7    1  0.4236733E-010  0.4778730E+02  0.7816164E-02  0.1312668E+00
        -11   -1    0    0    0    0  0.00000000000E+00  0.00000000000E+00  0.45593999997E+02  0.45594000000E+02  0.51100000000E-03 0.  1.
         11   -1    0    0    0    0 -0.00000000000E+00 -0.00000000000E+00 -0.45593999997E+02  0.45594000000E+02  0.51100000000E-03 0. -1.
    9900012    2    1    2    0    0  0.49339700356E+01  0.18798563079E+01 -0.43078334230E+02  0.47787299544E+02  0.20000129939E+02 0.  0.
        -12    1    1    2    0    0 -0.49339700356E+01 -0.18798563079E+01  0.43078334230E+02  0.43400700456E+02  0.00000000000E+00 0.  1.
         11    1    3    3    0    0  0.20271304454E+01  0.48432095728E+00 -0.46640099948E+01  0.51085040986E+01  0.51100000000E-03 0. -1.
        -11    1    3    3    0    0 -0.44056066440E+01  0.32381255295E+01 -0.25550068310E+01  0.60351376963E+01  0.51100000000E-03 0.  1.
        -12    1    3    3    0    0  0.73124462342E+01 -0.18425901790E+01 -0.35859317404E+02  0.36643657749E+02  0.00000000000E+00 0.  1.
</event>
<event>
 7    1  0.4236733E-010  0.4778727E+02  0.7816164E-02  0.1312668E+00
        -11   -1    0    0    0    0  0.00000000000E+00  0.00000000000E+00  0.45593999997E+02  0.45594000000E+02  0.51100000000E-03 0.  1.
         11   -1    0    0    0    0 -0.00000000000E+00 -0.00000000000E+00 -0.45593999997E+02  0.45594000000E+02  0.51100000000E-03 0. -1.
    9900012    2    1    2    0    0  0.46250302115E+01  0.30666932008E+02 -0.30360689608E+02  0.47787273085E+02  0.20000009306E+02 0.  0.
        -12    1    1    2    0    0 -0.46250302115E+01 -0.30666932008E+02  0.30360689608E+02  0.43400726915E+02  0.00000000000E+00 0.  1.
         11    1    3    3    0    0  0.53967544123E+01  0.66785005213E+01 -0.82654147528E+01  0.11918238490E+02  0.51100000000E-03 0. -1.
        -11    1    3    3    0    0  0.98696891496E+00  0.93419121621E+01 -0.11155488331E+00  0.93945662612E+01  0.51100000000E-03 0.  1.
        -12    1    3    3    0    0 -0.17586931158E+01  0.14646519325E+02 -0.21983719971E+02  0.26474468335E+02  0.00000000000E+00 0.  1.
</event>
<event>
 7    1  0.4236733E-010  0.4778727E+02  0.7816164E-02  0.1312668E+00
        -11   -1    0    0    0    0  0.00000000000E+00  0.00000000000E+00  0.45593999997E+02  0.45594000000E+02  0.51100000000E-03 0. -1.
         11   -1    0    0    0    0 -0.00000000000E+00 -0.00000000000E+00 -0.45593999997E+02  0.45594000000E+02  0.51100000000E-03 0.  1.
    9900012    2    1    2    0    0  0.40367482416E+02 -0.19755772883E+01  0.15817295201E+02  0.47787269940E+02  0.19999994966E+02 0.  0.
        -12    1    1    2    0    0 -0.40367482416E+02  0.19755772883E+01 -0.15817295201E+02  0.43400730060E+02  0.00000000000E+00 0.  1.
         11    1    3    3    0    0  0.30086228842E+01  0.21598509813E+01  0.49565578852E+01  0.61874254946E+01  0.51100000000E-03 0.  1.
        -11    1    3    3    0    0  0.26247717612E+02 -0.58098216929E+01  0.13463166717E+02  0.30065820565E+02  0.51100000000E-03 0. -1.
         12    1    3    3    0    0  0.11111141920E+02  0.16743934232E+01 -0.26024294009E+01  0.11534023881E+02  0.00000000000E+00 0. -1.
</event>
<event>
 7    1  0.4236733E-010  0.4778727E+02  0.7816164E-02  0.1312668E+00
        -11   -1    0    0    0    0  0.00000000000E+00  0.00000000000E+00  0.45593999997E+02  0.45594000000E+02  0.51100000000E-03 0. -1.
         11   -1    0    0    0    0 -0.00000000000E+00 -0.00000000000E+00 -0.45593999997E+02  0.45594000000E+02  0.51100000000E-03 0.  1.
    9900012    2    1    2    0    0  0.26549340097E+02  0.36371255856E+01  0.34139816836E+02  0.47787271484E+02  0.20000002002E+02 0.  0.
        -12    1    1    2    0    0 -0.26549340097E+02 -0.36371255856E+01 -0.34139816836E+02  0.43400728516E+02  0.00000000000E+00 0.  1.
         11    1    3    3    0    0  0.87140089949E+00  0.49562518984E+01  0.24470307625E+01  0.55956887174E+01  0.51100000000E-03 0. -1.
        -11    1    3    3    0    0  0.98414238473E+01  0.38627302795E+01  0.16764250312E+02  0.19819545841E+02  0.51100000000E-03 0.  1.
         12    1    3    3    0    0  0.15836515351E+02 -0.51818565923E+01  0.14928535761E+02  0.22372036925E+02  0.00000000000E+00 0. -1.
</event>
<event>
 7    1  0.4236733E-010  0.4778728E+02  0.7816164E-02  0.1312668E+00
        -11   -1    0    0    0    0  0.00000000000E+00  0.00000000000E+00  0.45593999997E+02  0.45594000000E+02  0.51100000000E-03 0.  1.
         11   -1    0    0    0    0 -0.00000000000E+00 -0.00000000000E+00 -0.45593999997E+02  0.45594000000E+02  0.51100000000E-03 0. -1.
    9900012    2    1    2    0    0 -0.69713070843E+01 -0.25148515625E+02 -0.34678172524E+02  0.47787278690E+02  0.20000034861E+02 0.  0.
        -12    1    1    2    0    0  0.69713070843E+01  0.25148515625E+02  0.34678172524E+02  0.43400721310E+02  0.00000000000E+00 0.  1.
         11    1    3    3    0    0 -0.35306183530E+01 -0.18873805525E+02 -0.33051512894E+02  0.38224184828E+02  0.51100000000E-03 0. -1.
        -11    1    3    3    0    0 -0.24205998393E+01 -0.16126015409E+01 -0.33977624141E+01  0.44726476494E+01  0.51100000000E-03 0.  1.
        -12    1    3    3    0    0 -0.10200888921E+01 -0.46621085599E+01  0.17711027847E+01  0.50904462128E+01  0.00000000000E+00 0.  1.
</event>
<event>
 7    1  0.4236733E-010  0.4778727E+02  0.7816164E-02  0.1312668E+00
        -11   -1    0    0    0    0  0.00000000000E+00  0.00000000000E+00  0.45593999997E+02  0.45594000000E+02  0.51100000000E-03 0.  1.
         11   -1    0    0    0    0 -0.00000000000E+00 -0.00000000000E+00 -0.45593999997E+02  0.45594000000E+02  0.51100000000E-03 0. -1.
    9900012    2    1    2    0    0  0.10930298257E+02  0.11242635352E+02 -0.40469191898E+02  0.47787265415E+02  0.19999974333E+02 0.  0.
        -12    1    1    2    0    0 -0.10930298257E+02 -0.11242635352E+02  0.40469191898E+02  0.43400734585E+02  0.00000000000E+00 0.  1.
         11    1    3    3    0    0  0.64374808276E+01  0.82251146402E+01 -0.24745609181E+02  0.26859613628E+02  0.51100000000E-03 0. -1.
        -11    1    3    3    0    0  0.60971997208E+01 -0.21152914619E+01 -0.13767779359E+02  0.15205329696E+02  0.51100000000E-03 0.  1.
        -12    1    3    3    0    0 -0.16043822915E+01  0.51328121733E+01 -0.19558033583E+01  0.57223220916E+01  0.00000000000E+00 0.  1.
</event>
<event>
 7    1  0.4236733E-010  0.4778727E+02  0.7816164E-02  0.1312668E+00
        -11   -1    0    0    0    0  0.00000000000E+00  0.00000000000E+00  0.45593999997E+02  0.45594000000E+02  0.51100000000E-03 0. -1.
         11   -1    0    0    0    0 -0.00000000000E+00 -0.00000000000E+00 -0.45593999997E+02  0.45594000000E+02  0.51100000000E-03 0.  1.
    9900012    2    1    2    0    0 -0.28314256499E+02  0.30706800138E+02  0.11790616576E+02  0.47787270340E+02  0.19999996787E+02 0.  0.
        -12    1    1    2    0    0  0.28314256499E+02 -0.30706800138E+02 -0.11790616576E+02  0.43400729660E+02  0.00000000000E+00 0.  1.
         11    1    3    3    0    0 -0.42450213194E+01  0.13521044586E+02  0.90650648767E+00  0.14200725579E+02  0.51100000000E-03 0. -1.
        -11    1    3    3    0    0 -0.83320194653E+00  0.12507505630E+01 -0.20847300291E+01  0.25699614802E+01  0.51100000000E-03 0.  1.
         12    1    3    3    0    0 -0.23236033233E+02  0.15935004990E+02  0.12968840117E+02  0.31016583281E+02  0.00000000000E+00 0. -1.
</event>
<event>
 7    1  0.4236733E-010  0.4778727E+02  0.7816164E-02  0.1312668E+00
        -11   -1    0    0    0    0  0.00000000000E+00  0.00000000000E+00  0.45593999997E+02  0.45594000000E+02  0.51100000000E-03 0.  1.
         11   -1    0    0    0    0 -0.00000000000E+00 -0.00000000000E+00 -0.45593999997E+02  0.45594000000E+02  0.51100000000E-03 0. -1.
    9900012    2    1    2    0    0 -0.91600482103E+01  0.23517869044E+02 -0.35307602581E+02  0.47787269043E+02  0.19999990876E+02 0.  0.
        -12    1    1    2    0    0  0.91600482103E+01 -0.23517869044E+02  0.35307602581E+02  0.43400730957E+02  0.00000000000E+00 0.  1.
         11    1    3    3    0    0 -0.12195873065E+02  0.16396101217E+02 -0.27791074838E+02  0.34495148874E+02  0.51100000000E-03 0. -1.
        -11    1    3    3    0    0 -0.10323537783E+01  0.57305483800E+00 -0.50671806156E+01  0.52029285814E+01  0.51100000000E-03 0.  1.
        -12    1    3    3    0    0  0.40681786327E+01  0.65487129890E+01 -0.24493471277E+01  0.80891915883E+01  0.00000000000E+00 0.  1.
</event>
<event>
 7    1  0.4236733E-010  0.4778727E+02  0.7816164E-02  0.1312668E+00
        -11   -1    0    0    0    0  0.00000000000E+00  0.00000000000E+00  0.45593999997E+02  0.45594000000E+02  0.51100000000E-03 0. -1.
         11   -1    0    0    0    0 -0.00000000000E+00 -0.00000000000E+00 -0.45593999997E+02  0.45594000000E+02  0.51100000000E-03 0.  1.
    9900012    2    1    2    0    0  0.24911321363E+02 -0.80019616004E+01  0.34626838251E+02  0.47787271334E+02  0.20000001321E+02 0.  0.
        -12    1    1    2    0    0 -0.24911321363E+02  0.80019616004E+01 -0.34626838251E+02  0.43400728666E+02  0.00000000000E+00 0.  1.
         11    1    3    3    0    0  0.42791375506E+01  0.30906415699E+01  0.12931031665E+02  0.13966913177E+02  0.51100000000E-03 0. -1.
        -11    1    3    3    0    0  0.39875476569E+01  0.10436893705E+01  0.82463319022E+01  0.92191004941E+01  0.51100000000E-03 0.  1.
        -12    1    3    3    0    0  0.16644636155E+02 -0.12136292541E+02  0.13449474683E+02  0.24601257663E+02  0.00000000000E+00 0.  1.
</event>
<event>
 7    1  0.4236733E-010  0.4778728E+02  0.7816164E-02  0.1312668E+00
        -11   -1    0    0    0    0  0.00000000000E+00  0.00000000000E+00  0.45593999997E+02  0.45594000000E+02  0.51100000000E-03 0.  1.
         11   -1    0    0    0    0 -0.00000000000E+00 -0.00000000000E+00 -0.45593999997E+02  0.45594000000E+02  0.51100000000E-03 0. -1.
    9900012    2    1    2    0    0 -0.24187330750E+02 -0.17672266906E+02 -0.31405204804E+02  0.47787275637E+02  0.20000020941E+02 0.  0.
        -12    1    1    2    0    0  0.24187330750E+02  0.17672266906E+02  0.31405204804E+02  0.43400724363E+02  0.00000000000E+00 0.  1.
         11    1    3    3    0    0 -0.14162267921E+02 -0.23306680500E+01 -0.18142925315E+02  0.23133689405E+02  0.51100000000E-03 0. -1.
        -11    1    3    3    0    0 -0.11842405795E+01 -0.61248364227E+01 -0.94535912890E+01  0.11326360204E+02  0.51100000000E-03 0.  1.
        -12    1    3    3    0    0 -0.88408222494E+01 -0.92167624336E+01 -0.38086881996E+01  0.13327226028E+02  0.00000000000E+00 0.  1.
</event>
<event>
 7    1  0.4236733E-010  0.4778727E+02  0.7816164E-02  0.1312668E+00
        -11   -1    0    0    0    0  0.00000000000E+00  0.00000000000E+00  0.45593999997E+02  0.45594000000E+02  0.51100000000E-03 0. -1.
         11   -1    0    0    0    0 -0.00000000000E+00 -0.00000000000E+00 -0.45593999997E+02  0.45594000000E+02  0.51100000000E-03 0.  1.
    9900012    2    1    2    0    0  0.28793849003E+02 -0.31613948865E+02 -0.74226742644E+01  0.47787267328E+02  0.19999983056E+02 0.  0.
        -12    1    1    2    0    0 -0.28793849003E+02  0.31613948865E+02  0.74226742644E+01  0.43400732672E+02  0.00000000000E+00 0.  1.
         11    1    3    3    0    0  0.11390694316E+02 -0.12485445149E+02 -0.99278816320E+01  0.19600946190E+02  0.51100000000E-03 0. -1.
        -11    1    3    3    0    0  0.56504961310E+01 -0.12975585766E+00 -0.35923108587E+00  0.56633903577E+01  0.51100000000E-03 0.  1.
        -12    1    3    3    0    0  0.11752658556E+02 -0.18998747858E+02  0.28644384535E+01  0.22522930781E+02  0.00000000000E+00 0.  1.
</event>
<event>
 7    1  0.4236733E-010  0.4778727E+02  0.7816164E-02  0.1312668E+00
        -11   -1    0    0    0    0  0.00000000000E+00  0.00000000000E+00  0.45593999997E+02  0.45594000000E+02  0.51100000000E-03 0. -1.
         11   -1    0    0    0    0 -0.00000000000E+00 -0.00000000000E+00 -0.45593999997E+02  0.45594000000E+02  0.51100000000E-03 0.  1.
    9900012    2    1    2    0    0 -0.13748366094E+02 -0.37515749695E+02  0.16946218576E+02  0.47787269944E+02  0.19999994982E+02 0.  0.
        -12    1    1    2    0    0  0.13748366094E+02  0.37515749695E+02 -0.16946218576E+02  0.43400730056E+02  0.00000000000E+00 0.  1.
         11    1    3    3    0    0 -0.11717427315E+02 -0.19223066956E+02  0.15347685125E+02  0.27246574923E+02  0.51100000000E-03 0. -1.
        -11    1    3    3    0    0 -0.47066353492E+01 -0.54586508102E+01  0.18008231723E+01  0.74291486280E+01  0.51100000000E-03 0.  1.
        -12    1    3    3    0    0  0.26756965707E+01 -0.12834031928E+02 -0.20228972152E+00  0.13111546393E+02  0.00000000000E+00 0.  1.
</event>
<event>
 7    1  0.4236733E-010  0.4778727E+02  0.7816164E-02  0.1312668E+00
        -11   -1    0    0    0    0  0.00000000000E+00  0.00000000000E+00  0.45593999997E+02  0.45594000000E+02  0.51100000000E-03 0.  1.
         11   -1    0    0    0    0 -0.00000000000E+00 -0.00000000000E+00 -0.45593999997E+02  0.45594000000E+02  0.51100000000E-03 0. -1.
    9900012    2    1    2    0    0  0.92504536729E+01  0.36647684055E+02 -0.21330717301E+02  0.47787272583E+02  0.20000007015E+02 0.  0.
        -12    1    1    2    0    0 -0.92504536729E+01 -0.36647684055E+02  0.21330717301E+02  0.43400727417E+02  0.00000000000E+00 0.  1.
         11    1    3    3    0    0 -0.92731705361E-01  0.80569882666E+01 -0.49505944449E+01  0.94568517339E+01  0.51100000000E-03 0. -1.
        -11    1    3    3    0    0  0.12326313789E+02  0.16364012259E+02 -0.43988886224E+01  0.20953976477E+02  0.51100000000E-03 0.  1.
        -12    1    3    3    0    0 -0.29831284111E+01  0.12226683530E+02 -0.11981234233E+02  0.17376444372E+02  0.00000000000E+00 0.  1.
</event>
<event>
 7    1  0.4236733E-010  0.4778727E+02  0.7816164E-02  0.1312668E+00
        -11   -1    0    0    0    0  0.00000000000E+00  0.00000000000E+00  0.45593999997E+02  0.45594000000E+02  0.51100000000E-03 0.  1.
         11   -1    0    0    0    0 -0.00000000000E+00 -0.00000000000E+00 -0.45593999997E+02  0.45594000000E+02  0.51100000000E-03 0. -1.
    9900012    2    1    2    0    0  0.11476408765E+01 -0.20609026924E+02 -0.38178191655E+02  0.47787269725E+02  0.19999993986E+02 0.  0.
        -12    1    1    2    0    0 -0.11476408765E+01  0.20609026924E+02  0.38178191655E+02  0.43400730275E+02  0.00000000000E+00 0.  1.
         11    1    3    3    0    0  0.67553079471E+01 -0.88892270824E+01 -0.27621655518E+02  0.29792757466E+02  0.51100000000E-03 0. -1.
        -11    1    3    3    0    0 -0.10786612455E+01  0.70653567290E+00 -0.51480198678E+00  0.13884250380E+01  0.51100000000E-03 0.  1.
        -12    1    3    3    0    0 -0.45290058252E+01 -0.12426335514E+02 -0.10041734150E+02  0.16606087222E+02  0.00000000000E+00 0.  1.
</event>
<event>
 7    1  0.4236733E-010  0.4778727E+02  0.7816164E-02  0.1312668E+00
        -11   -1    0    0    0    0  0.00000000000E+00  0.00000000000E+00  0.45593999997E+02  0.45594000000E+02  0.51100000000E-03 0.  1.
         11   -1    0    0    0    0 -0.00000000000E+00 -0.00000000000E+00 -0.45593999997E+02  0.45594000000E+02  0.51100000000E-03 0. -1.
    9900012    2    1    2    0    0 -0.15261193961E+02 -0.38620713882E+02 -0.12615856427E+02  0.47787269416E+02  0.19999992573E+02 0.  0.
        -12    1    1    2    0    0  0.15261193961E+02  0.38620713882E+02  0.12615856427E+02  0.43400730584E+02  0.00000000000E+00 0.  1.
         11    1    3    3    0    0 -0.10654492359E+02 -0.94914882159E+01 -0.52184718179E+01  0.15193386863E+02  0.51100000000E-03 0. -1.
        -11    1    3    3    0    0  0.25705193089E+01 -0.28985295758E+01  0.12276660530E+01  0.40640137079E+01  0.51100000000E-03 0.  1.
        -12    1    3    3    0    0 -0.71772209110E+01 -0.26230696090E+02 -0.86250506619E+01  0.28529868845E+02  0.00000000000E+00 0.  1.
</event>
<event>
 7    1  0.4236733E-010  0.4778733E+02  0.7816164E-02  0.1312668E+00
        -11   -1    0    0    0    0  0.00000000000E+00  0.00000000000E+00  0.45593999997E+02  0.45594000000E+02  0.51100000000E-03 0.  1.
         11   -1    0    0    0    0 -0.00000000000E+00 -0.00000000000E+00 -0.45593999997E+02  0.45594000000E+02  0.51100000000E-03 0. -1.
    9900012    2    1    2    0    0 -0.19216703824E+01 -0.18310920457E+02 -0.39301855813E+02  0.47787326095E+02  0.20000250997E+02 0.  0.
        -12    1    1    2    0    0  0.19216703824E+01  0.18310920457E+02  0.39301855813E+02  0.43400673905E+02  0.00000000000E+00 0.  1.
         11    1    3    3    0    0 -0.28871657035E+00 -0.42002845065E+01 -0.15654385331E+02  0.16210660923E+02  0.51100000000E-03 0. -1.
        -11    1    3    3    0    0 -0.48388110452E-01 -0.16894411471E+02 -0.15928222829E+02  0.23219211078E+02  0.51100000000E-03 0.  1.
        -12    1    3    3    0    0 -0.15845657016E+01  0.27837755199E+01 -0.77192476528E+01  0.83574540940E+01  0.00000000000E+00 0.  1.
</event>
<event>
 7    1  0.4236733E-010  0.4778728E+02  0.7816164E-02  0.1312668E+00
        -11   -1    0    0    0    0  0.00000000000E+00  0.00000000000E+00  0.45593999997E+02  0.45594000000E+02  0.51100000000E-03 0. -1.
         11   -1    0    0    0    0 -0.00000000000E+00 -0.00000000000E+00 -0.45593999997E+02  0.45594000000E+02  0.51100000000E-03 0.  1.
    9900012    2    1    2    0    0  0.40335751952E+02  0.12412848173E+02 -0.10127744658E+02  0.47787275385E+02  0.20000019789E+02 0.  0.
        -12    1    1    2    0    0 -0.40335751952E+02 -0.12412848173E+02  0.10127744658E+02  0.43400724615E+02  0.00000000000E+00 0.  1.
         11    1    3    3    0    0  0.78837013251E+01  0.70541176129E+01  0.97821780428E+00  0.10624040296E+02  0.51100000000E-03 0. -1.
        -11    1    3    3    0    0  0.31280299717E+01  0.15333899074E+01 -0.63052668828E+01  0.72036273388E+01  0.51100000000E-03 0.  1.
        -12    1    3    3    0    0  0.29324020655E+02  0.38253406531E+01 -0.48006955791E+01  0.29959607750E+02  0.00000000000E+00 0.  1.
</event>
<event>
 7    1  0.4236733E-010  0.4778728E+02  0.7816164E-02  0.1312668E+00
        -11   -1    0    0    0    0  0.00000000000E+00  0.00000000000E+00  0.45593999997E+02  0.45594000000E+02  0.51100000000E-03 0.  1.
         11   -1    0    0    0    0 -0.00000000000E+00 -0.00000000000E+00 -0.45593999997E+02  0.45594000000E+02  0.51100000000E-03 0. -1.
    9900012    2    1    2    0    0 -0.82249971981E+01 -0.40806458211E+02 -0.12280257598E+02  0.47787281834E+02  0.20000049194E+02 0.  0.
        -12    1    1    2    0    0  0.82249971981E+01  0.40806458211E+02  0.12280257598E+02  0.43400718166E+02  0.00000000000E+00 0.  1.
         11    1    3    3    0    0 -0.51006959814E+01 -0.93933211224E+01 -0.66564154160E+01  0.12592039059E+02  0.51100000000E-03 0. -1.
        -11    1    3    3    0    0  0.15741707374E+01 -0.29679042246E+02 -0.44601584737E+01  0.30053561785E+02  0.51100000000E-03 0.  1.
        -12    1    3    3    0    0 -0.46984719541E+01 -0.17340948431E+01 -0.11636837087E+01  0.51416809899E+01  0.00000000000E+00 0.  1.
</event>
<event>
 7    1  0.4236733E-010  0.4778726E+02  0.7816164E-02  0.1312668E+00
        -11   -1    0    0    0    0  0.00000000000E+00  0.00000000000E+00  0.45593999997E+02  0.45594000000E+02  0.51100000000E-03 0.  1.
         11   -1    0    0    0    0 -0.00000000000E+00 -0.00000000000E+00 -0.45593999997E+02  0.45594000000E+02  0.51100000000E-03 0. -1.
    9900012    2    1    2    0    0  0.52657219247E+01 -0.16497499534E+01 -0.43048517049E+02  0.47787258965E+02  0.19999944924E+02 0.  0.
        -12    1    1    2    0    0 -0.52657219247E+01  0.16497499534E+01  0.43048517049E+02  0.43400741035E+02  0.00000000000E+00 0.  1.
         11    1    3    3    0    0 -0.35113639935E+00 -0.63313192648E+00 -0.16247202787E+02  0.16263325351E+02  0.51100000000E-03 0. -1.
        -11    1    3    3    0    0 -0.21784516722E+01  0.43075421546E+01 -0.24632471884E+01  0.54192396214E+01  0.51100000000E-03 0.  1.
        -12    1    3    3    0    0  0.77953099963E+01 -0.53241601814E+01 -0.24338067073E+02  0.26104693992E+02  0.00000000000E+00 0.  1.
</event>
<event>
 7    1  0.4236733E-010  0.4778727E+02  0.7816164E-02  0.1312668E+00
        -11   -1    0    0    0    0  0.00000000000E+00  0.00000000000E+00  0.45593999997E+02  0.45594000000E+02  0.51100000000E-03 0. -1.
         11   -1    0    0    0    0 -0.00000000000E+00 -0.00000000000E+00 -0.45593999997E+02  0.45594000000E+02  0.51100000000E-03 0.  1.
    9900012    2    1    2    0    0  0.22666318086E+02  0.18973637499E+02  0.31778338691E+02  0.47787266072E+02  0.19999977329E+02 0.  0.
        -12    1    1    2    0    0 -0.22666318086E+02 -0.18973637499E+02 -0.31778338691E+02  0.43400733928E+02  0.00000000000E+00 0.  1.
         11    1    3    3    0    0  0.17083145676E+02  0.14043065563E+02  0.20642280265E+02  0.30251368422E+02  0.51100000000E-03 0. -1.
        -11    1    3    3    0    0  0.69392964382E+01  0.19421201789E+01  0.15054943622E+01  0.73615337656E+01  0.51100000000E-03 0.  1.
         12    1    3    3    0    0 -0.13561240277E+01  0.29884517576E+01  0.96305640631E+01  0.10174363885E+02  0.00000000000E+00 0. -1.
</event>
<event>
 7    1  0.4236733E-010  0.4778726E+02  0.7816164E-02  0.1312668E+00
        -11   -1    0    0    0    0  0.00000000000E+00  0.00000000000E+00  0.45593999997E+02  0.45594000000E+02  0.51100000000E-03 0.  1.
         11   -1    0    0    0    0 -0.00000000000E+00 -0.00000000000E+00 -0.45593999997E+02  0.45594000000E+02  0.51100000000E-03 0. -1.
    9900012    2    1    2    0    0 -0.27448817641E+02  0.33767024955E+01 -0.33448233022E+02  0.47787262657E+02  0.19999961760E+02 0.  0.
        -12    1    1    2    0    0  0.27448817641E+02 -0.33767024955E+01  0.33448233022E+02  0.43400737343E+02  0.00000000000E+00 0.  1.
         11    1    3    3    0    0 -0.47090744659E+01  0.76490236392E+01 -0.91137318365E+01  0.12796212456E+02  0.51100000000E-03 0. -1.
        -11    1    3    3    0    0 -0.76299497715E+01 -0.20230464988E+00 -0.23120179904E+01  0.79751168102E+01  0.51100000000E-03 0.  1.
         12    1    3    3    0    0 -0.15109793403E+02 -0.40700164938E+01 -0.22022483195E+02  0.27015933392E+02  0.00000000000E+00 0. -1.
</event>
<event>
 7    1  0.4236733E-010  0.4778727E+02  0.7816164E-02  0.1312668E+00
        -11   -1    0    0    0    0  0.00000000000E+00  0.00000000000E+00  0.45593999997E+02  0.45594000000E+02  0.51100000000E-03 0. -1.
         11   -1    0    0    0    0 -0.00000000000E+00 -0.00000000000E+00 -0.45593999997E+02  0.45594000000E+02  0.51100000000E-03 0.  1.
    9900012    2    1    2    0    0  0.84407591126E+01 -0.40748151061E+02  0.12327406497E+02  0.47787272124E+02  0.20000004920E+02 0.  0.
        -12    1    1    2    0    0 -0.84407591126E+01  0.40748151061E+02 -0.12327406497E+02  0.43400727876E+02  0.00000000000E+00 0.  1.
         11    1    3    3    0    0  0.82392815667E+00 -0.12942497209E+02  0.44185956561E+01  0.13700769301E+02  0.51100000000E-03 0.  1.
        -11    1    3    3    0    0 -0.22654069015E+01 -0.76981700760E+01  0.84794727731E+01  0.11674559937E+02  0.51100000000E-03 0. -1.
         12    1    3    3    0    0  0.98822378575E+01 -0.20107483776E+02 -0.57066193237E+00  0.22411942886E+02  0.00000000000E+00 0. -1.
</event>
<event>
 7    1  0.4236733E-010  0.4778727E+02  0.7816164E-02  0.1312668E+00
        -11   -1    0    0    0    0  0.00000000000E+00  0.00000000000E+00  0.45593999997E+02  0.45594000000E+02  0.51100000000E-03 0.  1.
         11   -1    0    0    0    0 -0.00000000000E+00 -0.00000000000E+00 -0.45593999997E+02  0.45594000000E+02  0.51100000000E-03 0. -1.
    9900012    2    1    2    0    0 -0.22146913044E+02 -0.59334323511E+01 -0.36850131089E+02  0.47787268000E+02  0.19999986120E+02 0.  0.
        -12    1    1    2    0    0  0.22146913044E+02  0.59334323511E+01  0.36850131089E+02  0.43400732000E+02  0.00000000000E+00 0.  1.
         11    1    3    3    0    0 -0.18726838912E+02 -0.37099747997E+01 -0.33324123266E+02  0.38405150701E+02  0.51100000000E-03 0. -1.
        -11    1    3    3    0    0 -0.85679822603E+00 -0.26627590677E+01 -0.54642757610E+01  0.61386235352E+01  0.51100000000E-03 0.  1.
        -12    1    3    3    0    0 -0.25632759060E+01  0.43930151633E+00  0.19382679388E+01  0.32434937637E+01  0.00000000000E+00 0.  1.
</event>
<event>
 7    1  0.4236733E-010  0.4778727E+02  0.7816164E-02  0.1312668E+00
        -11   -1    0    0    0    0  0.00000000000E+00  0.00000000000E+00  0.45593999997E+02  0.45594000000E+02  0.51100000000E-03 0.  1.
         11   -1    0    0    0    0 -0.00000000000E+00 -0.00000000000E+00 -0.45593999997E+02  0.45594000000E+02  0.51100000000E-03 0. -1.
    9900012    2    1    2    0    0  0.65374581525E+01  0.37286024346E+02 -0.21228223433E+02  0.47787269122E+02  0.19999991236E+02 0.  0.
        -12    1    1    2    0    0 -0.65374581525E+01 -0.37286024346E+02  0.21228223433E+02  0.43400730878E+02  0.00000000000E+00 0.  1.
         11    1    3    3    0    0  0.42644614772E+01  0.12397967601E+02 -0.87330619240E+01  0.15753145818E+02  0.51100000000E-03 0. -1.
        -11    1    3    3    0    0  0.86914156267E+01  0.12140714556E+02 -0.41321377412E+01  0.15492327718E+02  0.51100000000E-03 0.  1.
        -12    1    3    3    0    0 -0.64184189514E+01  0.12747342189E+02 -0.83630237675E+01  0.16541795587E+02  0.00000000000E+00 0.  1.
</event>
<event>
 7    1  0.4236733E-010  0.4778729E+02  0.7816164E-02  0.1312668E+00
        -11   -1    0    0    0    0  0.00000000000E+00  0.00000000000E+00  0.45593999997E+02  0.45594000000E+02  0.51100000000E-03 0.  1.
         11   -1    0    0    0    0 -0.00000000000E+00 -0.00000000000E+00 -0.45593999997E+02  0.45594000000E+02  0.51100000000E-03 0. -1.
    9900012    2    1    2    0    0 -0.75358810810E+00 -0.26488939382E+02 -0.34371351051E+02  0.47787290585E+02  0.20000089095E+02 0.  0.
        -12    1    1    2    0    0  0.75358810810E+00  0.26488939382E+02  0.34371351051E+02  0.43400709415E+02  0.00000000000E+00 0.  1.
         11    1    3    3    0    0  0.27055864213E+01  0.20248037423E+01 -0.95301235341E+00  0.35111623268E+01  0.51100000000E-03 0.  1.
        -11    1    3    3    0    0 -0.14507286788E+00 -0.16524584152E+02 -0.17421574096E+02  0.24012375388E+02  0.51100000000E-03 0. -1.
        -12    1    3    3    0    0 -0.33141016615E+01 -0.11989158972E+02 -0.15996764601E+02  0.20263752870E+02  0.00000000000E+00 0.  1.
</event>
<event>
 7    1  0.4236733E-010  0.4778727E+02  0.7816164E-02  0.1312668E+00
        -11   -1    0    0    0    0  0.00000000000E+00  0.00000000000E+00  0.45593999997E+02  0.45594000000E+02  0.51100000000E-03 0. -1.
         11   -1    0    0    0    0 -0.00000000000E+00 -0.00000000000E+00 -0.45593999997E+02  0.45594000000E+02  0.51100000000E-03 0.  1.
    9900012    2    1    2    0    0 -0.18747109749E+02 -0.17624456847E+02  0.34950651283E+02  0.47787266962E+02  0.19999981387E+02 0.  0.
        -12    1    1    2    0    0  0.18747109749E+02  0.17624456847E+02 -0.34950651283E+02  0.43400733038E+02  0.00000000000E+00 0.  1.
         11    1    3    3    0    0 -0.58366415677E+01 -0.11289808502E+02  0.11601269938E+02  0.17208010496E+02  0.51100000000E-03 0. -1.
        -11    1    3    3    0    0 -0.14662656686E+02 -0.79687142076E+01  0.22550130147E+02  0.28053560864E+02  0.51100000000E-03 0.  1.
        -12    1    3    3    0    0  0.17521885050E+01  0.16340658620E+01  0.79925119892E+00  0.25256956027E+01  0.00000000000E+00 0.  1.
</event>
<event>
 7    1  0.4236733E-010  0.4778727E+02  0.7816164E-02  0.1312668E+00
        -11   -1    0    0    0    0  0.00000000000E+00  0.00000000000E+00  0.45593999997E+02  0.45594000000E+02  0.51100000000E-03 0.  1.
         11   -1    0    0    0    0 -0.00000000000E+00 -0.00000000000E+00 -0.45593999997E+02  0.45594000000E+02  0.51100000000E-03 0. -1.
    9900012    2    1    2    0    0 -0.34114068337E+02 -0.10674157456E+02 -0.24615363357E+02  0.47787269487E+02  0.19999992899E+02 0.  0.
        -12    1    1    2    0    0  0.34114068337E+02  0.10674157456E+02  0.24615363357E+02  0.43400730513E+02  0.00000000000E+00 0.  1.
         11    1    3    3    0    0 -0.22609631632E+02  0.64357633424E+00 -0.13635639278E+02  0.26410988088E+02  0.51100000000E-03 0. -1.
        -11    1    3    3    0    0 -0.91640932251E+00 -0.29368861005E+01 -0.64279138024E+01  0.71262319725E+01  0.51100000000E-03 0.  1.
        -12    1    3    3    0    0 -0.10588027382E+02 -0.83808476901E+01 -0.45518102766E+01  0.14250049426E+02  0.00000000000E+00 0.  1.
</event>
<event>
 7    1  0.4236733E-010  0.4778727E+02  0.7816164E-02  0.1312668E+00
        -11   -1    0    0    0    0  0.00000000000E+00  0.00000000000E+00  0.45593999997E+02  0.45594000000E+02  0.51100000000E-03 0. -1.
         11   -1    0    0    0    0 -0.00000000000E+00 -0.00000000000E+00 -0.45593999997E+02  0.45594000000E+02  0.51100000000E-03 0.  1.
    9900012    2    1    2    0    0 -0.64028385717E+01 -0.42888686633E+02  0.17853338986E+01  0.47787271895E+02  0.20000003880E+02 0.  0.
        -12    1    1    2    0    0  0.64028385717E+01  0.42888686633E+02 -0.17853338986E+01  0.43400728105E+02  0.00000000000E+00 0.  1.
         11    1    3    3    0    0 -0.11695828358E+01 -0.75351774243E+01 -0.54464074138E+01  0.93707084473E+01  0.51100000000E-03 0. -1.
        -11    1    3    3    0    0  0.35202586138E+01 -0.16639643245E+02  0.21719270606E+01  0.17146055390E+02  0.51100000000E-03 0.  1.
         12    1    3    3    0    0 -0.87535143498E+01 -0.18713865964E+02  0.50598142518E+01  0.21270508058E+02  0.00000000000E+00 0. -1.
</event>
<event>
 7    1  0.4236733E-010  0.4778727E+02  0.7816164E-02  0.1312668E+00
        -11   -1    0    0    0    0  0.00000000000E+00  0.00000000000E+00  0.45593999997E+02  0.45594000000E+02  0.51100000000E-03 0. -1.
         11   -1    0    0    0    0 -0.00000000000E+00 -0.00000000000E+00 -0.45593999997E+02  0.45594000000E+02  0.51100000000E-03 0.  1.
    9900012    2    1    2    0    0  0.34889529567E+02  0.23310619154E+02  0.11088696587E+02  0.47787269237E+02  0.19999991759E+02 0.  0.
        -12    1    1    2    0    0 -0.34889529567E+02 -0.23310619154E+02 -0.11088696587E+02  0.43400730763E+02  0.00000000000E+00 0.  1.
         11    1    3    3    0    0  0.27536252902E+02  0.11243269647E+02  0.99111334309E+01  0.31351027134E+02  0.51100000000E-03 0. -1.
        -11    1    3    3    0    0  0.56111644031E+01  0.49104086774E+01  0.41029553060E+01  0.85106710571E+01  0.51100000000E-03 0.  1.
        -12    1    3    3    0    0  0.17421122626E+01  0.71569408292E+01 -0.29253921497E+01  0.79255710455E+01  0.00000000000E+00 0.  1.
</event>
<event>
 7    1  0.4236733E-010  0.4778724E+02  0.7816164E-02  0.1312668E+00
        -11   -1    0    0    0    0  0.00000000000E+00  0.00000000000E+00  0.45593999997E+02  0.45594000000E+02  0.51100000000E-03 0.  1.
         11   -1    0    0    0    0 -0.00000000000E+00 -0.00000000000E+00 -0.45593999997E+02  0.45594000000E+02  0.51100000000E-03 0. -1.
    9900012    2    1    2    0    0  0.41082117892E+02  0.11435172981E+02  0.80698408370E+01  0.47787240528E+02  0.19999860864E+02 0.  0.
        -12    1    1    2    0    0 -0.41082117892E+02 -0.11435172981E+02 -0.80698408370E+01  0.43400759472E+02  0.00000000000E+00 0.  1.
         11    1    3    3    0    0  0.95601565294E+01  0.57323066396E+01  0.19886458653E+01  0.11323013950E+02  0.51100000000E-03 0. -1.
        -11    1    3    3    0    0  0.28916842395E+02  0.94331500591E+01  0.81149389866E+01  0.31480475364E+02  0.51100000000E-03 0.  1.
        -12    1    3    3    0    0  0.26051189678E+01 -0.37302837174E+01 -0.20337440149E+01  0.49837512144E+01  0.00000000000E+00 0.  1.
</event>
<event>
 7    1  0.4236733E-010  0.4778727E+02  0.7816164E-02  0.1312668E+00
        -11   -1    0    0    0    0  0.00000000000E+00  0.00000000000E+00  0.45593999997E+02  0.45594000000E+02  0.51100000000E-03 0.  1.
         11   -1    0    0    0    0 -0.00000000000E+00 -0.00000000000E+00 -0.45593999997E+02  0.45594000000E+02  0.51100000000E-03 0. -1.
    9900012    2    1    2    0    0 -0.37169570463E+02  0.91715791738E+01 -0.20443295952E+02  0.47787272099E+02  0.20000004808E+02 0.  0.
        -12    1    1    2    0    0  0.37169570463E+02 -0.91715791738E+01  0.20443295952E+02  0.43400727901E+02  0.00000000000E+00 0.  1.
         11    1    3    3    0    0 -0.16399495451E+02 -0.10515196738E+01 -0.11219348657E+02  0.19897812172E+02  0.51100000000E-03 0. -1.
        -11    1    3    3    0    0 -0.33088167200E+01 -0.29608823740E+01 -0.15069439874E+01  0.46889202341E+01  0.51100000000E-03 0.  1.
        -12    1    3    3    0    0 -0.17461258292E+02  0.13183981222E+02 -0.77170033078E+01  0.23200539693E+02  0.00000000000E+00 0.  1.
</event>
<event>
 7    1  0.5425912E-010  0.4778728E+02  0.7816164E-02  0.1312668E+00
        -11   -1    0    0    0    0  0.00000000000E+00  0.00000000000E+00  0.45593999997E+02  0.45594000000E+02  0.51100000000E-03 0.  1.
         11   -1    0    0    0    0 -0.00000000000E+00 -0.00000000000E+00 -0.45593999997E+02  0.45594000000E+02  0.51100000000E-03 0. -1.
    9900012    2    1    2    0    0  0.18090370487E+01  0.43356379284E+02 -0.75793388512E+00  0.47787277616E+02  0.20000029963E+02 0.  0.
        -12    1    1    2    0    0 -0.18090370487E+01 -0.43356379284E+02  0.75793388512E+00  0.43400722384E+02  0.00000000000E+00 0.  1.
         11    1    3    3    0    0 -0.47532030277E+01  0.18146957880E+02  0.67594885946E-01  0.18759253414E+02  0.51100000000E-03 0. -1.
        -11    1    3    3    0    0 -0.12735378175E+01 -0.66130292135E+00  0.12690469135E+01  0.19156462241E+01  0.51100000000E-03 0.  1.
         12    1    3    3    0    0  0.78357778938E+01  0.25870724325E+02 -0.20945756845E+01  0.27112377978E+02  0.00000000000E+00 0. -1.
</event>
<event>
 7    1  0.4236733E-010  0.4778727E+02  0.7816164E-02  0.1312668E+00
        -11   -1    0    0    0    0  0.00000000000E+00  0.00000000000E+00  0.45593999997E+02  0.45594000000E+02  0.51100000000E-03 0.  1.
         11   -1    0    0    0    0 -0.00000000000E+00 -0.00000000000E+00 -0.45593999997E+02  0.45594000000E+02  0.51100000000E-03 0. -1.
    9900012    2    1    2    0    0  0.14959703656E+02 -0.40456768100E+02 -0.48042495534E+01  0.47787266915E+02  0.19999981173E+02 0.  0.
        -12    1    1    2    0    0 -0.14959703656E+02  0.40456768100E+02  0.48042495534E+01  0.43400733085E+02  0.00000000000E+00 0.  1.
         11    1    3    3    0    0  0.37818388388E+00 -0.20701784018E+02 -0.88605819580E+01  0.22521474141E+02  0.51100000000E-03 0. -1.
        -11    1    3    3    0    0  0.26781809151E+01 -0.19725935213E+01 -0.56479781462E+00  0.33738368436E+01  0.51100000000E-03 0.  1.
         12    1    3    3    0    0  0.11903338857E+02 -0.17782390560E+02  0.46211302192E+01  0.21891955931E+02  0.00000000000E+00 0. -1.
</event>
<event>
 7    1  0.4236733E-010  0.4778727E+02  0.7816164E-02  0.1312668E+00
        -11   -1    0    0    0    0  0.00000000000E+00  0.00000000000E+00  0.45593999997E+02  0.45594000000E+02  0.51100000000E-03 0. -1.
         11   -1    0    0    0    0 -0.00000000000E+00 -0.00000000000E+00 -0.45593999997E+02  0.45594000000E+02  0.51100000000E-03 0.  1.
    9900012    2    1    2    0    0  0.15408559020E+02  0.39621432091E+02  0.87373625647E+01  0.47787273317E+02  0.20000010361E+02 0.  0.
        -12    1    1    2    0    0 -0.15408559020E+02 -0.39621432091E+02 -0.87373625647E+01  0.43400726683E+02  0.00000000000E+00 0.  1.
         11    1    3    3    0    0  0.69468132686E+01  0.85645493838E+01  0.92855860321E+01  0.14416373641E+02  0.51100000000E-03 0. -1.
        -11    1    3    3    0    0  0.33379148324E+01  0.43594808396E+01  0.24673370698E+01  0.60195100379E+01  0.51100000000E-03 0.  1.
        -12    1    3    3    0    0  0.51238309185E+01  0.26697401868E+02 -0.30155605372E+01  0.27351389638E+02  0.00000000000E+00 0.  1.
</event>
<event>
 7    1  0.4236733E-010  0.4778726E+02  0.7816164E-02  0.1312668E+00
        -11   -1    0    0    0    0  0.00000000000E+00  0.00000000000E+00  0.45593999997E+02  0.45594000000E+02  0.51100000000E-03 0.  1.
         11   -1    0    0    0    0 -0.00000000000E+00 -0.00000000000E+00 -0.45593999997E+02  0.45594000000E+02  0.51100000000E-03 0. -1.
    9900012    2    1    2    0    0  0.41200314780E+02 -0.20635959201E+01  0.13487023310E+02  0.47787260791E+02  0.19999953252E+02 0.  0.
        -12    1    1    2    0    0 -0.41200314780E+02  0.20635959201E+01 -0.13487023310E+02  0.43400739209E+02  0.00000000000E+00 0.  1.
         11    1    3    3    0    0  0.17503960089E+02  0.14022470143E+01  0.80562214765E+01  0.19319876300E+02  0.51100000000E-03 0. -1.
        -11    1    3    3    0    0  0.87967107092E+01 -0.35732154262E+01  0.90685831061E+01  0.13129706303E+02  0.51100000000E-03 0.  1.
         12    1    3    3    0    0  0.14899643982E+02  0.10737249182E+00 -0.36377812729E+01  0.15337678189E+02  0.00000000000E+00 0. -1.
</event>
<event>
 7    1  0.4236733E-010  0.4778728E+02  0.7816164E-02  0.1312668E+00
        -11   -1    0    0    0    0  0.00000000000E+00  0.00000000000E+00  0.45593999997E+02  0.45594000000E+02  0.51100000000E-03 0.  1.
         11   -1    0    0    0    0 -0.00000000000E+00 -0.00000000000E+00 -0.45593999997E+02  0.45594000000E+02  0.51100000000E-03 0. -1.
    9900012    2    1    2    0    0  0.28436757924E+02 -0.20963676901E+02 -0.25209081203E+02  0.47787277362E+02  0.20000028803E+02 0.  0.
        -12    1    1    2    0    0 -0.28436757924E+02  0.20963676901E+02  0.25209081203E+02  0.43400722638E+02  0.00000000000E+00 0.  1.
         11    1    3    3    0    0  0.12682434821E+02 -0.60283772525E+01 -0.44784323278E+01  0.14739126218E+02  0.51100000000E-03 0. -1.
        -11    1    3    3    0    0 -0.12931906084E+01  0.49530351714E+00  0.75587216287E+00  0.15776598212E+01  0.51100000000E-03 0.  1.
        -12    1    3    3    0    0  0.17047513712E+02 -0.15430603165E+02 -0.21486521038E+02  0.31470491323E+02  0.00000000000E+00 0.  1.
</event>
<event>
 7    1  0.4236733E-010  0.4778727E+02  0.7816164E-02  0.1312668E+00
        -11   -1    0    0    0    0  0.00000000000E+00  0.00000000000E+00  0.45593999997E+02  0.45594000000E+02  0.51100000000E-03 0.  1.
         11   -1    0    0    0    0 -0.00000000000E+00 -0.00000000000E+00 -0.45593999997E+02  0.45594000000E+02  0.51100000000E-03 0. -1.
    9900012    2    1    2    0    0 -0.13368446092E+02 -0.23984116037E+02 -0.33610565302E+02  0.47787271055E+02  0.20000000050E+02 0.  0.
        -12    1    1    2    0    0  0.13368446092E+02  0.23984116037E+02  0.33610565302E+02  0.43400728945E+02  0.00000000000E+00 0.  1.
         11    1    3    3    0    0 -0.58868591645E+01 -0.14473106205E+02 -0.93994300563E+01  0.18233902481E+02  0.51100000000E-03 0. -1.
        -11    1    3    3    0    0  0.38552291313E+00 -0.72982371648E+01 -0.55362290580E+01  0.91685727392E+01  0.51100000000E-03 0.  1.
        -12    1    3    3    0    0 -0.78671098411E+01 -0.22127726678E+01 -0.18674906188E+02  0.20384795835E+02  0.00000000000E+00 0.  1.
</event>
<event>
 7    1  0.4236733E-010  0.4778727E+02  0.7816164E-02  0.1312668E+00
        -11   -1    0    0    0    0  0.00000000000E+00  0.00000000000E+00  0.45593999997E+02  0.45594000000E+02  0.51100000000E-03 0.  1.
         11   -1    0    0    0    0 -0.00000000000E+00 -0.00000000000E+00 -0.45593999997E+02  0.45594000000E+02  0.51100000000E-03 0. -1.
    9900012    2    1    2    0    0 -0.24942363301E+02 -0.35243020241E+02 -0.44081198786E+01  0.47787268628E+02  0.19999988981E+02 0.  0.
        -12    1    1    2    0    0  0.24942363301E+02  0.35243020241E+02  0.44081198786E+01  0.43400731372E+02  0.00000000000E+00 0.  1.
         11    1    3    3    0    0 -0.13618129503E+02 -0.30885534245E+02 -0.66105908295E+01  0.34395778638E+02  0.51100000000E-03 0. -1.
        -11    1    3    3    0    0 -0.62158635002E+01 -0.50018112520E+01  0.20627351190E+01  0.82407494372E+01  0.51100000000E-03 0.  1.
         12    1    3    3    0    0 -0.51083702977E+01  0.64432525540E+00  0.13973583196E+00  0.51507405522E+01  0.00000000000E+00 0. -1.
</event>
<event>
 7    1  0.4236733E-010  0.4778727E+02  0.7816164E-02  0.1312668E+00
        -11   -1    0    0    0    0  0.00000000000E+00  0.00000000000E+00  0.45593999997E+02  0.45594000000E+02  0.51100000000E-03 0. -1.
         11   -1    0    0    0    0 -0.00000000000E+00 -0.00000000000E+00 -0.45593999997E+02  0.45594000000E+02  0.51100000000E-03 0.  1.
    9900012    2    1    2    0    0 -0.23383566091E+02 -0.36562651417E+02 -0.70324920894E-01  0.47787267433E+02  0.19999983532E+02 0.  0.
        -12    1    1    2    0    0  0.23383566091E+02  0.36562651417E+02  0.70324920894E-01  0.43400732567E+02  0.00000000000E+00 0.  1.
         11    1    3    3    0    0 -0.20432712878E+01 -0.92941832896E+01 -0.65310479428E+01  0.11541723791E+02  0.51100000000E-03 0. -1.
        -11    1    3    3    0    0 -0.63254377148E+01 -0.12622857769E+02 -0.55112298054E+00  0.14129806698E+02  0.51100000000E-03 0.  1.
        -12    1    3    3    0    0 -0.15014857088E+02 -0.14645610359E+02  0.70118460025E+01  0.22115736943E+02  0.00000000000E+00 0.  1.
</event>
<event>
 7    1  0.4236733E-010  0.4778727E+02  0.7816164E-02  0.1312668E+00
        -11   -1    0    0    0    0  0.00000000000E+00  0.00000000000E+00  0.45593999997E+02  0.45594000000E+02  0.51100000000E-03 0. -1.
         11   -1    0    0    0    0 -0.00000000000E+00 -0.00000000000E+00 -0.45593999997E+02  0.45594000000E+02  0.51100000000E-03 0.  1.
    9900012    2    1    2    0    0 -0.35521335826E+02  0.22127425029E+02 -0.11499341477E+02  0.47787273144E+02  0.20000009572E+02 0.  0.
        -12    1    1    2    0    0  0.35521335826E+02 -0.22127425029E+02  0.11499341477E+02  0.43400726856E+02  0.00000000000E+00 0.  1.
         11    1    3    3    0    0 -0.44288926336E+01 -0.12019061061E+01  0.16258687831E+01  0.48685847850E+01  0.51100000000E-03 0.  1.
        -11    1    3    3    0    0 -0.86726114621E+01  0.38356929194E+01  0.18292680779E+01  0.96577922792E+01  0.51100000000E-03 0. -1.
        -12    1    3    3    0    0 -0.22419831730E+02  0.19493638215E+02 -0.14954478338E+02  0.33260896080E+02  0.00000000000E+00 0.  1.
</event>
<event>
 7    1  0.4236733E-010  0.4778731E+02  0.7816164E-02  0.1312668E+00
        -11   -1    0    0    0    0  0.00000000000E+00  0.00000000000E+00  0.45593999997E+02  0.45594000000E+02  0.51100000000E-03 0.  1.
         11   -1    0    0    0    0 -0.00000000000E+00 -0.00000000000E+00 -0.45593999997E+02  0.45594000000E+02  0.51100000000E-03 0. -1.
    9900012    2    1    2    0    0 -0.72727054526E+01  0.41777573074E+02 -0.92391804197E+01  0.47787305174E+02  0.20000155608E+02 0.  0.
        -12    1    1    2    0    0  0.72727054526E+01 -0.41777573074E+02  0.92391804197E+01  0.43400694826E+02  0.00000000000E+00 0.  1.
         11    1    3    3    0    0  0.20658913108E+01  0.43708838864E+01 -0.11083965762E+01  0.49599471860E+01  0.51100000000E-03 0. -1.
        -11    1    3    3    0    0 -0.59760485594E+00  0.47582208715E+01 -0.76460919088E+01  0.90255481365E+01  0.51100000000E-03 0.  1.
         12    1    3    3    0    0 -0.87409919075E+01  0.32648468316E+02 -0.48469193471E+00  0.33801809851E+02  0.00000000000E+00 0. -1.
</event>
<event>
 7    1  0.4236733E-010  0.4778727E+02  0.7816164E-02  0.1312668E+00
        -11   -1    0    0    0    0  0.00000000000E+00  0.00000000000E+00  0.45593999997E+02  0.45594000000E+02  0.51100000000E-03 0.  1.
         11   -1    0    0    0    0 -0.00000000000E+00 -0.00000000000E+00 -0.45593999997E+02  0.45594000000E+02  0.51100000000E-03 0. -1.
    9900012    2    1    2    0    0 -0.12711886325E+01 -0.28409342475E+02 -0.32785922671E+02  0.47787269755E+02  0.19999994122E+02 0.  0.
        -12    1    1    2    0    0  0.12711886325E+01  0.28409342475E+02  0.32785922671E+02  0.43400730245E+02  0.00000000000E+00 0.  1.
         11    1    3    3    0    0 -0.50364978935E+01 -0.66751029850E+01 -0.60132646357E+01  0.10299643816E+02  0.51100000000E-03 0. -1.
        -11    1    3    3    0    0  0.15452239492E+01  0.10554079855E+01 -0.69636153947E+01  0.72106548035E+01  0.51100000000E-03 0.  1.
         12    1    3    3    0    0  0.22200853117E+01 -0.22789647475E+02 -0.19809042641E+02  0.30276971136E+02  0.00000000000E+00 0. -1.
</event>
<event>
 7    1  0.4236733E-010  0.4778726E+02  0.7816164E-02  0.1312668E+00
        -11   -1    0    0    0    0  0.00000000000E+00  0.00000000000E+00  0.45593999997E+02  0.45594000000E+02  0.51100000000E-03 0.  1.
         11   -1    0    0    0    0 -0.00000000000E+00 -0.00000000000E+00 -0.45593999997E+02  0.45594000000E+02  0.51100000000E-03 0. -1.
    9900012    2    1    2    0    0 -0.14080275964E+02 -0.23668877127E+02 -0.33543314884E+02  0.47787263957E+02  0.19999967687E+02 0.  0.
        -12    1    1    2    0    0  0.14080275964E+02  0.23668877127E+02  0.33543314884E+02  0.43400736043E+02  0.00000000000E+00 0.  1.
         11    1    3    3    0    0  0.32090847341E+01 -0.86667732995E+01 -0.99641102955E+01  0.13590242032E+02  0.51100000000E-03 0.  1.
        -11    1    3    3    0    0 -0.20776741108E+01 -0.70316734426E+01 -0.48763016796E+01  0.88056504271E+01  0.51100000000E-03 0. -1.
        -12    1    3    3    0    0 -0.15211686587E+02 -0.79704303846E+01 -0.18702902909E+02  0.25391371498E+02  0.00000000000E+00 0.  1.
</event>
<event>
 7    1  0.4236733E-010  0.4778727E+02  0.7816164E-02  0.1312668E+00
        -11   -1    0    0    0    0  0.00000000000E+00  0.00000000000E+00  0.45593999997E+02  0.45594000000E+02  0.51100000000E-03 0. -1.
         11   -1    0    0    0    0 -0.00000000000E+00 -0.00000000000E+00 -0.45593999997E+02  0.45594000000E+02  0.51100000000E-03 0.  1.
    9900012    2    1    2    0    0 -0.32188624025E+02  0.27910357392E+02  0.82781599903E+01  0.47787268449E+02  0.19999988167E+02 0.  0.
        -12    1    1    2    0    0  0.32188624025E+02 -0.27910357392E+02 -0.82781599903E+01  0.43400731551E+02  0.00000000000E+00 0.  1.
         11    1    3    3    0    0 -0.97331908126E+01  0.85809467396E+01  0.65101989175E+00  0.12991977428E+02  0.51100000000E-03 0. -1.
        -11    1    3    3    0    0 -0.23117740893E+02  0.21558690438E+02  0.68560785582E+01  0.32345214343E+02  0.51100000000E-03 0.  1.
        -12    1    3    3    0    0  0.66230768096E+00 -0.22292797862E+01  0.77106154036E+00  0.24500766780E+01  0.00000000000E+00 0.  1.
</event>
<event>
 7    1  0.4236733E-010  0.4778727E+02  0.7816164E-02  0.1312668E+00
        -11   -1    0    0    0    0  0.00000000000E+00  0.00000000000E+00  0.45593999997E+02  0.45594000000E+02  0.51100000000E-03 0. -1.
         11   -1    0    0    0    0 -0.00000000000E+00 -0.00000000000E+00 -0.45593999997E+02  0.45594000000E+02  0.51100000000E-03 0.  1.
    9900012    2    1    2    0    0  0.23093247092E+02  0.34681935222E+02 -0.12144480259E+02  0.47787273131E+02  0.20000009511E+02 0.  0.
        -12    1    1    2    0    0 -0.23093247092E+02 -0.34681935222E+02  0.12144480259E+02  0.43400726869E+02  0.00000000000E+00 0.  1.
         11    1    3    3    0    0  0.62507196957E+01  0.14329046809E+02 -0.25446240174E+01  0.15838819110E+02  0.51100000000E-03 0. -1.
        -11    1    3    3    0    0  0.67014124166E+01  0.18140106990E+02 -0.28007411524E+01  0.19540126951E+02  0.51100000000E-03 0.  1.
        -12    1    3    3    0    0  0.10141114980E+02  0.22127814238E+01 -0.67991150894E+01  0.12408327070E+02  0.00000000000E+00 0.  1.
</event>
<event>
 7    1  0.4236733E-010  0.4778731E+02  0.7816164E-02  0.1312668E+00
        -11   -1    0    0    0    0  0.00000000000E+00  0.00000000000E+00  0.45593999997E+02  0.45594000000E+02  0.51100000000E-03 0. -1.
         11   -1    0    0    0    0 -0.00000000000E+00 -0.00000000000E+00 -0.45593999997E+02  0.45594000000E+02  0.51100000000E-03 0.  1.
    9900012    2    1    2    0    0  0.29872490493E+02  0.11870671475E+02  0.29160617735E+02  0.47787306961E+02  0.20000163759E+02 0.  0.
        -12    1    1    2    0    0 -0.29872490493E+02 -0.11870671475E+02 -0.29160617735E+02  0.43400693039E+02  0.00000000000E+00 0.  1.
         11    1    3    3    0    0  0.21548577627E+02  0.46697335930E+01  0.13799274332E+02  0.26010912747E+02  0.51100000000E-03 0. -1.
        -11    1    3    3    0    0  0.48432548739E+01 -0.22311894159E+01  0.61615505865E+01  0.81486213480E+01  0.51100000000E-03 0.  1.
        -12    1    3    3    0    0  0.34806579923E+01  0.94321272981E+01  0.91997928162E+01  0.13627772866E+02  0.00000000000E+00 0.  1.
</event>
<event>
 7    1  0.4236733E-010  0.4778726E+02  0.7816164E-02  0.1312668E+00
        -11   -1    0    0    0    0  0.00000000000E+00  0.00000000000E+00  0.45593999997E+02  0.45594000000E+02  0.51100000000E-03 0.  1.
         11   -1    0    0    0    0 -0.00000000000E+00 -0.00000000000E+00 -0.45593999997E+02  0.45594000000E+02  0.51100000000E-03 0. -1.
    9900012    2    1    2    0    0 -0.36110313517E+01 -0.36653038655E+02 -0.22959513684E+02  0.47787262003E+02  0.19999958778E+02 0.  0.
        -12    1    1    2    0    0  0.36110313517E+01  0.36653038655E+02  0.22959513684E+02  0.43400737997E+02  0.00000000000E+00 0.  1.
         11    1    3    3    0    0 -0.22557949569E+01  0.15737894543E+00 -0.35714375623E+00  0.22893079618E+01  0.51100000000E-03 0.  1.
        -11    1    3    3    0    0 -0.48850806659E+01 -0.34026047039E+02 -0.17102687666E+02  0.38394502418E+02  0.51100000000E-03 0. -1.
         12    1    3    3    0    0  0.35298442712E+01 -0.27843705614E+01 -0.54996822610E+01  0.71034516239E+01  0.00000000000E+00 0. -1.
</event>
<event>
 7    1  0.4236733E-010  0.4778727E+02  0.7816164E-02  0.1312668E+00
        -11   -1    0    0    0    0  0.00000000000E+00  0.00000000000E+00  0.45593999997E+02  0.45594000000E+02  0.51100000000E-03 0.  1.
         11   -1    0    0    0    0 -0.00000000000E+00 -0.00000000000E+00 -0.45593999997E+02  0.45594000000E+02  0.51100000000E-03 0. -1.
    9900012    2    1    2    0    0 -0.50203322540E+01 -0.31898599604E+02 -0.28998259898E+02  0.47787268788E+02  0.19999989710E+02 0.  0.
        -12    1    1    2    0    0  0.50203322540E+01  0.31898599604E+02  0.28998259898E+02  0.43400731212E+02  0.00000000000E+00 0.  1.
         11    1    3    3    0    0 -0.25001087058E+01 -0.62778855285E+01 -0.97646035252E+01  0.11874757788E+02  0.51100000000E-03 0. -1.
        -11    1    3    3    0    0 -0.95800569085E-01 -0.20612042100E+01  0.28577795738E+01  0.35248609756E+01  0.51100000000E-03 0.  1.
        -12    1    3    3    0    0 -0.24244229790E+01 -0.23559509866E+02 -0.22091435947E+02  0.32387650024E+02  0.00000000000E+00 0.  1.
</event>
<event>
 7    1  0.4236733E-010  0.4778727E+02  0.7816164E-02  0.1312668E+00
        -11   -1    0    0    0    0  0.00000000000E+00  0.00000000000E+00  0.45593999997E+02  0.45594000000E+02  0.51100000000E-03 0.  1.
         11   -1    0    0    0    0 -0.00000000000E+00 -0.00000000000E+00 -0.45593999997E+02  0.45594000000E+02  0.51100000000E-03 0. -1.
    9900012    2    1    2    0    0  0.12709096631E+02  0.78381183668E+01 -0.40751267843E+02  0.47787273422E+02  0.20000010839E+02 0.  0.
        -12    1    1    2    0    0 -0.12709096631E+02 -0.78381183668E+01  0.40751267843E+02  0.43400726578E+02  0.00000000000E+00 0.  1.
         11    1    3    3    0    0  0.15601201270E+01 -0.58992630635E+00 -0.18266897847E+01  0.24736175307E+01  0.51100000000E-03 0. -1.
        -11    1    3    3    0    0 -0.36000603120E+01  0.35176576350E+01 -0.20965828233E+02  0.21561546865E+02  0.51100000000E-03 0.  1.
        -12    1    3    3    0    0  0.14749036816E+02  0.49103870381E+01 -0.17958749826E+02  0.23752109025E+02  0.00000000000E+00 0.  1.
</event>
<event>
 7    1  0.4236733E-010  0.4778726E+02  0.7816164E-02  0.1312668E+00
        -11   -1    0    0    0    0  0.00000000000E+00  0.00000000000E+00  0.45593999997E+02  0.45594000000E+02  0.51100000000E-03 0.  1.
         11   -1    0    0    0    0 -0.00000000000E+00 -0.00000000000E+00 -0.45593999997E+02  0.45594000000E+02  0.51100000000E-03 0. -1.
    9900012    2    1    2    0    0 -0.14244255346E+02  0.30067672641E+02 -0.27868624948E+02  0.47787262623E+02  0.19999961604E+02 0.  0.
        -12    1    1    2    0    0  0.14244255346E+02 -0.30067672641E+02  0.27868624948E+02  0.43400737377E+02  0.00000000000E+00 0.  1.
         11    1    3    3    0    0  0.69752970566E+00 -0.89939771178E+00 -0.32748657369E+01  0.34670174199E+01  0.51100000000E-03 0. -1.
        -11    1    3    3    0    0 -0.77953209636E+01  0.13097285395E+02 -0.18838963186E+02  0.24232466813E+02  0.51100000000E-03 0.  1.
        -12    1    3    3    0    0 -0.71464640876E+01  0.17869784957E+02 -0.57547960248E+01  0.20087778390E+02  0.00000000000E+00 0.  1.
</event>
<event>
 7    1  0.4236733E-010  0.4778727E+02  0.7816164E-02  0.1312668E+00
        -11   -1    0    0    0    0  0.00000000000E+00  0.00000000000E+00  0.45593999997E+02  0.45594000000E+02  0.51100000000E-03 0. -1.
         11   -1    0    0    0    0 -0.00000000000E+00 -0.00000000000E+00 -0.45593999997E+02  0.45594000000E+02  0.51100000000E-03 0.  1.
    9900012    2    1    2    0    0 -0.36360584513E+02  0.13290319742E+02  0.19618824086E+02  0.47787274620E+02  0.20000016304E+02 0.  0.
        -12    1    1    2    0    0  0.36360584513E+02 -0.13290319742E+02 -0.19618824086E+02  0.43400725380E+02  0.00000000000E+00 0.  1.
         11    1    3    3    0    0 -0.18957782026E+02  0.45815579460E+01  0.37106803147E+01  0.19853395710E+02  0.51100000000E-03 0. -1.
        -11    1    3    3    0    0 -0.15039507162E+02  0.13944158565E+01  0.88948275806E+01  0.17528523303E+02  0.51100000000E-03 0.  1.
         12    1    3    3    0    0 -0.23632953249E+01  0.73143459391E+01  0.70133161909E+01  0.10405355607E+02  0.00000000000E+00 0. -1.
</event>
<event>
 7    1  0.4236733E-010  0.4778727E+02  0.7816164E-02  0.1312668E+00
        -11   -1    0    0    0    0  0.00000000000E+00  0.00000000000E+00  0.45593999997E+02  0.45594000000E+02  0.51100000000E-03 0. -1.
         11   -1    0    0    0    0 -0.00000000000E+00 -0.00000000000E+00 -0.45593999997E+02  0.45594000000E+02  0.51100000000E-03 0.  1.
    9900012    2    1    2    0    0 -0.27624471103E+02  0.28996055239E+02  0.16725450507E+02  0.47787270538E+02  0.19999997691E+02 0.  0.
        -12    1    1    2    0    0  0.27624471103E+02 -0.28996055239E+02 -0.16725450507E+02  0.43400729462E+02  0.00000000000E+00 0.  1.
         11    1    3    3    0    0 -0.57612409025E+00  0.72660730896E+01  0.46286889828E+01  0.86343789047E+01  0.51100000000E-03 0. -1.
        -11    1    3    3    0    0 -0.13576198490E+02  0.18951902772E+02  0.57937222066E+01  0.24021969141E+02  0.51100000000E-03 0.  1.
        -12    1    3    3    0    0 -0.13472148522E+02  0.27780793777E+01  0.63030393179E+01  0.15130922493E+02  0.00000000000E+00 0.  1.
</event>
<event>
 7    1  0.4236733E-010  0.4778727E+02  0.7816164E-02  0.1312668E+00
        -11   -1    0    0    0    0  0.00000000000E+00  0.00000000000E+00  0.45593999997E+02  0.45594000000E+02  0.51100000000E-03 0.  1.
         11   -1    0    0    0    0 -0.00000000000E+00 -0.00000000000E+00 -0.45593999997E+02  0.45594000000E+02  0.51100000000E-03 0. -1.
    9900012    2    1    2    0    0  0.39459240672E+02 -0.12498172192E+01 -0.18028575490E+02  0.47787271300E+02  0.20000001166E+02 0.  0.
        -12    1    1    2    0    0 -0.39459240672E+02  0.12498172192E+01  0.18028575490E+02  0.43400728700E+02  0.00000000000E+00 0.  1.
         11    1    3    3    0    0  0.24363848680E+02  0.51539634169E+01 -0.70734918272E+01  0.25888119829E+02  0.51100000000E-03 0. -1.
        -11    1    3    3    0    0  0.32053286395E+01 -0.45807816470E+01  0.56465110361E-01  0.55911430633E+01  0.51100000000E-03 0.  1.
         12    1    3    3    0    0  0.11890063352E+02 -0.18229989892E+01 -0.11011548774E+02  0.16308008408E+02  0.00000000000E+00 0. -1.
</event>
<event>
 7    1  0.4236733E-010  0.4778727E+02  0.7816164E-02  0.1312668E+00
        -11   -1    0    0    0    0  0.00000000000E+00  0.00000000000E+00  0.45593999997E+02  0.45594000000E+02  0.51100000000E-03 0.  1.
         11   -1    0    0    0    0 -0.00000000000E+00 -0.00000000000E+00 -0.45593999997E+02  0.45594000000E+02  0.51100000000E-03 0. -1.
    9900012    2    1    2    0    0 -0.26645060403E+02  0.14362165603E+02 -0.31102930032E+02  0.47787270729E+02  0.19999998563E+02 0.  0.
        -12    1    1    2    0    0  0.26645060403E+02 -0.14362165603E+02  0.31102930032E+02  0.43400729271E+02  0.00000000000E+00 0.  1.
         11    1    3    3    0    0 -0.27693500240E+01  0.56214074733E+01 -0.21467269770E+01  0.66240439696E+01  0.51100000000E-03 0.  1.
        -11    1    3    3    0    0 -0.18553853962E+02 -0.48082588899E+00 -0.19539247200E+02  0.26949190559E+02  0.51100000000E-03 0. -1.
         12    1    3    3    0    0 -0.53218564162E+01  0.92215840192E+01 -0.94169558547E+01  0.14214036200E+02  0.00000000000E+00 0. -1.
</event>
<event>
 7    1  0.4236733E-010  0.4778728E+02  0.7816164E-02  0.1312668E+00
        -11   -1    0    0    0    0  0.00000000000E+00  0.00000000000E+00  0.45593999997E+02  0.45594000000E+02  0.51100000000E-03 0. -1.
         11   -1    0    0    0    0 -0.00000000000E+00 -0.00000000000E+00 -0.45593999997E+02  0.45594000000E+02  0.51100000000E-03 0.  1.
    9900012    2    1    2    0    0  0.92974143477E+01  0.23630832215E+02  0.35196090059E+02  0.47787275349E+02  0.20000019628E+02 0.  0.
        -12    1    1    2    0    0 -0.92974143477E+01 -0.23630832215E+02 -0.35196090059E+02  0.43400724651E+02  0.00000000000E+00 0.  1.
         11    1    3    3    0    0  0.23527035606E+01  0.13506696355E+02  0.12156821302E+02  0.18323601308E+02  0.51100000000E-03 0. -1.
        -11    1    3    3    0    0  0.84943643551E+01  0.74278196996E+01  0.73441274916E+01  0.13463392595E+02  0.51100000000E-03 0.  1.
        -12    1    3    3    0    0 -0.15496535680E+01  0.26963161606E+01  0.15695141266E+02  0.16000281447E+02  0.00000000000E+00 0.  1.
</event>
<event>
 7    1  0.4236733E-010  0.4778728E+02  0.7816164E-02  0.1312668E+00
        -11   -1    0    0    0    0  0.00000000000E+00  0.00000000000E+00  0.45593999997E+02  0.45594000000E+02  0.51100000000E-03 0.  1.
         11   -1    0    0    0    0 -0.00000000000E+00 -0.00000000000E+00 -0.45593999997E+02  0.45594000000E+02  0.51100000000E-03 0. -1.
    9900012    2    1    2    0    0 -0.36714924967E+02 -0.99046915218E+01 -0.20917315153E+02  0.47787277625E+02  0.20000030005E+02 0.  0.
        -12    1    1    2    0    0  0.36714924967E+02  0.99046915218E+01  0.20917315153E+02  0.43400722375E+02  0.00000000000E+00 0.  1.
         11    1    3    3    0    0 -0.62605130201E+01  0.13118530754E+00  0.23990157038E+01  0.67057072309E+01  0.51100000000E-03 0.  1.
        -11    1    3    3    0    0 -0.11504463032E+01  0.18159891281E+01 -0.21439021536E+01  0.30360599328E+01  0.51100000000E-03 0. -1.
         12    1    3    3    0    0 -0.29303965643E+02 -0.11851865957E+02 -0.21172428703E+02  0.38045510462E+02  0.00000000000E+00 0. -1.
</event>
<event>
 7    1  0.4236733E-010  0.4778727E+02  0.7816164E-02  0.1312668E+00
        -11   -1    0    0    0    0  0.00000000000E+00  0.00000000000E+00  0.45593999997E+02  0.45594000000E+02  0.51100000000E-03 0. -1.
         11   -1    0    0    0    0 -0.00000000000E+00 -0.00000000000E+00 -0.45593999997E+02  0.45594000000E+02  0.51100000000E-03 0.  1.
    9900012    2    1    2    0    0 -0.32628032753E+02  0.11250549735E+02  0.26314632409E+02  0.47787271095E+02  0.20000000230E+02 0.  0.
        -12    1    1    2    0    0  0.32628032753E+02 -0.11250549735E+02 -0.26314632409E+02  0.43400728905E+02  0.00000000000E+00 0.  1.
         11    1    3    3    0    0 -0.78344212533E+00 -0.22164022808E+00  0.34130486310E+01  0.35088184868E+01  0.51100000000E-03 0. -1.
        -11    1    3    3    0    0 -0.33380919161E+02  0.94481437541E+01  0.18814049093E+02  0.39465448533E+02  0.51100000000E-03 0.  1.
        -12    1    3    3    0    0  0.15363285333E+01  0.20240462090E+01  0.40875346854E+01  0.48130040747E+01  0.00000000000E+00 0.  1.
</event>
<event>
 7    1  0.4236733E-010  0.4778727E+02  0.7816164E-02  0.1312668E+00
        -11   -1    0    0    0    0  0.00000000000E+00  0.00000000000E+00  0.45593999997E+02  0.45594000000E+02  0.51100000000E-03 0.  1.
         11   -1    0    0    0    0 -0.00000000000E+00 -0.00000000000E+00 -0.45593999997E+02  0.45594000000E+02  0.51100000000E-03 0. -1.
    9900012    2    1    2    0    0  0.19134593930E+02 -0.83220868612E+01 -0.38055665171E+02  0.47787268829E+02  0.19999989900E+02 0.  0.
        -12    1    1    2    0    0 -0.19134593930E+02  0.83220868612E+01  0.38055665171E+02  0.43400731171E+02  0.00000000000E+00 0.  1.
         11    1    3    3    0    0  0.26384688353E+01 -0.85118192935E+01 -0.22495252368E+02  0.24196052670E+02  0.51100000000E-03 0. -1.
        -11    1    3    3    0    0  0.73355831572E+01 -0.28680713823E+01 -0.87568932636E+01  0.11777936729E+02  0.51100000000E-03 0.  1.
         12    1    3    3    0    0  0.91605419375E+01  0.30578038146E+01 -0.68035195392E+01  0.11813279429E+02  0.00000000000E+00 0. -1.
</event>
<event>
 7    1  0.4236733E-010  0.4778727E+02  0.7816164E-02  0.1312668E+00
        -11   -1    0    0    0    0  0.00000000000E+00  0.00000000000E+00  0.45593999997E+02  0.45594000000E+02  0.51100000000E-03 0.  1.
         11   -1    0    0    0    0 -0.00000000000E+00 -0.00000000000E+00 -0.45593999997E+02  0.45594000000E+02  0.51100000000E-03 0. -1.
    9900012    2    1    2    0    0  0.10029968767E+02 -0.29694071895E+02  0.30021408814E+02  0.47787272283E+02  0.20000005647E+02 0.  0.
        -12    1    1    2    0    0 -0.10029968767E+02  0.29694071895E+02 -0.30021408814E+02  0.43400727717E+02  0.00000000000E+00 0.  1.
         11    1    3    3    0    0  0.76751439737E+01 -0.11533425414E+02  0.15399795678E+02  0.20714281160E+02  0.51100000000E-03 0. -1.
        -11    1    3    3    0    0  0.37232397887E+01 -0.16854433216E+02  0.16869275304E+02  0.24135179367E+02  0.51100000000E-03 0.  1.
        -12    1    3    3    0    0 -0.13684149955E+01 -0.13062132647E+01 -0.22476621672E+01  0.29378117555E+01  0.00000000000E+00 0.  1.
</event>
<event>
 7    1  0.4236733E-010  0.4778727E+02  0.7816164E-02  0.1312668E+00
        -11   -1    0    0    0    0  0.00000000000E+00  0.00000000000E+00  0.45593999997E+02  0.45594000000E+02  0.51100000000E-03 0.  1.
         11   -1    0    0    0    0 -0.00000000000E+00 -0.00000000000E+00 -0.45593999997E+02  0.45594000000E+02  0.51100000000E-03 0. -1.
    9900012    2    1    2    0    0 -0.24203953866E+02 -0.35984243574E+02 -0.17105084772E+01  0.47787274112E+02  0.20000013987E+02 0.  0.
        -12    1    1    2    0    0  0.24203953866E+02  0.35984243574E+02  0.17105084772E+01  0.43400725888E+02  0.00000000000E+00 0.  1.
         11    1    3    3    0    0 -0.17466895564E+02 -0.15226880172E+02 -0.14253624695E+01  0.23215985416E+02  0.51100000000E-03 0. -1.
        -11    1    3    3    0    0 -0.42935632978E+01 -0.76811380160E+01  0.51559707848E+01  0.10198951025E+02  0.51100000000E-03 0.  1.
        -12    1    3    3    0    0 -0.24434950040E+01 -0.13076225386E+02 -0.54411167925E+01  0.14372337671E+02  0.00000000000E+00 0.  1.
</event>
<event>
 7    1  0.4236733E-010  0.4778728E+02  0.7816164E-02  0.1312668E+00
        -11   -1    0    0    0    0  0.00000000000E+00  0.00000000000E+00  0.45593999997E+02  0.45594000000E+02  0.51100000000E-03 0.  1.
         11   -1    0    0    0    0 -0.00000000000E+00 -0.00000000000E+00 -0.45593999997E+02  0.45594000000E+02  0.51100000000E-03 0. -1.
    9900012    2    1    2    0    0  0.41227774442E+02  0.10888115897E+02 -0.80834621268E+01  0.47787276352E+02  0.20000024199E+02 0.  0.
        -12    1    1    2    0    0 -0.41227774442E+02 -0.10888115897E+02  0.80834621268E+01  0.43400723648E+02  0.00000000000E+00 0.  1.
         11    1    3    3    0    0  0.62060480461E+01 -0.12922316887E+01  0.89370363958E+00  0.64018436051E+01  0.51100000000E-03 0.  1.
        -11    1    3    3    0    0  0.27970257341E+02  0.24043594053E+01 -0.84606034312E+01  0.29320607950E+02  0.51100000000E-03 0. -1.
         12    1    3    3    0    0  0.70514690550E+01  0.97759881806E+01 -0.51656233520E+00  0.12064824797E+02  0.00000000000E+00 0. -1.
</event>
<event>
 7    1  0.4236733E-010  0.4778726E+02  0.7816164E-02  0.1312668E+00
        -11   -1    0    0    0    0  0.00000000000E+00  0.00000000000E+00  0.45593999997E+02  0.45594000000E+02  0.51100000000E-03 0.  1.
         11   -1    0    0    0    0 -0.00000000000E+00 -0.00000000000E+00 -0.45593999997E+02  0.45594000000E+02  0.51100000000E-03 0. -1.
    9900012    2    1    2    0    0 -0.73320555660E+01 -0.41890305162E+02 -0.86641569657E+01  0.47787258977E+02  0.19999944982E+02 0.  0.
        -12    1    1    2    0    0  0.73320555660E+01  0.41890305162E+02  0.86641569657E+01  0.43400741023E+02  0.00000000000E+00 0.  1.
         11    1    3    3    0    0 -0.53263763205E+01 -0.13489269439E+02 -0.69747338228E-01  0.14502949344E+02  0.51100000000E-03 0. -1.
        -11    1    3    3    0    0  0.46070589130E+01 -0.84940225894E+01  0.18702613053E+01  0.98423213313E+01  0.51100000000E-03 0.  1.
        -12    1    3    3    0    0 -0.66127381585E+01 -0.19907013133E+02 -0.10464670933E+02  0.23441988302E+02  0.00000000000E+00 0.  1.
</event>
<event>
 7    1  0.4236733E-010  0.4778727E+02  0.7816164E-02  0.1312668E+00
        -11   -1    0    0    0    0  0.00000000000E+00  0.00000000000E+00  0.45593999997E+02  0.45594000000E+02  0.51100000000E-03 0. -1.
         11   -1    0    0    0    0 -0.00000000000E+00 -0.00000000000E+00 -0.45593999997E+02  0.45594000000E+02  0.51100000000E-03 0.  1.
    9900012    2    1    2    0    0 -0.34815129289E+02 -0.10236584015E+02  0.23806354095E+02  0.47787269879E+02  0.19999994687E+02 0.  0.
        -12    1    1    2    0    0  0.34815129289E+02  0.10236584015E+02 -0.23806354095E+02  0.43400730121E+02  0.00000000000E+00 0.  1.
         11    1    3    3    0    0 -0.50828799256E+01 -0.32201000218E+01  0.39477169057E+01  0.71964700734E+01  0.51100000000E-03 0. -1.
        -11    1    3    3    0    0 -0.30186638744E+02 -0.38769383784E+01  0.21257941376E+02  0.37123629694E+02  0.51100000000E-03 0.  1.
        -12    1    3    3    0    0  0.45438938013E+00 -0.31395456147E+01 -0.13993041872E+01  0.34671701118E+01  0.00000000000E+00 0.  1.
</event>
<event>
 7    1  0.4236733E-010  0.4778727E+02  0.7816164E-02  0.1312668E+00
        -11   -1    0    0    0    0  0.00000000000E+00  0.00000000000E+00  0.45593999997E+02  0.45594000000E+02  0.51100000000E-03 0.  1.
         11   -1    0    0    0    0 -0.00000000000E+00 -0.00000000000E+00 -0.45593999997E+02  0.45594000000E+02  0.51100000000E-03 0. -1.
    9900012    2    1    2    0    0  0.17550664455E+02 -0.13243276777E+02 -0.37419419567E+02  0.47787272317E+02  0.20000005804E+02 0.  0.
        -12    1    1    2    0    0 -0.17550664455E+02  0.13243276777E+02  0.37419419567E+02  0.43400727683E+02  0.00000000000E+00 0.  1.
         11    1    3    3    0    0  0.78617565439E+00 -0.32988019643E+01 -0.61502898068E+01  0.70232635952E+01  0.51100000000E-03 0. -1.
        -11    1    3    3    0    0  0.97698334398E+01  0.38620710502E+01 -0.14956804245E+02  0.18277615592E+02  0.51100000000E-03 0.  1.
        -12    1    3    3    0    0  0.69946553612E+01 -0.13806545863E+02 -0.16312325516E+02  0.22486393131E+02  0.00000000000E+00 0.  1.
</event>
<event>
 7    1  0.4236733E-010  0.4778733E+02  0.7816164E-02  0.1312667E+00
        -11   -1    0    0    0    0  0.00000000000E+00  0.00000000000E+00  0.45593999997E+02  0.45594000000E+02  0.51100000000E-03 0.  1.
         11   -1    0    0    0    0 -0.00000000000E+00 -0.00000000000E+00 -0.45593999997E+02  0.45594000000E+02  0.51100000000E-03 0. -1.
    9900012    2    1    2    0    0 -0.37480939072E+02  0.12894684919E+02 -0.17678351732E+02  0.47787333958E+02  0.20000286847E+02 0.  0.
        -12    1    1    2    0    0  0.37480939072E+02 -0.12894684919E+02  0.17678351732E+02  0.43400666042E+02  0.00000000000E+00 0.  1.
         11    1    3    3    0    0 -0.95088982034E+01  0.53495729108E+01 -0.30206219192E+01  0.11320831790E+02  0.51100000000E-03 0. -1.
        -11    1    3    3    0    0 -0.38061423522E+01  0.95373196445E+00 -0.10325526007E+02  0.11045940967E+02  0.51100000000E-03 0.  1.
        -12    1    3    3    0    0 -0.24165898517E+02  0.65913800438E+01 -0.43322038063E+01  0.25420561202E+02  0.00000000000E+00 0.  1.
</event>
<event>
 7    1  0.4236733E-010  0.4778727E+02  0.7816164E-02  0.1312668E+00
        -11   -1    0    0    0    0  0.00000000000E+00  0.00000000000E+00  0.45593999997E+02  0.45594000000E+02  0.51100000000E-03 0.  1.
         11   -1    0    0    0    0 -0.00000000000E+00 -0.00000000000E+00 -0.45593999997E+02  0.45594000000E+02  0.51100000000E-03 0. -1.
    9900012    2    1    2    0    0 -0.51159399559E+01  0.20424400075E+02 -0.37951207442E+02  0.47787272974E+02  0.20000008798E+02 0.  0.
        -12    1    1    2    0    0  0.51159399559E+01 -0.20424400075E+02  0.37951207442E+02  0.43400727026E+02  0.00000000000E+00 0.  1.
         11    1    3    3    0    0  0.93500087325E+00  0.19873938089E+01  0.59082217338E+00  0.22744300135E+01  0.51100000000E-03 0. -1.
        -11    1    3    3    0    0  0.44089019639E+01  0.52990256078E+01 -0.15837169584E+02  0.17272348700E+02  0.51100000000E-03 0.  1.
         12    1    3    3    0    0 -0.10459842793E+02  0.13137980658E+02 -0.22704860032E+02  0.28240494261E+02  0.00000000000E+00 0. -1.
</event>
<event>
 7    1  0.4236733E-010  0.4778727E+02  0.7816164E-02  0.1312668E+00
        -11   -1    0    0    0    0  0.00000000000E+00  0.00000000000E+00  0.45593999997E+02  0.45594000000E+02  0.51100000000E-03 0.  1.
         11   -1    0    0    0    0 -0.00000000000E+00 -0.00000000000E+00 -0.45593999997E+02  0.45594000000E+02  0.51100000000E-03 0. -1.
    9900012    2    1    2    0    0  0.12293470101E+02  0.13898536815E+02 -0.39234226159E+02  0.47787271492E+02  0.20000002041E+02 0.  0.
        -12    1    1    2    0    0 -0.12293470101E+02 -0.13898536815E+02  0.39234226159E+02  0.43400728508E+02  0.00000000000E+00 0.  1.
         11    1    3    3    0    0  0.12878846358E+01  0.62277150749E+00  0.73237543789E+00  0.16071294997E+01  0.51100000000E-03 0. -1.
        -11    1    3    3    0    0  0.68845768154E+01  0.10928024091E+02 -0.11414739839E+02  0.17237035543E+02  0.51100000000E-03 0.  1.
         12    1    3    3    0    0  0.41210086497E+01  0.23477412167E+01 -0.28551861758E+02  0.28943106449E+02  0.00000000000E+00 0. -1.
</event>
<event>
 7    1  0.4236733E-010  0.4778727E+02  0.7816164E-02  0.1312668E+00
        -11   -1    0    0    0    0  0.00000000000E+00  0.00000000000E+00  0.45593999997E+02  0.45594000000E+02  0.51100000000E-03 0. -1.
         11   -1    0    0    0    0 -0.00000000000E+00 -0.00000000000E+00 -0.45593999997E+02  0.45594000000E+02  0.51100000000E-03 0.  1.
    9900012    2    1    2    0    0 -0.42846654570E+02 -0.22444391010E+01 -0.65383641673E+01  0.47787268201E+02  0.19999987033E+02 0.  0.
        -12    1    1    2    0    0  0.42846654570E+02  0.22444391010E+01  0.65383641673E+01  0.43400731799E+02  0.00000000000E+00 0.  1.
         11    1    3    3    0    0 -0.22051202433E+02  0.10445283096E+01 -0.40427353323E+01  0.22443045189E+02  0.51100000000E-03 0. -1.
        -11    1    3    3    0    0 -0.13688229568E+02  0.19774019681E+01  0.39683584957E+01  0.14388384783E+02  0.51100000000E-03 0.  1.
         12    1    3    3    0    0 -0.71072225699E+01 -0.52663693787E+01 -0.64639873307E+01  0.10955838229E+02  0.00000000000E+00 0. -1.
</event>
<event>
 7    1  0.4236733E-010  0.4778727E+02  0.7816164E-02  0.1312668E+00
        -11   -1    0    0    0    0  0.00000000000E+00  0.00000000000E+00  0.45593999997E+02  0.45594000000E+02  0.51100000000E-03 0.  1.
         11   -1    0    0    0    0 -0.00000000000E+00 -0.00000000000E+00 -0.45593999997E+02  0.45594000000E+02  0.51100000000E-03 0. -1.
    9900012    2    1    2    0    0  0.45239925855E+01 -0.37558494040E+01 -0.43000584153E+02  0.47787272458E+02  0.20000006444E+02 0.  0.
        -12    1    1    2    0    0 -0.45239925855E+01  0.37558494040E+01  0.43000584153E+02  0.43400727542E+02  0.00000000000E+00 0.  1.
         11    1    3    3    0    0  0.29510047457E+01  0.17384708452E+01 -0.64866452231E+01  0.73353443273E+01  0.51100000000E-03 0. -1.
        -11    1    3    3    0    0  0.13830270917E+01 -0.96514835038E+01 -0.11423261743E+02  0.15018482176E+02  0.51100000000E-03 0.  1.
         12    1    3    3    0    0  0.18996074810E+00  0.41571632545E+01 -0.25090677187E+02  0.25433445954E+02  0.00000000000E+00 0. -1.
</event>
<event>
 7    1  0.4236733E-010  0.4778727E+02  0.7816164E-02  0.1312668E+00
        -11   -1    0    0    0    0  0.00000000000E+00  0.00000000000E+00  0.45593999997E+02  0.45594000000E+02  0.51100000000E-03 0. -1.
         11   -1    0    0    0    0 -0.00000000000E+00 -0.00000000000E+00 -0.45593999997E+02  0.45594000000E+02  0.51100000000E-03 0.  1.
    9900012    2    1    2    0    0 -0.41096077090E+01  0.42703523511E+02 -0.65683524653E+01  0.47787273625E+02  0.20000011766E+02 0.  0.
        -12    1    1    2    0    0  0.41096077090E+01 -0.42703523511E+02  0.65683524653E+01  0.43400726375E+02  0.00000000000E+00 0.  1.
         11    1    3    3    0    0 -0.25984923797E+01  0.99433102640E+01 -0.35702054050E+01  0.10879703514E+02  0.51100000000E-03 0.  1.
        -11    1    3    3    0    0  0.33938119015E+01  0.23178861869E+02  0.44143681822E+01  0.23838293636E+02  0.51100000000E-03 0. -1.
        -12    1    3    3    0    0 -0.49049272308E+01  0.95813513779E+01 -0.74125152425E+01  0.13069276475E+02  0.00000000000E+00 0.  1.
</event>
<event>
 7    1  0.4236733E-010  0.4778727E+02  0.7816164E-02  0.1312668E+00
        -11   -1    0    0    0    0  0.00000000000E+00  0.00000000000E+00  0.45593999997E+02  0.45594000000E+02  0.51100000000E-03 0.  1.
         11   -1    0    0    0    0 -0.00000000000E+00 -0.00000000000E+00 -0.45593999997E+02  0.45594000000E+02  0.51100000000E-03 0. -1.
    9900012    2    1    2    0    0 -0.15225579152E+02 -0.34361616025E+02 -0.21704478455E+02  0.47787270728E+02  0.19999998556E+02 0.  0.
        -12    1    1    2    0    0  0.15225579152E+02  0.34361616025E+02  0.21704478455E+02  0.43400729272E+02  0.00000000000E+00 0.  1.
         11    1    3    3    0    0 -0.34979964146E+01 -0.82570398607E+01 -0.17482871778E+01  0.91362571382E+01  0.51100000000E-03 0. -1.
        -11    1    3    3    0    0 -0.51461027090E+00  0.24067144197E+01 -0.13598604339E+01  0.28118176843E+01  0.51100000000E-03 0.  1.
         12    1    3    3    0    0 -0.11212972466E+02 -0.28511290584E+02 -0.18596330843E+02  0.35839195905E+02  0.00000000000E+00 0. -1.
</event>
<event>
 7    1  0.4236733E-010  0.4778727E+02  0.7816164E-02  0.1312668E+00
        -11   -1    0    0    0    0  0.00000000000E+00  0.00000000000E+00  0.45593999997E+02  0.45594000000E+02  0.51100000000E-03 0.  1.
         11   -1    0    0    0    0 -0.00000000000E+00 -0.00000000000E+00 -0.45593999997E+02  0.45594000000E+02  0.51100000000E-03 0. -1.
    9900012    2    1    2    0    0 -0.33223027806E+02 -0.50615222934E+01 -0.27463339520E+02  0.47787267263E+02  0.19999982760E+02 0.  0.
        -12    1    1    2    0    0  0.33223027806E+02  0.50615222934E+01  0.27463339520E+02  0.43400732737E+02  0.00000000000E+00 0.  1.
         11    1    3    3    0    0 -0.17203437009E+02  0.43359649914E+01 -0.91778658291E+01  0.19974785575E+02  0.51100000000E-03 0. -1.
        -11    1    3    3    0    0 -0.10012806881E+02 -0.51811625579E+00 -0.68802005949E+01  0.12159848131E+02  0.51100000000E-03 0.  1.
        -12    1    3    3    0    0 -0.60067839156E+01 -0.88793710290E+01 -0.11405273096E+02  0.15652633557E+02  0.00000000000E+00 0.  1.
</event>
<event>
 7    1  0.4236733E-010  0.4778727E+02  0.7816164E-02  0.1312668E+00
        -11   -1    0    0    0    0  0.00000000000E+00  0.00000000000E+00  0.45593999997E+02  0.45594000000E+02  0.51100000000E-03 0. -1.
         11   -1    0    0    0    0 -0.00000000000E+00 -0.00000000000E+00 -0.45593999997E+02  0.45594000000E+02  0.51100000000E-03 0.  1.
    9900012    2    1    2    0    0 -0.13987386436E+02  0.10525603297E+02  0.39713822604E+02  0.47787274086E+02  0.20000013866E+02 0.  0.
        -12    1    1    2    0    0  0.13987386436E+02 -0.10525603297E+02 -0.39713822604E+02  0.43400725914E+02  0.00000000000E+00 0.  1.
         11    1    3    3    0    0 -0.53418880615E+01  0.49228966051E+01  0.25471902450E+02  0.26487515809E+02  0.51100000000E-03 0. -1.
        -11    1    3    3    0    0 -0.58827033971E+01  0.18515479647E+01  0.15322706117E+02  0.16517256193E+02  0.51100000000E-03 0.  1.
        -12    1    3    3    0    0 -0.27627949777E+01  0.37511587271E+01 -0.10807859633E+01  0.47825020840E+01  0.00000000000E+00 0.  1.
</event>
<event>
 7    1  0.4236733E-010  0.4778728E+02  0.7816164E-02  0.1312668E+00
        -11   -1    0    0    0    0  0.00000000000E+00  0.00000000000E+00  0.45593999997E+02  0.45594000000E+02  0.51100000000E-03 0.  1.
         11   -1    0    0    0    0 -0.00000000000E+00 -0.00000000000E+00 -0.45593999997E+02  0.45594000000E+02  0.51100000000E-03 0. -1.
    9900012    2    1    2    0    0  0.11774912308E+02  0.39758846784E+02  0.12814383072E+02  0.47787275686E+02  0.20000021164E+02 0.  0.
        -12    1    1    2    0    0 -0.11774912308E+02 -0.39758846784E+02 -0.12814383072E+02  0.43400724314E+02  0.00000000000E+00 0.  1.
         11    1    3    3    0    0 -0.23107366937E+01  0.47878399324E+01  0.29391335003E+01  0.60746540049E+01  0.51100000000E-03 0.  1.
        -11    1    3    3    0    0  0.25923891347E+01  0.14740795458E+02 -0.27853682105E+01  0.15223987930E+02  0.51100000000E-03 0. -1.
         12    1    3    3    0    0  0.11493259867E+02  0.20230211393E+02  0.12660617782E+02  0.26488633751E+02  0.00000000000E+00 0. -1.
</event>
<event>
 7    1  0.4236733E-010  0.4778727E+02  0.7816164E-02  0.1312668E+00
        -11   -1    0    0    0    0  0.00000000000E+00  0.00000000000E+00  0.45593999997E+02  0.45594000000E+02  0.51100000000E-03 0.  1.
         11   -1    0    0    0    0 -0.00000000000E+00 -0.00000000000E+00 -0.45593999997E+02  0.45594000000E+02  0.51100000000E-03 0. -1.
    9900012    2    1    2    0    0  0.41571282540E+02 -0.47738428701E+01 -0.11517919228E+02  0.47787267620E+02  0.19999984387E+02 0.  0.
        -12    1    1    2    0    0 -0.41571282540E+02  0.47738428701E+01  0.11517919228E+02  0.43400732380E+02  0.00000000000E+00 0.  1.
         11    1    3    3    0    0  0.19516013668E+02 -0.81051687292E+01 -0.33549158944E+01  0.21396822440E+02  0.51100000000E-03 0. -1.
        -11    1    3    3    0    0  0.46567917379E+01 -0.38789124646E+01 -0.34600240117E+01  0.69787848241E+01  0.51100000000E-03 0.  1.
         12    1    3    3    0    0  0.17398477135E+02  0.72102383238E+01 -0.47029793217E+01  0.19411660356E+02  0.00000000000E+00 0. -1.
</event>
<event>
 7    1  0.4236733E-010  0.4778727E+02  0.7816164E-02  0.1312668E+00
        -11   -1    0    0    0    0  0.00000000000E+00  0.00000000000E+00  0.45593999997E+02  0.45594000000E+02  0.51100000000E-03 0.  1.
         11   -1    0    0    0    0 -0.00000000000E+00 -0.00000000000E+00 -0.45593999997E+02  0.45594000000E+02  0.51100000000E-03 0. -1.
    9900012    2    1    2    0    0  0.25423220852E+02 -0.34340326622E+02 -0.76174029189E+01  0.47787273990E+02  0.20000013431E+02 0.  0.
        -12    1    1    2    0    0 -0.25423220852E+02  0.34340326622E+02  0.76174029189E+01  0.43400726010E+02  0.00000000000E+00 0.  1.
         11    1    3    3    0    0  0.11287343898E+02 -0.14787379696E+02 -0.26698812500E+01  0.18793589244E+02  0.51100000000E-03 0. -1.
        -11    1    3    3    0    0  0.13380401459E+02 -0.10761328706E+02  0.26192938857E+01  0.17369572230E+02  0.51100000000E-03 0.  1.
         12    1    3    3    0    0  0.75547549453E+00 -0.87916182195E+01 -0.75668155546E+01  0.11624112516E+02  0.00000000000E+00 0. -1.
</event>
<event>
 7    1  0.4236733E-010  0.4778727E+02  0.7816164E-02  0.1312668E+00
        -11   -1    0    0    0    0  0.00000000000E+00  0.00000000000E+00  0.45593999997E+02  0.45594000000E+02  0.51100000000E-03 0. -1.
         11   -1    0    0    0    0 -0.00000000000E+00 -0.00000000000E+00 -0.45593999997E+02  0.45594000000E+02  0.51100000000E-03 0.  1.
    9900012    2    1    2    0    0 -0.37471300995E+02  0.74221078337E+01  0.20601877867E+02  0.47787268963E+02  0.19999990509E+02 0.  0.
        -12    1    1    2    0    0  0.37471300995E+02 -0.74221078337E+01 -0.20601877867E+02  0.43400731037E+02  0.00000000000E+00 0.  1.
         11    1    3    3    0    0 -0.16383933781E+02  0.83048592441E+01  0.11710412665E+02  0.21783887125E+02  0.51100000000E-03 0. -1.
        -11    1    3    3    0    0 -0.19290421162E+02  0.28207412136E+01  0.45476644967E+01  0.20018945583E+02  0.51100000000E-03 0.  1.
         12    1    3    3    0    0 -0.17969460511E+01 -0.37034926240E+01  0.43438007050E+01  0.59844362551E+01  0.00000000000E+00 0. -1.
</event>
<event>
 7    1  0.4236733E-010  0.4778727E+02  0.7816164E-02  0.1312668E+00
        -11   -1    0    0    0    0  0.00000000000E+00  0.00000000000E+00  0.45593999997E+02  0.45594000000E+02  0.51100000000E-03 0.  1.
         11   -1    0    0    0    0 -0.00000000000E+00 -0.00000000000E+00 -0.45593999997E+02  0.45594000000E+02  0.51100000000E-03 0. -1.
    9900012    2    1    2    0    0  0.25168955428E+02 -0.28662116222E+02 -0.20703383363E+02  0.47787270670E+02  0.19999998295E+02 0.  0.
        -12    1    1    2    0    0 -0.25168955428E+02  0.28662116222E+02  0.20703383363E+02  0.43400729330E+02  0.00000000000E+00 0.  1.
         11    1    3    3    0    0  0.50666615552E+01 -0.10619009204E+01 -0.63612035081E+01  0.82014390940E+01  0.51100000000E-03 0. -1.
        -11    1    3    3    0    0  0.11702134446E+01 -0.90115082526E+01 -0.84463394766E+01  0.12406342382E+02  0.51100000000E-03 0.  1.
         12    1    3    3    0    0  0.18932080428E+02 -0.18588707049E+02 -0.58958403787E+01  0.27179489194E+02  0.00000000000E+00 0. -1.
</event>
<event>
 7    1  0.4236733E-010  0.4778727E+02  0.7816164E-02  0.1312668E+00
        -11   -1    0    0    0    0  0.00000000000E+00  0.00000000000E+00  0.45593999997E+02  0.45594000000E+02  0.51100000000E-03 0. -1.
         11   -1    0    0    0    0 -0.00000000000E+00 -0.00000000000E+00 -0.45593999997E+02  0.45594000000E+02  0.51100000000E-03 0.  1.
    9900012    2    1    2    0    0 -0.18766057008E+02  0.53877072493E+00  0.39130143401E+02  0.47787270835E+02  0.19999999043E+02 0.  0.
        -12    1    1    2    0    0  0.18766057008E+02 -0.53877072493E+00 -0.39130143401E+02  0.43400729165E+02  0.00000000000E+00 0.  1.
         11    1    3    3    0    0 -0.38907359316E+01 -0.50172684412E+00  0.14340118132E+02  0.14867028762E+02  0.51100000000E-03 0. -1.
        -11    1    3    3    0    0 -0.73640887998E+01 -0.26572996447E+01  0.23084845307E+02  0.24376241063E+02  0.51100000000E-03 0.  1.
         12    1    3    3    0    0 -0.75112322764E+01  0.36977972138E+01  0.17051799616E+01  0.85440010092E+01  0.00000000000E+00 0. -1.
</event>
<event>
 7    1  0.4236733E-010  0.4778727E+02  0.7816164E-02  0.1312668E+00
        -11   -1    0    0    0    0  0.00000000000E+00  0.00000000000E+00  0.45593999997E+02  0.45594000000E+02  0.51100000000E-03 0. -1.
         11   -1    0    0    0    0 -0.00000000000E+00 -0.00000000000E+00 -0.45593999997E+02  0.45594000000E+02  0.51100000000E-03 0.  1.
    9900012    2    1    2    0    0  0.41792189938E+02  0.97631192589E+00  0.11665464288E+02  0.47787269800E+02  0.19999994327E+02 0.  0.
        -12    1    1    2    0    0 -0.41792189938E+02 -0.97631192589E+00 -0.11665464288E+02  0.43400730200E+02  0.00000000000E+00 0.  1.
         11    1    3    3    0    0  0.31657545986E+02  0.45957153658E+01  0.34977568130E+01  0.32180042271E+02  0.51100000000E-03 0. -1.
        -11    1    3    3    0    0  0.60378085387E+01 -0.33756697758E+01  0.53119774403E+00  0.69377553783E+01  0.51100000000E-03 0.  1.
         12    1    3    3    0    0  0.40968354138E+01 -0.24373366420E+00  0.76365097311E+01  0.86694721512E+01  0.00000000000E+00 0. -1.
</event>
<event>
 7    1  0.4236733E-010  0.4778727E+02  0.7816164E-02  0.1312668E+00
        -11   -1    0    0    0    0  0.00000000000E+00  0.00000000000E+00  0.45593999997E+02  0.45594000000E+02  0.51100000000E-03 0.  1.
         11   -1    0    0    0    0 -0.00000000000E+00 -0.00000000000E+00 -0.45593999997E+02  0.45594000000E+02  0.51100000000E-03 0. -1.
    9900012    2    1    2    0    0  0.16873863516E+02  0.64247771168E+01 -0.39466671631E+02  0.47787271889E+02  0.20000003849E+02 0.  0.
        -12    1    1    2    0    0 -0.16873863516E+02 -0.64247771168E+01  0.39466671631E+02  0.43400728111E+02  0.00000000000E+00 0.  1.
         11    1    3    3    0    0  0.83561334200E+00  0.76292583955E+01 -0.21900333155E+02  0.23206215243E+02  0.51100000000E-03 0. -1.
        -11    1    3    3    0    0  0.53715741757E+01  0.24597395648E+01 -0.63987686071E+01  0.87090968418E+01  0.51100000000E-03 0.  1.
         12    1    3    3    0    0  0.10666675999E+02 -0.36642208435E+01 -0.11167569869E+02  0.15871959804E+02  0.00000000000E+00 0. -1.
</event>
<event>
 7    1  0.4236733E-010  0.4778727E+02  0.7816164E-02  0.1312668E+00
        -11   -1    0    0    0    0  0.00000000000E+00  0.00000000000E+00  0.45593999997E+02  0.45594000000E+02  0.51100000000E-03 0.  1.
         11   -1    0    0    0    0 -0.00000000000E+00 -0.00000000000E+00 -0.45593999997E+02  0.45594000000E+02  0.51100000000E-03 0. -1.
    9900012    2    1    2    0    0  0.66177789579E+01  0.63133659122E+01 -0.42426050550E+02  0.47787270136E+02  0.19999995857E+02 0.  0.
        -12    1    1    2    0    0 -0.66177789579E+01 -0.63133659122E+01  0.42426050550E+02  0.43400729864E+02  0.00000000000E+00 0.  1.
         11    1    3    3    0    0  0.25475747030E+01  0.53297161382E+01 -0.71408777837E+01  0.92675858109E+01  0.51100000000E-03 0.  1.
        -11    1    3    3    0    0 -0.49831112734E+01 -0.86403499248E+00 -0.61945877389E+01  0.79969289072E+01  0.51100000000E-03 0. -1.
         12    1    3    3    0    0  0.90533155284E+01  0.18476847665E+01 -0.29090585027E+02  0.30522755418E+02  0.00000000000E+00 0. -1.
</event>
<event>
 7    1  0.4236733E-010  0.4778727E+02  0.7816164E-02  0.1312668E+00
        -11   -1    0    0    0    0  0.00000000000E+00  0.00000000000E+00  0.45593999997E+02  0.45594000000E+02  0.51100000000E-03 0.  1.
         11   -1    0    0    0    0 -0.00000000000E+00 -0.00000000000E+00 -0.45593999997E+02  0.45594000000E+02  0.51100000000E-03 0. -1.
    9900012    2    1    2    0    0 -0.27213320672E+02  0.22132031506E+02 -0.25558398163E+02  0.47787270084E+02  0.19999995622E+02 0.  0.
        -12    1    1    2    0    0  0.27213320672E+02 -0.22132031506E+02  0.25558398163E+02  0.43400729916E+02  0.00000000000E+00 0.  1.
         11    1    3    3    0    0 -0.42685321756E+01  0.12758010897E+01 -0.82348461920E+01  0.93627307673E+01  0.51100000000E-03 0. -1.
        -11    1    3    3    0    0  0.17416583427E+01  0.25314596396E+01 -0.36650728798E+01  0.47827211046E+01  0.51100000000E-03 0.  1.
        -12    1    3    3    0    0 -0.24686446839E+02  0.18324770777E+02 -0.13658479091E+02  0.33641818212E+02  0.00000000000E+00 0.  1.
</event>
<event>
 7    1  0.4236733E-010  0.4778727E+02  0.7816164E-02  0.1312668E+00
        -11   -1    0    0    0    0  0.00000000000E+00  0.00000000000E+00  0.45593999997E+02  0.45594000000E+02  0.51100000000E-03 0. -1.
         11   -1    0    0    0    0 -0.00000000000E+00 -0.00000000000E+00 -0.45593999997E+02  0.45594000000E+02  0.51100000000E-03 0.  1.
    9900012    2    1    2    0    0  0.16509950107E+02  0.23973785150E+02  0.32191656386E+02  0.47787267657E+02  0.19999984557E+02 0.  0.
        -12    1    1    2    0    0 -0.16509950107E+02 -0.23973785150E+02 -0.32191656386E+02  0.43400732343E+02  0.00000000000E+00 0.  1.
         11    1    3    3    0    0  0.56233161962E+01  0.50836970961E+00  0.79786809532E+01  0.97744296416E+01  0.51100000000E-03 0.  1.
        -11    1    3    3    0    0  0.84301390387E+01  0.97718923443E+01  0.19382427418E+02  0.23285953213E+02  0.51100000000E-03 0. -1.
         12    1    3    3    0    0  0.24564948724E+01  0.13693523096E+02  0.48305480157E+01  0.14726884802E+02  0.00000000000E+00 0. -1.
</event>
<event>
 7    1  0.4236733E-010  0.4778727E+02  0.7816164E-02  0.1312668E+00
        -11   -1    0    0    0    0  0.00000000000E+00  0.00000000000E+00  0.45593999997E+02  0.45594000000E+02  0.51100000000E-03 0.  1.
         11   -1    0    0    0    0 -0.00000000000E+00 -0.00000000000E+00 -0.45593999997E+02  0.45594000000E+02  0.51100000000E-03 0. -1.
    9900012    2    1    2    0    0  0.37503316844E+02  0.21839782129E+02  0.38535695198E+00  0.47787270078E+02  0.19999995595E+02 0.  0.
        -12    1    1    2    0    0 -0.37503316844E+02 -0.21839782129E+02 -0.38535695198E+00  0.43400729922E+02  0.00000000000E+00 0.  1.
         11    1    3    3    0    0  0.18112956236E+02  0.12192646124E+02  0.73195161582E+01  0.23028571822E+02  0.51100000000E-03 0. -1.
        -11    1    3    3    0    0  0.54081015703E+00 -0.50926612155E+00  0.15567845055E+01  0.17249364818E+01  0.51100000000E-03 0.  1.
        -12    1    3    3    0    0  0.18849550451E+02  0.10156402127E+02 -0.84909437117E+01  0.23033761774E+02  0.00000000000E+00 0.  1.
</event>
<event>
 7    1  0.4236733E-010  0.4778727E+02  0.7816164E-02  0.1312668E+00
        -11   -1    0    0    0    0  0.00000000000E+00  0.00000000000E+00  0.45593999997E+02  0.45594000000E+02  0.51100000000E-03 0.  1.
         11   -1    0    0    0    0 -0.00000000000E+00 -0.00000000000E+00 -0.45593999997E+02  0.45594000000E+02  0.51100000000E-03 0. -1.
    9900012    2    1    2    0    0 -0.33210152586E+02  0.26119537058E+02 -0.99236618059E+01  0.47787268272E+02  0.19999987360E+02 0.  0.
        -12    1    1    2    0    0  0.33210152586E+02 -0.26119537058E+02  0.99236618059E+01  0.43400731728E+02  0.00000000000E+00 0.  1.
         11    1    3    3    0    0 -0.19431890075E+02  0.25640089738E+02 -0.75118196293E+01  0.33036948831E+02  0.51100000000E-03 0. -1.
        -11    1    3    3    0    0 -0.70663887885E+01  0.25611894601E+01 -0.14951352509E+01  0.76634829967E+01  0.51100000000E-03 0.  1.
        -12    1    3    3    0    0 -0.67118737219E+01 -0.20817421404E+01 -0.91670692568E+00  0.70868364441E+01  0.00000000000E+00 0.  1.
</event>
<event>
 7    1  0.4236733E-010  0.4778727E+02  0.7816164E-02  0.1312668E+00
        -11   -1    0    0    0    0  0.00000000000E+00  0.00000000000E+00  0.45593999997E+02  0.45594000000E+02  0.51100000000E-03 0. -1.
         11   -1    0    0    0    0 -0.00000000000E+00 -0.00000000000E+00 -0.45593999997E+02  0.45594000000E+02  0.51100000000E-03 0.  1.
    9900012    2    1    2    0    0 -0.14794882794E+02 -0.31240563415E+01  0.40681381052E+02  0.47787273632E+02  0.20000011800E+02 0.  0.
        -12    1    1    2    0    0  0.14794882794E+02  0.31240563415E+01 -0.40681381052E+02  0.43400726368E+02  0.00000000000E+00 0.  1.
         11    1    3    3    0    0 -0.10002263942E-01 -0.37223670035E+01  0.14814616303E+01  0.40063505810E+01  0.51100000000E-03 0. -1.
        -11    1    3    3    0    0 -0.24616253127E+00 -0.35929850935E+01  0.13360315254E+02  0.13837202095E+02  0.51100000000E-03 0.  1.
        -12    1    3    3    0    0 -0.14538717999E+02  0.41912957555E+01  0.25839604168E+02  0.29943720957E+02  0.00000000000E+00 0.  1.
</event>
<event>
 7    1  0.4236733E-010  0.4778727E+02  0.7816164E-02  0.1312668E+00
        -11   -1    0    0    0    0  0.00000000000E+00  0.00000000000E+00  0.45593999997E+02  0.45594000000E+02  0.51100000000E-03 0.  1.
         11   -1    0    0    0    0 -0.00000000000E+00 -0.00000000000E+00 -0.45593999997E+02  0.45594000000E+02  0.51100000000E-03 0. -1.
    9900012    2    1    2    0    0 -0.23240299211E+01 -0.32388070314E+02 -0.28796440376E+02  0.47787271987E+02  0.20000004298E+02 0.  0.
        -12    1    1    2    0    0  0.23240299211E+01  0.32388070314E+02  0.28796440376E+02  0.43400728013E+02  0.00000000000E+00 0.  1.
         11    1    3    3    0    0 -0.47008770744E+01 -0.51161175516E+01 -0.94058303214E+01  0.11693696950E+02  0.51100000000E-03 0. -1.
        -11    1    3    3    0    0 -0.38384670041E+01 -0.21062274581E+01 -0.16346673719E+01  0.46735597487E+01  0.51100000000E-03 0.  1.
         12    1    3    3    0    0  0.62153141574E+01 -0.25165725304E+02 -0.17755942683E+02  0.31420015288E+02  0.00000000000E+00 0. -1.
</event>
<event>
 7    1  0.4236733E-010  0.4778727E+02  0.7816164E-02  0.1312668E+00
        -11   -1    0    0    0    0  0.00000000000E+00  0.00000000000E+00  0.45593999997E+02  0.45594000000E+02  0.51100000000E-03 0.  1.
         11   -1    0    0    0    0 -0.00000000000E+00 -0.00000000000E+00 -0.45593999997E+02  0.45594000000E+02  0.51100000000E-03 0. -1.
    9900012    2    1    2    0    0  0.27429597243E+02 -0.13831646787E+02 -0.30658210746E+02  0.47787272542E+02  0.20000006828E+02 0.  0.
        -12    1    1    2    0    0 -0.27429597243E+02  0.13831646787E+02  0.30658210746E+02  0.43400727458E+02  0.00000000000E+00 0.  1.
         11    1    3    3    0    0 -0.18290014906E+00 -0.42549308040E+01 -0.82343034687E+01  0.92704715353E+01  0.51100000000E-03 0. -1.
        -11    1    3    3    0    0  0.61954544477E+01 -0.35561890991E+01 -0.31244742985E+00  0.71503678493E+01  0.51100000000E-03 0.  1.
         12    1    3    3    0    0  0.21417042945E+02 -0.60205268834E+01 -0.22111459847E+02  0.31366433157E+02  0.00000000000E+00 0. -1.
</event>
<event>
 7    1  0.4236733E-010  0.4778727E+02  0.7816164E-02  0.1312668E+00
        -11   -1    0    0    0    0  0.00000000000E+00  0.00000000000E+00  0.45593999997E+02  0.45594000000E+02  0.51100000000E-03 0. -1.
         11   -1    0    0    0    0 -0.00000000000E+00 -0.00000000000E+00 -0.45593999997E+02  0.45594000000E+02  0.51100000000E-03 0.  1.
    9900012    2    1    2    0    0 -0.35792960939E+02 -0.24169397223E+02 -0.42810604935E+01  0.47787270814E+02  0.19999998950E+02 0.  0.
        -12    1    1    2    0    0  0.35792960939E+02  0.24169397223E+02  0.42810604935E+01  0.43400729186E+02  0.00000000000E+00 0.  1.
         11    1    3    3    0    0  0.13347786312E+01  0.35992347596E+00 -0.86211725892E+00  0.16292407226E+01  0.51100000000E-03 0. -1.
        -11    1    3    3    0    0 -0.36260930413E+00 -0.30222260917E+01 -0.17940629344E+01  0.35332701751E+01  0.51100000000E-03 0.  1.
         12    1    3    3    0    0 -0.36765130266E+02 -0.21507094607E+02 -0.16248803002E+01  0.42624759916E+02  0.00000000000E+00 0. -1.
</event>
<event>
 7    1  0.4236733E-010  0.4778727E+02  0.7816164E-02  0.1312668E+00
        -11   -1    0    0    0    0  0.00000000000E+00  0.00000000000E+00  0.45593999997E+02  0.45594000000E+02  0.51100000000E-03 0.  1.
         11   -1    0    0    0    0 -0.00000000000E+00 -0.00000000000E+00 -0.45593999997E+02  0.45594000000E+02  0.51100000000E-03 0. -1.
    9900012    2    1    2    0    0  0.21221599453E+02  0.84833233975E+01 -0.36895800069E+02  0.47787272794E+02  0.20000007979E+02 0.  0.
        -12    1    1    2    0    0 -0.21221599453E+02 -0.84833233975E+01  0.36895800069E+02  0.43400727206E+02  0.00000000000E+00 0.  1.
         11    1    3    3    0    0 -0.19302757055E+01 -0.69747167842E+00 -0.94040784095E+00  0.22576089586E+01  0.51100000000E-03 0. -1.
        -11    1    3    3    0    0  0.10134358086E+01  0.14430275775E+01 -0.11546341531E+02  0.11680213343E+02  0.51100000000E-03 0.  1.
         12    1    3    3    0    0  0.22138439350E+02  0.77377674984E+01 -0.24409050698E+02  0.33849450493E+02  0.00000000000E+00 0. -1.
</event>
<event>
 7    1  0.4236733E-010  0.4778727E+02  0.7816164E-02  0.1312668E+00
        -11   -1    0    0    0    0  0.00000000000E+00  0.00000000000E+00  0.45593999997E+02  0.45594000000E+02  0.51100000000E-03 0.  1.
         11   -1    0    0    0    0 -0.00000000000E+00 -0.00000000000E+00 -0.45593999997E+02  0.45594000000E+02  0.51100000000E-03 0. -1.
    9900012    2    1    2    0    0 -0.17860740382E+02 -0.29265826922E+02 -0.26610682856E+02  0.47787272881E+02  0.20000008373E+02 0.  0.
        -12    1    1    2    0    0  0.17860740382E+02  0.29265826922E+02  0.26610682856E+02  0.43400727119E+02  0.00000000000E+00 0.  1.
         11    1    3    3    0    0 -0.37799958122E+01  0.12913501514E-01  0.50098080791E+00  0.38130718758E+01  0.51100000000E-03 0. -1.
        -11    1    3    3    0    0 -0.27941675016E+00 -0.56874225162E+01 -0.10625788928E+02  0.12055382167E+02  0.51100000000E-03 0.  1.
        -12    1    3    3    0    0 -0.13801327820E+02 -0.23591317907E+02 -0.16485874736E+02  0.31918818838E+02  0.00000000000E+00 0.  1.
</event>
<event>
 7    1  0.4236733E-010  0.4778727E+02  0.7816164E-02  0.1312668E+00
        -11   -1    0    0    0    0  0.00000000000E+00  0.00000000000E+00  0.45593999997E+02  0.45594000000E+02  0.51100000000E-03 0. -1.
         11   -1    0    0    0    0 -0.00000000000E+00 -0.00000000000E+00 -0.45593999997E+02  0.45594000000E+02  0.51100000000E-03 0.  1.
    9900012    2    1    2    0    0  0.16521999358E+02  0.19621964227E+02  0.35008933394E+02  0.47787270049E+02  0.19999995461E+02 0.  0.
        -12    1    1    2    0    0 -0.16521999358E+02 -0.19621964227E+02 -0.35008933394E+02  0.43400729951E+02  0.00000000000E+00 0.  1.
         11    1    3    3    0    0  0.47731668772E+01  0.12478915216E+02  0.29269097740E+02  0.32174314752E+02  0.51100000000E-03 0. -1.
        -11    1    3    3    0    0 -0.42095287336E+00  0.49404654548E+00  0.19379016302E+00  0.67737596584E+00  0.51100000000E-03 0.  1.
        -12    1    3    3    0    0  0.12169785354E+02  0.66490024654E+01  0.55460454906E+01  0.14935579331E+02  0.00000000000E+00 0.  1.
</event>
<event>
 7    1  0.4236733E-010  0.4778726E+02  0.7816164E-02  0.1312668E+00
        -11   -1    0    0    0    0  0.00000000000E+00  0.00000000000E+00  0.45593999997E+02  0.45594000000E+02  0.51100000000E-03 0. -1.
         11   -1    0    0    0    0 -0.00000000000E+00 -0.00000000000E+00 -0.45593999997E+02  0.45594000000E+02  0.51100000000E-03 0.  1.
    9900012    2    1    2    0    0  0.18793718241E+01  0.24535029429E+02  0.35750867888E+02  0.47787259658E+02  0.19999948082E+02 0.  0.
        -12    1    1    2    0    0 -0.18793718241E+01 -0.24535029429E+02 -0.35750867888E+02  0.43400740342E+02  0.00000000000E+00 0.  1.
         11    1    3    3    0    0 -0.48449890097E+01  0.61865314318E+01  0.16212927779E+02  0.18016828719E+02  0.51100000000E-03 0. -1.
        -11    1    3    3    0    0 -0.14305698377E+01  0.11504799030E+02  0.80881161010E+01  0.14135931278E+02  0.51100000000E-03 0.  1.
         12    1    3    3    0    0  0.81549306716E+01  0.68436989675E+01  0.11449824008E+02  0.15634499660E+02  0.00000000000E+00 0. -1.
</event>
<event>
 7    1  0.4236733E-010  0.4778728E+02  0.7816164E-02  0.1312668E+00
        -11   -1    0    0    0    0  0.00000000000E+00  0.00000000000E+00  0.45593999997E+02  0.45594000000E+02  0.51100000000E-03 0.  1.
         11   -1    0    0    0    0 -0.00000000000E+00 -0.00000000000E+00 -0.45593999997E+02  0.45594000000E+02  0.51100000000E-03 0. -1.
    9900012    2    1    2    0    0  0.38806027232E+02  0.12293208143E+02 -0.15052972764E+02  0.47787277598E+02  0.20000029879E+02 0.  0.
        -12    1    1    2    0    0 -0.38806027232E+02 -0.12293208143E+02  0.15052972764E+02  0.43400722402E+02  0.00000000000E+00 0.  1.
         11    1    3    3    0    0  0.12501384557E+02  0.39255856038E+01 -0.76624406272E+01  0.15179190848E+02  0.51100000000E-03 0. -1.
        -11    1    3    3    0    0  0.62069771553E+00  0.59267392857E+01 -0.14714608284E+01  0.61381350136E+01  0.51100000000E-03 0.  1.
        -12    1    3    3    0    0  0.25683944960E+02  0.24408832535E+01 -0.59190713085E+01  0.26469951736E+02  0.00000000000E+00 0.  1.
</event>
<event>
 7    1  0.4236733E-010  0.4778727E+02  0.7816164E-02  0.1312668E+00
        -11   -1    0    0    0    0  0.00000000000E+00  0.00000000000E+00  0.45593999997E+02  0.45594000000E+02  0.51100000000E-03 0. -1.
         11   -1    0    0    0    0 -0.00000000000E+00 -0.00000000000E+00 -0.45593999997E+02  0.45594000000E+02  0.51100000000E-03 0.  1.
    9900012    2    1    2    0    0 -0.10256665148E+02 -0.20000787455E+02  0.37126708178E+02  0.47787272599E+02  0.20000007089E+02 0.  0.
        -12    1    1    2    0    0  0.10256665148E+02  0.20000787455E+02 -0.37126708178E+02  0.43400727401E+02  0.00000000000E+00 0.  1.
         11    1    3    3    0    0 -0.62777296254E+01 -0.12915901780E+02  0.29808349161E+02  0.33087279852E+02  0.51100000000E-03 0. -1.
        -11    1    3    3    0    0 -0.19349138960E+01 -0.61081503711E+01  0.95628857286E+01  0.11510958972E+02  0.51100000000E-03 0.  1.
        -12    1    3    3    0    0 -0.20440216265E+01 -0.97673530421E+00 -0.22445267111E+01  0.31890337754E+01  0.00000000000E+00 0.  1.
</event>
<event>
 7    1  0.4236733E-010  0.4778728E+02  0.7816164E-02  0.1312668E+00
        -11   -1    0    0    0    0  0.00000000000E+00  0.00000000000E+00  0.45593999997E+02  0.45594000000E+02  0.51100000000E-03 0.  1.
         11   -1    0    0    0    0 -0.00000000000E+00 -0.00000000000E+00 -0.45593999997E+02  0.45594000000E+02  0.51100000000E-03 0. -1.
    9900012    2    1    2    0    0  0.42751436175E+02  0.37354256728E+01 -0.64795126287E+01  0.47787276689E+02  0.20000025736E+02 0.  0.
        -12    1    1    2    0    0 -0.42751436175E+02 -0.37354256728E+01  0.64795126287E+01  0.43400723311E+02  0.00000000000E+00 0.  1.
         11    1    3    3    0    0  0.62544627558E+01  0.39909814620E+00 -0.15858775147E+01  0.64647189766E+01  0.51100000000E-03 0. -1.
        -11    1    3    3    0    0  0.26188234280E+02  0.74582625095E+01 -0.10122984395E+02  0.29050371902E+02  0.51100000000E-03 0.  1.
         12    1    3    3    0    0  0.10308739140E+02 -0.41219349829E+01  0.52293492806E+01  0.12272185810E+02  0.00000000000E+00 0. -1.
</event>
<event>
 7    1  0.4236733E-010  0.4778727E+02  0.7816164E-02  0.1312668E+00
        -11   -1    0    0    0    0  0.00000000000E+00  0.00000000000E+00  0.45593999997E+02  0.45594000000E+02  0.51100000000E-03 0. -1.
         11   -1    0    0    0    0 -0.00000000000E+00 -0.00000000000E+00 -0.45593999997E+02  0.45594000000E+02  0.51100000000E-03 0.  1.
    9900012    2    1    2    0    0 -0.24556368997E+02 -0.35780534644E+02 -0.60124974057E+00  0.47787269372E+02  0.19999992376E+02 0.  0.
        -12    1    1    2    0    0  0.24556368997E+02  0.35780534644E+02  0.60124974057E+00  0.43400730628E+02  0.00000000000E+00 0.  1.
         11    1    3    3    0    0 -0.18746739265E+02 -0.28776493371E+02  0.18444339569E+01  0.34393731125E+02  0.51100000000E-03 0. -1.
        -11    1    3    3    0    0 -0.90938353215E-01 -0.74248499543E+01 -0.11371404076E+01  0.75119741211E+01  0.51100000000E-03 0.  1.
        -12    1    3    3    0    0 -0.57186913788E+01  0.42080868086E+00 -0.13085432898E+01  0.58815641264E+01  0.00000000000E+00 0.  1.
</event>
<event>
 7    1  0.4236733E-010  0.4778727E+02  0.7816164E-02  0.1312668E+00
        -11   -1    0    0    0    0  0.00000000000E+00  0.00000000000E+00  0.45593999997E+02  0.45594000000E+02  0.51100000000E-03 0.  1.
         11   -1    0    0    0    0 -0.00000000000E+00 -0.00000000000E+00 -0.45593999997E+02  0.45594000000E+02  0.51100000000E-03 0. -1.
    9900012    2    1    2    0    0  0.84523943647E+01 -0.13218073099E+01 -0.42549186180E+02  0.47787269711E+02  0.19999993921E+02 0.  0.
        -12    1    1    2    0    0 -0.84523943647E+01  0.13218073099E+01  0.42549186180E+02  0.43400730289E+02  0.00000000000E+00 0.  1.
         11    1    3    3    0    0  0.71191874387E+01 -0.61160089191E+01 -0.22707881883E+02  0.24571045862E+02  0.51100000000E-03 0. -1.
        -11    1    3    3    0    0  0.34295352703E+01  0.14977306861E+00 -0.17077960076E+02  0.17419554092E+02  0.51100000000E-03 0.  1.
        -12    1    3    3    0    0 -0.20963283443E+01  0.46444285406E+01 -0.27633442212E+01  0.57966697578E+01  0.00000000000E+00 0.  1.
</event>
<event>
 7    1  0.4236733E-010  0.4778727E+02  0.7816164E-02  0.1312668E+00
        -11   -1    0    0    0    0  0.00000000000E+00  0.00000000000E+00  0.45593999997E+02  0.45594000000E+02  0.51100000000E-03 0.  1.
         11   -1    0    0    0    0 -0.00000000000E+00 -0.00000000000E+00 -0.45593999997E+02  0.45594000000E+02  0.51100000000E-03 0. -1.
    9900012    2    1    2    0    0 -0.38261830673E+02  0.19876767417E+02 -0.49567795625E+01  0.47787271515E+02  0.20000002145E+02 0.  0.
        -12    1    1    2    0    0  0.38261830673E+02 -0.19876767417E+02  0.49567795625E+01  0.43400728485E+02  0.00000000000E+00 0.  1.
         11    1    3    3    0    0 -0.11882330275E+02  0.13196959617E+02 -0.29453572028E+01  0.18000684576E+02  0.51100000000E-03 0. -1.
        -11    1    3    3    0    0 -0.11405927138E+02  0.58451038806E+01 -0.61694457707E+01  0.14224010497E+02  0.51100000000E-03 0.  1.
         12    1    3    3    0    0 -0.14973573260E+02  0.83470391977E+00  0.41580234109E+01  0.15562576442E+02  0.00000000000E+00 0. -1.
</event>
<event>
 7    1  0.4236733E-010  0.4778730E+02  0.7816164E-02  0.1312668E+00
        -11   -1    0    0    0    0  0.00000000000E+00  0.00000000000E+00  0.45593999997E+02  0.45594000000E+02  0.51100000000E-03 0.  1.
         11   -1    0    0    0    0 -0.00000000000E+00 -0.00000000000E+00 -0.45593999997E+02  0.45594000000E+02  0.51100000000E-03 0. -1.
    9900012    2    1    2    0    0  0.91423213551E+01  0.16654275363E+02 -0.39021448056E+02  0.47787304890E+02  0.20000154315E+02 0.  0.
        -12    1    1    2    0    0 -0.91423213551E+01 -0.16654275363E+02  0.39021448056E+02  0.43400695110E+02  0.00000000000E+00 0.  1.
         11    1    3    3    0    0  0.11029719927E+02  0.11354769489E+02 -0.18341609593E+02  0.24228086068E+02  0.51100000000E-03 0.  1.
        -11    1    3    3    0    0  0.39918973162E+01  0.26421767459E+01 -0.98864026324E+01  0.10984411655E+02  0.51100000000E-03 0. -1.
        -12    1    3    3    0    0 -0.58792958883E+01  0.26573291279E+01 -0.10793435831E+02  0.12574807167E+02  0.00000000000E+00 0.  1.
</event>
<event>
 7    1  0.4236733E-010  0.4778727E+02  0.7816164E-02  0.1312668E+00
        -11   -1    0    0    0    0  0.00000000000E+00  0.00000000000E+00  0.45593999997E+02  0.45594000000E+02  0.51100000000E-03 0.  1.
         11   -1    0    0    0    0 -0.00000000000E+00 -0.00000000000E+00 -0.45593999997E+02  0.45594000000E+02  0.51100000000E-03 0. -1.
    9900012    2    1    2    0    0  0.23728005070E+01  0.43335375027E+02  0.19630290886E+00  0.47787269063E+02  0.19999990967E+02 0.  0.
        -12    1    1    2    0    0 -0.23728005070E+01 -0.43335375027E+02 -0.19630290886E+00  0.43400730937E+02  0.00000000000E+00 0.  1.
         11    1    3    3    0    0 -0.31908469900E+01  0.14826659821E+02 -0.56930035773E+01  0.16199433199E+02  0.51100000000E-03 0. -1.
        -11    1    3    3    0    0  0.39371563992E+00 -0.79981342771E+00  0.11448783892E+01  0.14510204380E+01  0.51100000000E-03 0.  1.
         12    1    3    3    0    0  0.51699318571E+01  0.29308528634E+02  0.47444280969E+01  0.30136815427E+02  0.00000000000E+00 0. -1.
</event>
<event>
 7    1  0.4236733E-010  0.4778727E+02  0.7816164E-02  0.1312668E+00
        -11   -1    0    0    0    0  0.00000000000E+00  0.00000000000E+00  0.45593999997E+02  0.45594000000E+02  0.51100000000E-03 0. -1.
         11   -1    0    0    0    0 -0.00000000000E+00 -0.00000000000E+00 -0.45593999997E+02  0.45594000000E+02  0.51100000000E-03 0.  1.
    9900012    2    1    2    0    0 -0.19721965671E+02  0.25452904152E+02  0.29100121404E+02  0.47787270451E+02  0.19999997292E+02 0.  0.
        -12    1    1    2    0    0  0.19721965671E+02 -0.25452904152E+02 -0.29100121404E+02  0.43400729549E+02  0.00000000000E+00 0.  1.
         11    1    3    3    0    0 -0.13198785883E+01  0.10436946144E+02  0.12538495647E+02  0.16367217163E+02  0.51100000000E-03 0. -1.
        -11    1    3    3    0    0  0.49824388241E+00  0.39518089932E+01  0.34662051088E-01  0.39832452855E+01  0.51100000000E-03 0.  1.
         12    1    3    3    0    0 -0.18900330965E+02  0.11064149014E+02  0.16526963706E+02  0.27436808002E+02  0.00000000000E+00 0. -1.
</event>
<event>
 7    1  0.4236733E-010  0.4778726E+02  0.7816164E-02  0.1312668E+00
        -11   -1    0    0    0    0  0.00000000000E+00  0.00000000000E+00  0.45593999997E+02  0.45594000000E+02  0.51100000000E-03 0.  1.
         11   -1    0    0    0    0 -0.00000000000E+00 -0.00000000000E+00 -0.45593999997E+02  0.45594000000E+02  0.51100000000E-03 0. -1.
    9900012    2    1    2    0    0  0.19675625161E+02  0.36693304951E+02 -0.12251342401E+02  0.47787259865E+02  0.19999949026E+02 0.  0.
        -12    1    1    2    0    0 -0.19675625161E+02 -0.36693304951E+02  0.12251342401E+02  0.43400740135E+02  0.00000000000E+00 0.  1.
         11    1    3    3    0    0  0.19370660269E+01  0.13571731008E+02  0.20153938443E+01  0.13856620076E+02  0.51100000000E-03 0. -1.
        -11    1    3    3    0    0  0.39871362404E+01  0.44406314731E+01  0.11506970806E+01  0.60778752300E+01  0.51100000000E-03 0.  1.
        -12    1    3    3    0    0  0.13751422893E+02  0.18680942470E+02 -0.15417433326E+02  0.27852764558E+02  0.00000000000E+00 0.  1.
</event>
<event>
 7    1  0.4236733E-010  0.4778726E+02  0.7816164E-02  0.1312668E+00
        -11   -1    0    0    0    0  0.00000000000E+00  0.00000000000E+00  0.45593999997E+02  0.45594000000E+02  0.51100000000E-03 0. -1.
         11   -1    0    0    0    0 -0.00000000000E+00 -0.00000000000E+00 -0.45593999997E+02  0.45594000000E+02  0.51100000000E-03 0.  1.
    9900012    2    1    2    0    0  0.38936652076E+02  0.12578837430E+02  0.14468389222E+02  0.47787259078E+02  0.19999945438E+02 0.  0.
        -12    1    1    2    0    0 -0.38936652076E+02 -0.12578837430E+02 -0.14468389222E+02  0.43400740922E+02  0.00000000000E+00 0.  1.
         11    1    3    3    0    0  0.91722922488E+01  0.39988567236E+01  0.55969634194E+01  0.11465068686E+02  0.51100000000E-03 0. -1.
        -11    1    3    3    0    0  0.87450698962E+00  0.51707631089E+01 -0.14734151082E+01  0.54472475569E+01  0.51100000000E-03 0.  1.
        -12    1    3    3    0    0  0.28889852837E+02  0.34092175970E+01  0.10344840911E+02  0.30874942835E+02  0.00000000000E+00 0.  1.
</event>
<event>
 7    1  0.4236733E-010  0.4778727E+02  0.7816164E-02  0.1312668E+00
        -11   -1    0    0    0    0  0.00000000000E+00  0.00000000000E+00  0.45593999997E+02  0.45594000000E+02  0.51100000000E-03 0.  1.
         11   -1    0    0    0    0 -0.00000000000E+00 -0.00000000000E+00 -0.45593999997E+02  0.45594000000E+02  0.51100000000E-03 0. -1.
    9900012    2    1    2    0    0 -0.21541665231E+02  0.30207441803E+02 -0.22518669547E+02  0.47787270059E+02  0.19999995509E+02 0.  0.
        -12    1    1    2    0    0  0.21541665231E+02 -0.30207441803E+02  0.22518669547E+02  0.43400729941E+02  0.00000000000E+00 0.  1.
         11    1    3    3    0    0 -0.11518317422E+02  0.10095442522E+02 -0.11732420747E+02  0.19293503902E+02  0.51100000000E-03 0. -1.
        -11    1    3    3    0    0 -0.22632535966E+01 -0.19129519784E+01 -0.63456899980E+00  0.30305742345E+01  0.51100000000E-03 0.  1.
        -12    1    3    3    0    0 -0.77600942124E+01  0.22024951259E+02 -0.10151679801E+02  0.25463191923E+02  0.00000000000E+00 0.  1.
</event>
<event>
 7    1  0.4236733E-010  0.4778727E+02  0.7816164E-02  0.1312668E+00
        -11   -1    0    0    0    0  0.00000000000E+00  0.00000000000E+00  0.45593999997E+02  0.45594000000E+02  0.51100000000E-03 0. -1.
         11   -1    0    0    0    0 -0.00000000000E+00 -0.00000000000E+00 -0.45593999997E+02  0.45594000000E+02  0.51100000000E-03 0.  1.
    9900012    2    1    2    0    0  0.70873621301E+00 -0.43394756551E+02  0.12684158289E+00  0.47787270836E+02  0.19999999050E+02 0.  0.
        -12    1    1    2    0    0 -0.70873621301E+00  0.43394756551E+02 -0.12684158289E+00  0.43400729164E+02  0.00000000000E+00 0.  1.
         11    1    3    3    0    0  0.15977447573E+01 -0.42739998327E+02  0.40483302327E+01  0.42961019811E+02  0.51100000000E-03 0. -1.
        -11    1    3    3    0    0  0.70821954263E+00  0.29553478429E+00 -0.45282457002E+00  0.89104774374E+00  0.51100000000E-03 0.  1.
         12    1    3    3    0    0 -0.15972280869E+01 -0.95029300891E+00 -0.34686640798E+01  0.39352032810E+01  0.00000000000E+00 0. -1.
</event>
<event>
 7    1  0.4236733E-010  0.4778729E+02  0.7816164E-02  0.1312668E+00
        -11   -1    0    0    0    0  0.00000000000E+00  0.00000000000E+00  0.45593999997E+02  0.45594000000E+02  0.51100000000E-03 0.  1.
         11   -1    0    0    0    0 -0.00000000000E+00 -0.00000000000E+00 -0.45593999997E+02  0.45594000000E+02  0.51100000000E-03 0. -1.
    9900012    2    1    2    0    0  0.80427022760E+01 -0.14526114176E+02 -0.40098982251E+02  0.47787292281E+02  0.20000096826E+02 0.  0.
        -12    1    1    2    0    0 -0.80427022760E+01  0.14526114176E+02  0.40098982251E+02  0.43400707719E+02  0.00000000000E+00 0.  1.
         11    1    3    3    0    0  0.12667554785E+02 -0.92880931216E+01 -0.27235193789E+02  0.31440283062E+02  0.51100000000E-03 0.  1.
        -11    1    3    3    0    0 -0.45265537776E+00 -0.54570753330E+01 -0.95739348001E+01  0.11029269962E+02  0.51100000000E-03 0. -1.
        -12    1    3    3    0    0 -0.41721971315E+01  0.21905427853E+00 -0.32898536621E+01  0.53177392564E+01  0.00000000000E+00 0.  1.
</event>
<event>
 7    1  0.4236733E-010  0.4778728E+02  0.7816164E-02  0.1312668E+00
        -11   -1    0    0    0    0  0.00000000000E+00  0.00000000000E+00  0.45593999997E+02  0.45594000000E+02  0.51100000000E-03 0.  1.
         11   -1    0    0    0    0 -0.00000000000E+00 -0.00000000000E+00 -0.45593999997E+02  0.45594000000E+02  0.51100000000E-03 0. -1.
    9900012    2    1    2    0    0 -0.74345323251E+01 -0.10977059455E+02 -0.41326195350E+02  0.47787279646E+02  0.20000039217E+02 0.  0.
        -12    1    1    2    0    0  0.74345323251E+01  0.10977059455E+02  0.41326195350E+02  0.43400720354E+02  0.00000000000E+00 0.  1.
         11    1    3    3    0    0 -0.50882855314E+01 -0.42574748118E+01 -0.61918200388E+01  0.90749863403E+01  0.51100000000E-03 0. -1.
        -11    1    3    3    0    0 -0.22126377350E+01 -0.55503866648E+01 -0.32416357805E+01  0.67978497093E+01  0.51100000000E-03 0.  1.
         12    1    3    3    0    0 -0.13360905865E+00 -0.11691979782E+01 -0.31892739531E+02  0.31914443596E+02  0.00000000000E+00 0. -1.
</event>
<event>
 7    1  0.4236733E-010  0.4778727E+02  0.7816164E-02  0.1312668E+00
        -11   -1    0    0    0    0  0.00000000000E+00  0.00000000000E+00  0.45593999997E+02  0.45594000000E+02  0.51100000000E-03 0.  1.
         11   -1    0    0    0    0 -0.00000000000E+00 -0.00000000000E+00 -0.45593999997E+02  0.45594000000E+02  0.51100000000E-03 0. -1.
    9900012    2    1    2    0    0  0.21191247559E+02 -0.37872454206E+02  0.48088414677E+00  0.47787274082E+02  0.20000013848E+02 0.  0.
        -12    1    1    2    0    0 -0.21191247559E+02  0.37872454206E+02 -0.48088414677E+00  0.43400725918E+02  0.00000000000E+00 0.  1.
         11    1    3    3    0    0  0.79714556444E+01 -0.16794067749E+02 -0.65015463562E+01  0.19694032648E+02  0.51100000000E-03 0.  1.
        -11    1    3    3    0    0  0.69674533386E+01 -0.10755800474E+02 -0.21036070494E+01  0.12986832283E+02  0.51100000000E-03 0. -1.
         12    1    3    3    0    0  0.62523385762E+01 -0.10322585982E+02  0.90860375523E+01  0.15106409151E+02  0.00000000000E+00 0. -1.
</event>
<event>
 7    1  0.4236733E-010  0.4778727E+02  0.7816164E-02  0.1312668E+00
        -11   -1    0    0    0    0  0.00000000000E+00  0.00000000000E+00  0.45593999997E+02  0.45594000000E+02  0.51100000000E-03 0.  1.
         11   -1    0    0    0    0 -0.00000000000E+00 -0.00000000000E+00 -0.45593999997E+02  0.45594000000E+02  0.51100000000E-03 0. -1.
    9900012    2    1    2    0    0  0.11468042350E+02 -0.85469508554E+01 -0.40976298546E+02  0.47787269513E+02  0.19999993020E+02 0.  0.
        -12    1    1    2    0    0 -0.11468042350E+02  0.85469508554E+01  0.40976298546E+02  0.43400730487E+02  0.00000000000E+00 0.  1.
         11    1    3    3    0    0 -0.94294686184E+00 -0.30430964450E+01 -0.51335235869E+00  0.32269359558E+01  0.51100000000E-03 0. -1.
        -11    1    3    3    0    0  0.18174271344E+00 -0.12859303326E+01  0.65565252924E+00  0.14548291084E+01  0.51100000000E-03 0.  1.
         12    1    3    3    0    0  0.12229246498E+02 -0.42179240778E+01 -0.41118598716E+02  0.43105504449E+02  0.00000000000E+00 0. -1.
</event>
<event>
 7    1  0.4236733E-010  0.4778727E+02  0.7816164E-02  0.1312668E+00
        -11   -1    0    0    0    0  0.00000000000E+00  0.00000000000E+00  0.45593999997E+02  0.45594000000E+02  0.51100000000E-03 0. -1.
         11   -1    0    0    0    0 -0.00000000000E+00 -0.00000000000E+00 -0.45593999997E+02  0.45594000000E+02  0.51100000000E-03 0.  1.
    9900012    2    1    2    0    0  0.39885514359E+02  0.20250909022E+01  0.16990239827E+02  0.47787268460E+02  0.19999988218E+02 0.  0.
        -12    1    1    2    0    0 -0.39885514359E+02 -0.20250909022E+01 -0.16990239827E+02  0.43400731540E+02  0.00000000000E+00 0.  1.
         11    1    3    3    0    0  0.93708477444E+01  0.41501271745E+01  0.34582554901E+01  0.10816463115E+02  0.51100000000E-03 0. -1.
        -11    1    3    3    0    0  0.49910122583E+01  0.70511900400E+00  0.98008633916E+01  0.11021085230E+02  0.51100000000E-03 0.  1.
         12    1    3    3    0    0  0.25523654356E+02 -0.28301552762E+01  0.37311209450E+01  0.25949720115E+02  0.00000000000E+00 0. -1.
</event>
<event>
 7    1  0.4236733E-010  0.4778727E+02  0.7816164E-02  0.1312668E+00
        -11   -1    0    0    0    0  0.00000000000E+00  0.00000000000E+00  0.45593999997E+02  0.45594000000E+02  0.51100000000E-03 0.  1.
         11   -1    0    0    0    0 -0.00000000000E+00 -0.00000000000E+00 -0.45593999997E+02  0.45594000000E+02  0.51100000000E-03 0. -1.
    9900012    2    1    2    0    0 -0.15042436910E+02 -0.40710501339E+02  0.58806130791E-01  0.47787270910E+02  0.19999999385E+02 0.  0.
        -12    1    1    2    0    0  0.15042436910E+02  0.40710501339E+02 -0.58806130791E-01  0.43400729090E+02  0.00000000000E+00 0.  1.
         11    1    3    3    0    0 -0.50504372316E+01 -0.11995796398E+02  0.62532589379E+00  0.13030620867E+02  0.51100000000E-03 0. -1.
        -11    1    3    3    0    0 -0.12551422914E+01 -0.17012122787E+02  0.68437229109E+01  0.18379995850E+02  0.51100000000E-03 0.  1.
         12    1    3    3    0    0 -0.87368573869E+01 -0.11702582154E+02 -0.74102426739E+01  0.16376654193E+02  0.00000000000E+00 0. -1.
</event>
<event>
 7    1  0.4236733E-010  0.4778727E+02  0.7816164E-02  0.1312668E+00
        -11   -1    0    0    0    0  0.00000000000E+00  0.00000000000E+00  0.45593999997E+02  0.45594000000E+02  0.51100000000E-03 0.  1.
         11   -1    0    0    0    0 -0.00000000000E+00 -0.00000000000E+00 -0.45593999997E+02  0.45594000000E+02  0.51100000000E-03 0. -1.
    9900012    2    1    2    0    0  0.31657764998E+02  0.20796903849E+02 -0.21187208738E+02  0.47787272950E+02  0.20000008688E+02 0.  0.
        -12    1    1    2    0    0 -0.31657764998E+02 -0.20796903849E+02  0.21187208738E+02  0.43400727050E+02  0.00000000000E+00 0.  1.
         11    1    3    3    0    0  0.12193580782E+02  0.10254552176E+02 -0.10645459963E+02  0.19161551886E+02  0.51100000000E-03 0. -1.
        -11    1    3    3    0    0  0.10905847758E+02  0.11471089186E+02 -0.11261662536E+01  0.15867944199E+02  0.51100000000E-03 0.  1.
         12    1    3    3    0    0  0.85583364582E+01 -0.92873751252E+00 -0.94155825216E+01  0.12757776864E+02  0.00000000000E+00 0. -1.
</event>
<event>
 7    1  0.4236733E-010  0.4778727E+02  0.7816164E-02  0.1312668E+00
        -11   -1    0    0    0    0  0.00000000000E+00  0.00000000000E+00  0.45593999997E+02  0.45594000000E+02  0.51100000000E-03 0. -1.
         11   -1    0    0    0    0 -0.00000000000E+00 -0.00000000000E+00 -0.45593999997E+02  0.45594000000E+02  0.51100000000E-03 0.  1.
    9900012    2    1    2    0    0  0.16133946296E+02 -0.38581257106E+02 -0.11610589402E+02  0.47787269485E+02  0.19999992891E+02 0.  0.
        -12    1    1    2    0    0 -0.16133946296E+02  0.38581257106E+02  0.11610589402E+02  0.43400730515E+02  0.00000000000E+00 0.  1.
         11    1    3    3    0    0  0.10192255036E+02 -0.25661842314E+02 -0.12229357097E+02  0.30198830920E+02  0.51100000000E-03 0. -1.
        -11    1    3    3    0    0 -0.14393710795E+01 -0.48528179469E+01 -0.32212405204E+01  0.59998351546E+01  0.51100000000E-03 0.  1.
         12    1    3    3    0    0  0.73810623394E+01 -0.80665968445E+01  0.38400082153E+01  0.11588603410E+02  0.00000000000E+00 0. -1.
</event>
<event>
 7    1  0.4236733E-010  0.4778727E+02  0.7816164E-02  0.1312668E+00
        -11   -1    0    0    0    0  0.00000000000E+00  0.00000000000E+00  0.45593999997E+02  0.45594000000E+02  0.51100000000E-03 0.  1.
         11   -1    0    0    0    0 -0.00000000000E+00 -0.00000000000E+00 -0.45593999997E+02  0.45594000000E+02  0.51100000000E-03 0. -1.
    9900012    2    1    2    0    0  0.17093966300E+02 -0.57450913432E+01 -0.39476744943E+02  0.47787272475E+02  0.20000006524E+02 0.  0.
        -12    1    1    2    0    0 -0.17093966300E+02  0.57450913432E+01  0.39476744943E+02  0.43400727525E+02  0.00000000000E+00 0.  1.
         11    1    3    3    0    0  0.53103503225E+01 -0.21462682909E+01 -0.44338165402E+01  0.72432739488E+01  0.51100000000E-03 0. -1.
        -11    1    3    3    0    0 -0.34220142774E+01 -0.36872624167E+01 -0.66827581425E+01  0.83645288270E+01  0.51100000000E-03 0.  1.
         12    1    3    3    0    0  0.15205630255E+02  0.88439364347E-01 -0.28360170260E+02  0.32179469700E+02  0.00000000000E+00 0. -1.
</event>
<event>
 7    1  0.4236733E-010  0.4778728E+02  0.7816164E-02  0.1312668E+00
        -11   -1    0    0    0    0  0.00000000000E+00  0.00000000000E+00  0.45593999997E+02  0.45594000000E+02  0.51100000000E-03 0. -1.
         11   -1    0    0    0    0 -0.00000000000E+00 -0.00000000000E+00 -0.45593999997E+02  0.45594000000E+02  0.51100000000E-03 0.  1.
    9900012    2    1    2    0    0 -0.13152704867E+02 -0.28108319363E+02  0.30340584665E+02  0.47787281797E+02  0.20000049025E+02 0.  0.
        -12    1    1    2    0    0  0.13152704867E+02  0.28108319363E+02 -0.30340584665E+02  0.43400718203E+02  0.00000000000E+00 0.  1.
         11    1    3    3    0    0 -0.25605252094E+01 -0.37415733642E+01  0.52108737229E+01  0.69071604734E+01  0.51100000000E-03 0. -1.
        -11    1    3    3    0    0 -0.64586211304E+01 -0.88612743729E+01 -0.11625330844E+00  0.10965832641E+02  0.51100000000E-03 0.  1.
        -12    1    3    3    0    0 -0.41335585274E+01 -0.15505471626E+02  0.25245964251E+02  0.29914288683E+02  0.00000000000E+00 0.  1.
</event>
<event>
 7    1  0.4236733E-010  0.4778727E+02  0.7816164E-02  0.1312668E+00
        -11   -1    0    0    0    0  0.00000000000E+00  0.00000000000E+00  0.45593999997E+02  0.45594000000E+02  0.51100000000E-03 0.  1.
         11   -1    0    0    0    0 -0.00000000000E+00 -0.00000000000E+00 -0.45593999997E+02  0.45594000000E+02  0.51100000000E-03 0. -1.
    9900012    2    1    2    0    0 -0.22569171562E+02 -0.21660849302E+02 -0.30084273520E+02  0.47787269468E+02  0.19999992813E+02 0.  0.
        -12    1    1    2    0    0  0.22569171562E+02  0.21660849302E+02  0.30084273520E+02  0.43400730532E+02  0.00000000000E+00 0.  1.
         11    1    3    3    0    0 -0.23497233337E+01 -0.52939747328E-01 -0.48213237719E+01  0.53636895451E+01  0.51100000000E-03 0.  1.
        -11    1    3    3    0    0 -0.22623094357E+02 -0.16428191680E+02 -0.23269858487E+02  0.36375488924E+02  0.51100000000E-03 0. -1.
        -12    1    3    3    0    0  0.24036461284E+01 -0.51797178739E+01 -0.19930912611E+01  0.60480909995E+01  0.00000000000E+00 0.  1.
</event>
<event>
 7    1  0.4236733E-010  0.4778727E+02  0.7816164E-02  0.1312668E+00
        -11   -1    0    0    0    0  0.00000000000E+00  0.00000000000E+00  0.45593999997E+02  0.45594000000E+02  0.51100000000E-03 0.  1.
         11   -1    0    0    0    0 -0.00000000000E+00 -0.00000000000E+00 -0.45593999997E+02  0.45594000000E+02  0.51100000000E-03 0. -1.
    9900012    2    1    2    0    0 -0.14654457235E+02  0.35566406491E+02 -0.20097286759E+02  0.47787270483E+02  0.19999997440E+02 0.  0.
        -12    1    1    2    0    0  0.14654457235E+02 -0.35566406491E+02  0.20097286759E+02  0.43400729517E+02  0.00000000000E+00 0.  1.
         11    1    3    3    0    0 -0.10288354693E+02  0.13744951012E+02 -0.65221144671E+01  0.18366052869E+02  0.51100000000E-03 0. -1.
        -11    1    3    3    0    0 -0.24605506327E+01 -0.96308345964E+00  0.32681429441E+00  0.26624513161E+01  0.51100000000E-03 0.  1.
         12    1    3    3    0    0 -0.19055519093E+01  0.22784538939E+02 -0.13901986587E+02  0.26758766298E+02  0.00000000000E+00 0. -1.
</event>
<event>
 7    1  0.4236733E-010  0.4778727E+02  0.7816164E-02  0.1312668E+00
        -11   -1    0    0    0    0  0.00000000000E+00  0.00000000000E+00  0.45593999997E+02  0.45594000000E+02  0.51100000000E-03 0.  1.
         11   -1    0    0    0    0 -0.00000000000E+00 -0.00000000000E+00 -0.45593999997E+02  0.45594000000E+02  0.51100000000E-03 0. -1.
    9900012    2    1    2    0    0  0.16039976011E+02  0.26707831015E+02 -0.30216453555E+02  0.47787272663E+02  0.20000007378E+02 0.  0.
        -12    1    1    2    0    0 -0.16039976011E+02 -0.26707831015E+02  0.30216453555E+02  0.43400727337E+02  0.00000000000E+00 0.  1.
         11    1    3    3    0    0 -0.12280693089E+01 -0.13742512745E+01 -0.28574574466E+01  0.34002623594E+01  0.51100000000E-03 0. -1.
        -11    1    3    3    0    0  0.28373465051E+00 -0.91565360668E+00  0.13424534964E+00  0.96796123598E+00  0.51100000000E-03 0.  1.
         12    1    3    3    0    0  0.16984310669E+02  0.28997735896E+02 -0.27493241458E+02  0.43419049067E+02  0.00000000000E+00 0. -1.
</event>
<event>
 7    1  0.4236733E-010  0.4778726E+02  0.7816164E-02  0.1312668E+00
        -11   -1    0    0    0    0  0.00000000000E+00  0.00000000000E+00  0.45593999997E+02  0.45594000000E+02  0.51100000000E-03 0.  1.
         11   -1    0    0    0    0 -0.00000000000E+00 -0.00000000000E+00 -0.45593999997E+02  0.45594000000E+02  0.51100000000E-03 0. -1.
    9900012    2    1    2    0    0  0.18128364493E+01 -0.26747935102E+02 -0.34130417654E+02  0.47787264782E+02  0.19999971448E+02 0.  0.
        -12    1    1    2    0    0 -0.18128364493E+01  0.26747935102E+02  0.34130417654E+02  0.43400735218E+02  0.00000000000E+00 0.  1.
         11    1    3    3    0    0 -0.90834673439E+00  0.14104229882E+00  0.94626177314E-03  0.91923222118E+00  0.51100000000E-03 0.  1.
        -11    1    3    3    0    0  0.82201122159E+01 -0.20840113487E+02 -0.30693871112E+02  0.37999924988E+02  0.51100000000E-03 0. -1.
         12    1    3    3    0    0 -0.54989290322E+01 -0.60488639143E+01 -0.34374928038E+01  0.88681075733E+01  0.00000000000E+00 0. -1.
</event>
<event>
 7    1  0.4236733E-010  0.4778726E+02  0.7816164E-02  0.1312668E+00
        -11   -1    0    0    0    0  0.00000000000E+00  0.00000000000E+00  0.45593999997E+02  0.45594000000E+02  0.51100000000E-03 0.  1.
         11   -1    0    0    0    0 -0.00000000000E+00 -0.00000000000E+00 -0.45593999997E+02  0.45594000000E+02  0.51100000000E-03 0. -1.
    9900012    2    1    2    0    0  0.17677551285E+02  0.19023473641E+02 -0.34774073043E+02  0.47787256633E+02  0.19999934294E+02 0.  0.
        -12    1    1    2    0    0 -0.17677551285E+02 -0.19023473641E+02  0.34774073043E+02  0.43400743367E+02  0.00000000000E+00 0.  1.
         11    1    3    3    0    0  0.39270373808E+01  0.19508522974E+01 -0.16744569294E+02  0.17309189709E+02  0.51100000000E-03 0. -1.
        -11    1    3    3    0    0 -0.10710569338E+01  0.15538271371E+00  0.63146175135E+00  0.12530167388E+01  0.51100000000E-03 0.  1.
         12    1    3    3    0    0  0.14821570838E+02  0.16917238630E+02 -0.18660965499E+02  0.29225050185E+02  0.00000000000E+00 0. -1.
</event>
<event>
 7    1 -0.4236733E-010  0.4778729E+02  0.7816164E-02  0.1312668E+00
        -11   -1    0    0    0    0  0.00000000000E+00  0.00000000000E+00  0.45593999997E+02  0.45594000000E+02  0.51100000000E-03 0. -1.
         11   -1    0    0    0    0 -0.00000000000E+00 -0.00000000000E+00 -0.45593999997E+02  0.45594000000E+02  0.51100000000E-03 0.  1.
    9900012    2    1    2    0    0  0.27978004743E+02 -0.12401631904E+02  0.30774222019E+02  0.47787286134E+02  0.20000068797E+02 0.  0.
        -12    1    1    2    0    0 -0.27978004743E+02  0.12401631904E+02 -0.30774222019E+02  0.43400713866E+02  0.00000000000E+00 0.  1.
         11    1    3    3    0    0  0.19903363649E+02 -0.13504686566E+02  0.22219682512E+02  0.32744995572E+02  0.51100000000E-03 0. -1.
        -11    1    3    3    0    0  0.83639679518E+01 -0.12183690498E+01  0.29216847371E+01  0.89429651126E+01  0.51100000000E-03 0.  1.
         12    1    3    3    0    0 -0.28932685805E+00  0.23214237122E+01  0.56328547690E+01  0.60993254489E+01  0.00000000000E+00 0. -1.
</event>
<event>
 7    1  0.4236733E-010  0.4778728E+02  0.7816164E-02  0.1312668E+00
        -11   -1    0    0    0    0  0.00000000000E+00  0.00000000000E+00  0.45593999997E+02  0.45594000000E+02  0.51100000000E-03 0. -1.
         11   -1    0    0    0    0 -0.00000000000E+00 -0.00000000000E+00 -0.45593999997E+02  0.45594000000E+02  0.51100000000E-03 0.  1.
    9900012    2    1    2    0    0  0.41679788941E+02  0.11453323765E+02 -0.39036898842E+01  0.47787283115E+02  0.20000055034E+02 0.  0.
        -12    1    1    2    0    0 -0.41679788941E+02 -0.11453323765E+02  0.39036898842E+01  0.43400716885E+02  0.00000000000E+00 0.  1.
         11    1    3    3    0    0  0.21689417652E+02  0.46878049009E+01  0.23936720191E+01  0.22318960972E+02  0.51100000000E-03 0. -1.
        -11    1    3    3    0    0  0.15860573301E+02 -0.97942865460E+00 -0.43942147458E+01  0.16487152253E+02  0.51100000000E-03 0.  1.
        -12    1    3    3    0    0  0.41297979880E+01  0.77449475184E+01 -0.19031471575E+01  0.89811698897E+01  0.00000000000E+00 0.  1.
</event>
<event>
 7    1  0.4236733E-010  0.4778728E+02  0.7816164E-02  0.1312668E+00
        -11   -1    0    0    0    0  0.00000000000E+00  0.00000000000E+00  0.45593999997E+02  0.45594000000E+02  0.51100000000E-03 0.  1.
         11   -1    0    0    0    0 -0.00000000000E+00 -0.00000000000E+00 -0.45593999997E+02  0.45594000000E+02  0.51100000000E-03 0. -1.
    9900012    2    1    2    0    0  0.35184742729E+02  0.19045783049E+01  0.25338282125E+02  0.47787284793E+02  0.20000062685E+02 0.  0.
        -12    1    1    2    0    0 -0.35184742729E+02 -0.19045783049E+01 -0.25338282125E+02  0.43400715207E+02  0.00000000000E+00 0.  1.
         11    1    3    3    0    0  0.17206838585E+02 -0.87761456862E+00  0.64022990876E+01  0.18380286594E+02  0.51100000000E-03 0. -1.
        -11    1    3    3    0    0  0.85713699223E+01 -0.50962338516E+01  0.10716209224E+02  0.14638207616E+02  0.51100000000E-03 0.  1.
         12    1    3    3    0    0  0.94065342216E+01  0.78784267251E+01  0.82197738133E+01  0.14768790582E+02  0.00000000000E+00 0. -1.
</event>
<event>
 7    1  0.4236733E-010  0.4778725E+02  0.7816164E-02  0.1312668E+00
        -11   -1    0    0    0    0  0.00000000000E+00  0.00000000000E+00  0.45593999997E+02  0.45594000000E+02  0.51100000000E-03 0.  1.
         11   -1    0    0    0    0 -0.00000000000E+00 -0.00000000000E+00 -0.45593999997E+02  0.45594000000E+02  0.51100000000E-03 0. -1.
    9900012    2    1    2    0    0  0.86224515986E+00 -0.40139608423E+02 -0.16483128368E+02  0.47787249409E+02  0.19999901355E+02 0.  0.
        -12    1    1    2    0    0 -0.86224515986E+00  0.40139608423E+02  0.16483128368E+02  0.43400750591E+02  0.00000000000E+00 0.  1.
         11    1    3    3    0    0  0.40535419457E+01 -0.90604877381E+01 -0.39770251678E+01  0.10693005649E+02  0.51100000000E-03 0. -1.
        -11    1    3    3    0    0  0.81195501862E+00 -0.58469245842E+01 -0.97506464916E+01  0.11398285192E+02  0.51100000000E-03 0.  1.
        -12    1    3    3    0    0 -0.40032518044E+01 -0.25232196101E+02 -0.27554567088E+01  0.25695958569E+02  0.00000000000E+00 0.  1.
</event>
<event>
 7    1  0.4236733E-010  0.4778727E+02  0.7816164E-02  0.1312668E+00
        -11   -1    0    0    0    0  0.00000000000E+00  0.00000000000E+00  0.45593999997E+02  0.45594000000E+02  0.51100000000E-03 0. -1.
         11   -1    0    0    0    0 -0.00000000000E+00 -0.00000000000E+00 -0.45593999997E+02  0.45594000000E+02  0.51100000000E-03 0.  1.
    9900012    2    1    2    0    0  0.18184971188E+02  0.39061817107E+02  0.52062190791E+01  0.47787269017E+02  0.19999990754E+02 0.  0.
        -12    1    1    2    0    0 -0.18184971188E+02 -0.39061817107E+02 -0.52062190791E+01  0.43400730983E+02  0.00000000000E+00 0.  1.
         11    1    3    3    0    0 -0.29857731925E+01  0.46457461345E+01  0.19624979598E+01  0.58608188171E+01  0.51100000000E-03 0. -1.
        -11    1    3    3    0    0  0.11360745435E+02  0.87994170781E+01  0.11185149690E+01  0.14413443508E+02  0.51100000000E-03 0.  1.
         12    1    3    3    0    0  0.98099989458E+01  0.25616653894E+02  0.21252061503E+01  0.27513006692E+02  0.00000000000E+00 0. -1.
</event>
<event>
 7    1  0.4236733E-010  0.4778727E+02  0.7816164E-02  0.1312668E+00
        -11   -1    0    0    0    0  0.00000000000E+00  0.00000000000E+00  0.45593999997E+02  0.45594000000E+02  0.51100000000E-03 0.  1.
         11   -1    0    0    0    0 -0.00000000000E+00 -0.00000000000E+00 -0.45593999997E+02  0.45594000000E+02  0.51100000000E-03 0. -1.
    9900012    2    1    2    0    0 -0.69247550946E+01  0.38959845894E+02 -0.17826980069E+02  0.47787273697E+02  0.20000012094E+02 0.  0.
        -12    1    1    2    0    0  0.69247550946E+01 -0.38959845894E+02  0.17826980069E+02  0.43400726303E+02  0.00000000000E+00 0.  1.
         11    1    3    3    0    0 -0.94619074285E+01  0.89042380051E+01 -0.59398211229E+01  0.14286168901E+02  0.51100000000E-03 0. -1.
        -11    1    3    3    0    0 -0.25568246352E+01  0.11070085703E+02 -0.21444809608E+01  0.11562134255E+02  0.51100000000E-03 0.  1.
        -12    1    3    3    0    0  0.50939769691E+01  0.18985522186E+02 -0.97426779856E+01  0.21938970541E+02  0.00000000000E+00 0.  1.
</event>
<event>
 7    1  0.4236733E-010  0.4778727E+02  0.7816164E-02  0.1312668E+00
        -11   -1    0    0    0    0  0.00000000000E+00  0.00000000000E+00  0.45593999997E+02  0.45594000000E+02  0.51100000000E-03 0. -1.
         11   -1    0    0    0    0 -0.00000000000E+00 -0.00000000000E+00 -0.45593999997E+02  0.45594000000E+02  0.51100000000E-03 0.  1.
    9900012    2    1    2    0    0 -0.43175196656E+02 -0.28054056574E+01 -0.34139859235E+01  0.47787271814E+02  0.20000003510E+02 0.  0.
        -12    1    1    2    0    0  0.43175196656E+02  0.28054056574E+01  0.34139859235E+01  0.43400728186E+02  0.00000000000E+00 0.  1.
         11    1    3    3    0    0 -0.11531665765E+02 -0.25334017901E+00 -0.55002410545E+01  0.12778738141E+02  0.51100000000E-03 0. -1.
        -11    1    3    3    0    0 -0.11612869054E+02  0.57392459142E+01 -0.14812560966E+01  0.13038090014E+02  0.51100000000E-03 0.  1.
         12    1    3    3    0    0 -0.20030661837E+02 -0.82913113925E+01  0.35675112275E+01  0.21970443659E+02  0.00000000000E+00 0. -1.
</event>
<event>
 7    1  0.4236733E-010  0.4778727E+02  0.7816164E-02  0.1312668E+00
        -11   -1    0    0    0    0  0.00000000000E+00  0.00000000000E+00  0.45593999997E+02  0.45594000000E+02  0.51100000000E-03 0.  1.
         11   -1    0    0    0    0 -0.00000000000E+00 -0.00000000000E+00 -0.45593999997E+02  0.45594000000E+02  0.51100000000E-03 0. -1.
    9900012    2    1    2    0    0 -0.22429318451E+02 -0.11114720028E+02 -0.35454365151E+02  0.47787270331E+02  0.19999996749E+02 0.  0.
        -12    1    1    2    0    0  0.22429318451E+02  0.11114720028E+02  0.35454365151E+02  0.43400729669E+02  0.00000000000E+00 0.  1.
         11    1    3    3    0    0 -0.16808448199E+01 -0.40301087417E+01 -0.15782499010E+01  0.46430473603E+01  0.51100000000E-03 0. -1.
        -11    1    3    3    0    0 -0.92891303488E+00 -0.52701249101E+01 -0.14124964643E+02  0.15104692066E+02  0.51100000000E-03 0.  1.
         12    1    3    3    0    0 -0.19819560596E+02 -0.18144863766E+01 -0.19751150607E+02  0.28039530905E+02  0.00000000000E+00 0. -1.
</event>
<event>
 7    1  0.4236733E-010  0.4778727E+02  0.7816164E-02  0.1312668E+00
        -11   -1    0    0    0    0  0.00000000000E+00  0.00000000000E+00  0.45593999997E+02  0.45594000000E+02  0.51100000000E-03 0. -1.
         11   -1    0    0    0    0 -0.00000000000E+00 -0.00000000000E+00 -0.45593999997E+02  0.45594000000E+02  0.51100000000E-03 0.  1.
    9900012    2    1    2    0    0  0.64855577690E+01 -0.40851429642E+02  0.13142367001E+02  0.47787267590E+02  0.19999984248E+02 0.  0.
        -12    1    1    2    0    0 -0.64855577690E+01  0.40851429642E+02 -0.13142367001E+02  0.43400732410E+02  0.00000000000E+00 0.  1.
         11    1    3    3    0    0  0.52153791654E+01 -0.49599857119E+01  0.34563624869E+01  0.79842394756E+01  0.51100000000E-03 0. -1.
        -11    1    3    3    0    0 -0.12078455982E+01 -0.12777055157E+02  0.10439868000E+02  0.16543967891E+02  0.51100000000E-03 0.  1.
        -12    1    3    3    0    0  0.24780242017E+01 -0.23114388773E+02 -0.75386348569E+00  0.23259060223E+02  0.00000000000E+00 0.  1.
</event>
<event>
 7    1  0.5266717E-010  0.4778726E+02  0.7816164E-02  0.1312668E+00
        -11   -1    0    0    0    0  0.00000000000E+00  0.00000000000E+00  0.45593999997E+02  0.45594000000E+02  0.51100000000E-03 0.  1.
         11   -1    0    0    0    0 -0.00000000000E+00 -0.00000000000E+00 -0.45593999997E+02  0.45594000000E+02  0.51100000000E-03 0. -1.
    9900012    2    1    2    0    0  0.10343681093E+02  0.38618856154E+02 -0.16888342684E+02  0.47787263741E+02  0.19999966700E+02 0.  0.
        -12    1    1    2    0    0 -0.10343681093E+02 -0.38618856154E+02  0.16888342684E+02  0.43400736259E+02  0.00000000000E+00 0.  1.
         11    1    3    3    0    0 -0.19266875795E+01  0.13420112916E+02 -0.97275082465E+01  0.16686400830E+02  0.51100000000E-03 0. -1.
        -11    1    3    3    0    0  0.82951245116E+01  0.18031506181E+02 -0.10254562761E+02  0.22340554234E+02  0.51100000000E-03 0.  1.
        -12    1    3    3    0    0  0.39752441612E+01  0.71672370580E+01  0.30937283230E+01  0.87603086774E+01  0.00000000000E+00 0.  1.
</event>
<event>
 7    1  0.4236733E-010  0.4778727E+02  0.7816164E-02  0.1312668E+00
        -11   -1    0    0    0    0  0.00000000000E+00  0.00000000000E+00  0.45593999997E+02  0.45594000000E+02  0.51100000000E-03 0.  1.
         11   -1    0    0    0    0 -0.00000000000E+00 -0.00000000000E+00 -0.45593999997E+02  0.45594000000E+02  0.51100000000E-03 0. -1.
    9900012    2    1    2    0    0 -0.10962182481E+02 -0.41879636302E+02  0.30902919495E+01  0.47787270906E+02  0.19999999370E+02 0.  0.
        -12    1    1    2    0    0  0.10962182481E+02  0.41879636302E+02 -0.30902919495E+01  0.43400729094E+02  0.00000000000E+00 0.  1.
         11    1    3    3    0    0 -0.12875438366E+01 -0.17788118371E+02  0.31571092897E+01  0.18111937048E+02  0.51100000000E-03 0. -1.
        -11    1    3    3    0    0 -0.35537299730E+01 -0.91890210018E+01  0.69971327383E+01  0.12084161970E+02  0.51100000000E-03 0.  1.
         12    1    3    3    0    0 -0.61209086709E+01 -0.14902496929E+02 -0.70639500786E+01  0.17591171888E+02  0.00000000000E+00 0. -1.
</event>
<event>
 7    1  0.4236733E-010  0.4778726E+02  0.7816164E-02  0.1312668E+00
        -11   -1    0    0    0    0  0.00000000000E+00  0.00000000000E+00  0.45593999997E+02  0.45594000000E+02  0.51100000000E-03 0.  1.
         11   -1    0    0    0    0 -0.00000000000E+00 -0.00000000000E+00 -0.45593999997E+02  0.45594000000E+02  0.51100000000E-03 0. -1.
    9900012    2    1    2    0    0 -0.20336841491E+02  0.30933482737E+02 -0.22652956371E+02  0.47787263734E+02  0.19999966668E+02 0.  0.
        -12    1    1    2    0    0  0.20336841491E+02 -0.30933482737E+02  0.22652956371E+02  0.43400736266E+02  0.00000000000E+00 0.  1.
         11    1    3    3    0    0 -0.52907060132E+01 -0.27525400349E+00 -0.61538445983E+01  0.81201686242E+01  0.51100000000E-03 0. -1.
        -11    1    3    3    0    0 -0.93983721699E+01  0.85611933572E+01 -0.64304467940E+01  0.14246897114E+02  0.51100000000E-03 0.  1.
         12    1    3    3    0    0 -0.56477633084E+01  0.22647543383E+02 -0.10068664979E+02  0.25420197996E+02  0.00000000000E+00 0. -1.
</event>
<event>
 7    1  0.4236733E-010  0.4778727E+02  0.7816164E-02  0.1312668E+00
        -11   -1    0    0    0    0  0.00000000000E+00  0.00000000000E+00  0.45593999997E+02  0.45594000000E+02  0.51100000000E-03 0. -1.
         11   -1    0    0    0    0 -0.00000000000E+00 -0.00000000000E+00 -0.45593999997E+02  0.45594000000E+02  0.51100000000E-03 0.  1.
    9900012    2    1    2    0    0  0.37457288261E+02  0.13377151041E+02 -0.17367407254E+02  0.47787269032E+02  0.19999990825E+02 0.  0.
        -12    1    1    2    0    0 -0.37457288261E+02 -0.13377151041E+02  0.17367407254E+02  0.43400730968E+02  0.00000000000E+00 0.  1.
         11    1    3    3    0    0  0.19233008954E+02 -0.10793194742E+01 -0.49507869388E+01  0.19889289971E+02  0.51100000000E-03 0. -1.
        -11    1    3    3    0    0 -0.36481399144E+00  0.29605432400E+00 -0.24474718206E+01  0.24921589004E+01  0.51100000000E-03 0.  1.
         12    1    3    3    0    0  0.18589093298E+02  0.14160416191E+02 -0.99691484949E+01  0.25405820161E+02  0.00000000000E+00 0. -1.
</event>
<event>
 7    1  0.4236733E-010  0.4778727E+02  0.7816164E-02  0.1312668E+00
        -11   -1    0    0    0    0  0.00000000000E+00  0.00000000000E+00  0.45593999997E+02  0.45594000000E+02  0.51100000000E-03 0.  1.
         11   -1    0    0    0    0 -0.00000000000E+00 -0.00000000000E+00 -0.45593999997E+02  0.45594000000E+02  0.51100000000E-03 0. -1.
    9900012    2    1    2    0    0  0.20610056257E+02 -0.44976215468E+01 -0.37929147644E+02  0.47787271210E+02  0.20000000756E+02 0.  0.
        -12    1    1    2    0    0 -0.20610056257E+02  0.44976215468E+01  0.37929147644E+02  0.43400728790E+02  0.00000000000E+00 0.  1.
         11    1    3    3    0    0  0.11664522685E+01  0.15073454864E+01 -0.16275678598E+01  0.25063277338E+01  0.51100000000E-03 0. -1.
        -11    1    3    3    0    0  0.84259467242E+01  0.59015458937E+01 -0.18709719866E+02  0.21351310026E+02  0.51100000000E-03 0.  1.
         12    1    3    3    0    0  0.11017657264E+02 -0.11906512927E+02 -0.17591859918E+02  0.23929633450E+02  0.00000000000E+00 0. -1.
</event>
<event>
 7    1  0.4236733E-010  0.4778727E+02  0.7816164E-02  0.1312668E+00
        -11   -1    0    0    0    0  0.00000000000E+00  0.00000000000E+00  0.45593999997E+02  0.45594000000E+02  0.51100000000E-03 0.  1.
         11   -1    0    0    0    0 -0.00000000000E+00 -0.00000000000E+00 -0.45593999997E+02  0.45594000000E+02  0.51100000000E-03 0. -1.
    9900012    2    1    2    0    0 -0.21367607667E+02  0.32826420928E+02 -0.18694242281E+02  0.47787271172E+02  0.20000000580E+02 0.  0.
        -12    1    1    2    0    0  0.21367607667E+02 -0.32826420928E+02  0.18694242281E+02  0.43400728828E+02  0.00000000000E+00 0.  1.
         11    1    3    3    0    0 -0.73067666983E+00  0.21941277914E+01  0.24149388718E+01  0.33436529689E+01  0.51100000000E-03 0. -1.
        -11    1    3    3    0    0  0.50725881139E+00  0.82644503795E+01 -0.54163232658E+01  0.98941906975E+01  0.51100000000E-03 0.  1.
         12    1    3    3    0    0 -0.21144189809E+02  0.22367842757E+02 -0.15692857887E+02  0.34549427505E+02  0.00000000000E+00 0. -1.
</event>
<event>
 7    1  0.4236733E-010  0.4778727E+02  0.7816164E-02  0.1312668E+00
        -11   -1    0    0    0    0  0.00000000000E+00  0.00000000000E+00  0.45593999997E+02  0.45594000000E+02  0.51100000000E-03 0. -1.
         11   -1    0    0    0    0 -0.00000000000E+00 -0.00000000000E+00 -0.45593999997E+02  0.45594000000E+02  0.51100000000E-03 0.  1.
    9900012    2    1    2    0    0 -0.19517864999E+02  0.27484833710E+00  0.38763393743E+02  0.47787270856E+02  0.19999999143E+02 0.  0.
        -12    1    1    2    0    0  0.19517864999E+02 -0.27484833710E+00 -0.38763393743E+02  0.43400729144E+02  0.00000000000E+00 0.  1.
         11    1    3    3    0    0 -0.11885427843E+02 -0.80735144546E+00  0.25099603051E+02  0.27783183492E+02  0.51100000000E-03 0. -1.
        -11    1    3    3    0    0 -0.19533128790E+01 -0.23247762373E+01  0.12998070853E+02  0.13348028391E+02  0.51100000000E-03 0.  1.
        -12    1    3    3    0    0 -0.56791242773E+01  0.34069760199E+01  0.66571983841E+00  0.66560589736E+01  0.00000000000E+00 0.  1.
</event>
<event>
 7    1  0.4236733E-010  0.4778727E+02  0.7816164E-02  0.1312668E+00
        -11   -1    0    0    0    0  0.00000000000E+00  0.00000000000E+00  0.45593999997E+02  0.45594000000E+02  0.51100000000E-03 0.  1.
         11   -1    0    0    0    0 -0.00000000000E+00 -0.00000000000E+00 -0.45593999997E+02  0.45594000000E+02  0.51100000000E-03 0. -1.
    9900012    2    1    2    0    0 -0.33951422534E+01  0.41197672010E+02  0.13223008779E+02  0.47787272689E+02  0.20000007498E+02 0.  0.
        -12    1    1    2    0    0  0.33951422534E+01 -0.41197672010E+02 -0.13223008779E+02  0.43400727311E+02  0.00000000000E+00 0.  1.
         11    1    3    3    0    0 -0.66710289148E+01  0.13071220180E+02  0.26550458536E+01  0.14913372942E+02  0.51100000000E-03 0. -1.
        -11    1    3    3    0    0  0.18497178629E+01  0.12012093381E+02 -0.20911229117E+01  0.12332260087E+02  0.51100000000E-03 0.  1.
         12    1    3    3    0    0  0.14261687985E+01  0.16114358449E+02  0.12659085837E+02  0.20541639659E+02  0.00000000000E+00 0. -1.
</event>
<event>
 7    1  0.4236733E-010  0.4778727E+02  0.7816164E-02  0.1312668E+00
        -11   -1    0    0    0    0  0.00000000000E+00  0.00000000000E+00  0.45593999997E+02  0.45594000000E+02  0.51100000000E-03 0.  1.
         11   -1    0    0    0    0 -0.00000000000E+00 -0.00000000000E+00 -0.45593999997E+02  0.45594000000E+02  0.51100000000E-03 0. -1.
    9900012    2    1    2    0    0  0.16150519739E+02  0.62766236674E+01 -0.39791806106E+02  0.47787272752E+02  0.20000007785E+02 0.  0.
        -12    1    1    2    0    0 -0.16150519739E+02 -0.62766236674E+01  0.39791806106E+02  0.43400727248E+02  0.00000000000E+00 0.  1.
         11    1    3    3    0    0  0.71747789718E+01 -0.54352795129E+00 -0.54415030593E+01  0.90212433585E+01  0.51100000000E-03 0. -1.
        -11    1    3    3    0    0 -0.52412096054E+00  0.26436969460E+01  0.18869308577E+00  0.27017478908E+01  0.51100000000E-03 0.  1.
         12    1    3    3    0    0  0.94998617275E+01  0.41764546727E+01 -0.34538996132E+02  0.36064281503E+02  0.00000000000E+00 0. -1.
</event>
<event>
 7    1  0.4236733E-010  0.4778727E+02  0.7816164E-02  0.1312668E+00
        -11   -1    0    0    0    0  0.00000000000E+00  0.00000000000E+00  0.45593999997E+02  0.45594000000E+02  0.51100000000E-03 0.  1.
         11   -1    0    0    0    0 -0.00000000000E+00 -0.00000000000E+00 -0.45593999997E+02  0.45594000000E+02  0.51100000000E-03 0. -1.
    9900012    2    1    2    0    0 -0.26163950430E+02 -0.96271124426E+01 -0.33262438333E+02  0.47787269592E+02  0.19999993378E+02 0.  0.
        -12    1    1    2    0    0  0.26163950430E+02  0.96271124426E+01  0.33262438333E+02  0.43400730408E+02  0.00000000000E+00 0.  1.
         11    1    3    3    0    0 -0.18774341981E+02 -0.58915856826E+01 -0.24836696138E+02  0.31686719206E+02  0.51100000000E-03 0. -1.
        -11    1    3    3    0    0 -0.97919129506E+01 -0.71349318932E+00 -0.65998984903E+01  0.11830016573E+02  0.51100000000E-03 0.  1.
        -12    1    3    3    0    0  0.24023045021E+01 -0.30220335707E+01 -0.18258437045E+01  0.42705338140E+01  0.00000000000E+00 0.  1.
</event>
<event>
 7    1  0.4236733E-010  0.4778727E+02  0.7816164E-02  0.1312668E+00
        -11   -1    0    0    0    0  0.00000000000E+00  0.00000000000E+00  0.45593999997E+02  0.45594000000E+02  0.51100000000E-03 0. -1.
         11   -1    0    0    0    0 -0.00000000000E+00 -0.00000000000E+00 -0.45593999997E+02  0.45594000000E+02  0.51100000000E-03 0.  1.
    9900012    2    1    2    0    0 -0.14661825474E+02  0.38406801918E+02  0.13913006518E+02  0.47787270626E+02  0.19999998092E+02 0.  0.
        -12    1    1    2    0    0  0.14661825474E+02 -0.38406801918E+02 -0.13913006518E+02  0.43400729374E+02  0.00000000000E+00 0.  1.
         11    1    3    3    0    0 -0.10547669521E+02  0.16297876164E+02  0.11544749118E+02  0.22586618433E+02  0.51100000000E-03 0. -1.
        -11    1    3    3    0    0 -0.16949449641E+01  0.15993576310E+02  0.65952470601E+01  0.17382882548E+02  0.51100000000E-03 0.  1.
        -12    1    3    3    0    0 -0.24192109884E+01  0.61153494444E+01 -0.42269896606E+01  0.78177696452E+01  0.00000000000E+00 0.  1.
</event>
<event>
 7    1  0.4236733E-010  0.4778727E+02  0.7816164E-02  0.1312668E+00
        -11   -1    0    0    0    0  0.00000000000E+00  0.00000000000E+00  0.45593999997E+02  0.45594000000E+02  0.51100000000E-03 0.  1.
         11   -1    0    0    0    0 -0.00000000000E+00 -0.00000000000E+00 -0.45593999997E+02  0.45594000000E+02  0.51100000000E-03 0. -1.
    9900012    2    1    2    0    0 -0.28258364566E+02  0.66742647979E+01 -0.32257439795E+02  0.47787269584E+02  0.19999993339E+02 0.  0.
        -12    1    1    2    0    0  0.28258364566E+02 -0.66742647979E+01  0.32257439795E+02  0.43400730416E+02  0.00000000000E+00 0.  1.
         11    1    3    3    0    0 -0.95707206065E-01  0.97161792617E-01 -0.53322014498E+01  0.53339453359E+01  0.51100000000E-03 0.  1.
        -11    1    3    3    0    0 -0.81312245534E+00 -0.13456976532E+01 -0.82567544853E+01  0.84051213670E+01  0.51100000000E-03 0. -1.
        -12    1    3    3    0    0 -0.27349534905E+02  0.79228006584E+01 -0.18668483860E+02  0.34048202881E+02  0.00000000000E+00 0.  1.
</event>
<event>
 7    1  0.4236733E-010  0.4778727E+02  0.7816164E-02  0.1312668E+00
        -11   -1    0    0    0    0  0.00000000000E+00  0.00000000000E+00  0.45593999997E+02  0.45594000000E+02  0.51100000000E-03 0.  1.
         11   -1    0    0    0    0 -0.00000000000E+00 -0.00000000000E+00 -0.45593999997E+02  0.45594000000E+02  0.51100000000E-03 0. -1.
    9900012    2    1    2    0    0 -0.28658472656E+01  0.56191872194E+01 -0.42939900882E+02  0.47787269207E+02  0.19999991623E+02 0.  0.
        -12    1    1    2    0    0  0.28658472656E+01 -0.56191872194E+01  0.42939900882E+02  0.43400730793E+02  0.00000000000E+00 0.  1.
         11    1    3    3    0    0  0.50659375057E+00  0.68138152373E+00 -0.62470207341E+00  0.10541209374E+01  0.51100000000E-03 0. -1.
        -11    1    3    3    0    0 -0.42235672217E+01 -0.49659965660E+01 -0.52859880768E+01  0.83929322753E+01  0.51100000000E-03 0.  1.
         12    1    3    3    0    0  0.85112620552E+00  0.99038022617E+01 -0.37029210732E+02  0.38340215994E+02  0.00000000000E+00 0. -1.
</event>
<event>
 7    1  0.4236733E-010  0.4778727E+02  0.7816164E-02  0.1312668E+00
        -11   -1    0    0    0    0  0.00000000000E+00  0.00000000000E+00  0.45593999997E+02  0.45594000000E+02  0.51100000000E-03 0. -1.
         11   -1    0    0    0    0 -0.00000000000E+00 -0.00000000000E+00 -0.45593999997E+02  0.45594000000E+02  0.51100000000E-03 0.  1.
    9900012    2    1    2    0    0 -0.72763009866E+01  0.39558307349E+02  0.16303953979E+02  0.47787272452E+02  0.20000006416E+02 0.  0.
        -12    1    1    2    0    0  0.72763009866E+01 -0.39558307349E+02 -0.16303953979E+02  0.43400727548E+02  0.00000000000E+00 0.  1.
         11    1    3    3    0    0 -0.16917166791E+00  0.21186754425E+02  0.12706899117E+02  0.24705717305E+02  0.51100000000E-03 0. -1.
        -11    1    3    3    0    0 -0.93636894414E+00  0.16122810005E+02  0.16652318570E+01  0.16235602442E+02  0.51100000000E-03 0.  1.
        -12    1    3    3    0    0 -0.61707603745E+01  0.22487429196E+01  0.19318230045E+01  0.68459527050E+01  0.00000000000E+00 0.  1.
</event>
<event>
 7    1  0.4236733E-010  0.4778727E+02  0.7816164E-02  0.1312668E+00
        -11   -1    0    0    0    0  0.00000000000E+00  0.00000000000E+00  0.45593999997E+02  0.45594000000E+02  0.51100000000E-03 0.  1.
         11   -1    0    0    0    0 -0.00000000000E+00 -0.00000000000E+00 -0.45593999997E+02  0.45594000000E+02  0.51100000000E-03 0. -1.
    9900012    2    1    2    0    0 -0.16743160190E+02  0.38714304789E+02  0.10222145810E+02  0.47787273354E+02  0.20000010530E+02 0.  0.
        -12    1    1    2    0    0  0.16743160190E+02 -0.38714304789E+02 -0.10222145810E+02  0.43400726646E+02  0.00000000000E+00 0.  1.
         11    1    3    3    0    0 -0.69057470948E+01  0.79894856404E+01 -0.14416635589E+01  0.10658312147E+02  0.51100000000E-03 0. -1.
        -11    1    3    3    0    0 -0.10299088367E+02  0.11795219028E+02  0.88474427018E+01  0.17985428984E+02  0.51100000000E-03 0.  1.
        -12    1    3    3    0    0  0.46167527156E+00  0.18929600121E+02  0.28163666667E+01  0.19143532224E+02  0.00000000000E+00 0.  1.
</event>
<event>
 7    1  0.4236733E-010  0.4778727E+02  0.7816164E-02  0.1312668E+00
        -11   -1    0    0    0    0  0.00000000000E+00  0.00000000000E+00  0.45593999997E+02  0.45594000000E+02  0.51100000000E-03 0.  1.
         11   -1    0    0    0    0 -0.00000000000E+00 -0.00000000000E+00 -0.45593999997E+02  0.45594000000E+02  0.51100000000E-03 0. -1.
    9900012    2    1    2    0    0  0.30113061096E+01 -0.34167785939E+02 -0.26591687002E+02  0.47787269844E+02  0.19999994526E+02 0.  0.
        -12    1    1    2    0    0 -0.30113061096E+01  0.34167785939E+02  0.26591687002E+02  0.43400730156E+02  0.00000000000E+00 0.  1.
         11    1    3    3    0    0  0.11020904912E+01 -0.12200661426E+02 -0.89930642372E+01  0.15196905847E+02  0.51100000000E-03 0. -1.
        -11    1    3    3    0    0  0.14628172934E+01 -0.24012669589E+02 -0.12569785145E+02  0.27143095514E+02  0.51100000000E-03 0.  1.
         12    1    3    3    0    0  0.44639832504E+00  0.20455450756E+01 -0.50288376201E+01  0.54472684834E+01  0.00000000000E+00 0. -1.
</event>
<event>
 7    1  0.4236733E-010  0.4778727E+02  0.7816164E-02  0.1312668E+00
        -11   -1    0    0    0    0  0.00000000000E+00  0.00000000000E+00  0.45593999997E+02  0.45594000000E+02  0.51100000000E-03 0.  1.
         11   -1    0    0    0    0 -0.00000000000E+00 -0.00000000000E+00 -0.45593999997E+02  0.45594000000E+02  0.51100000000E-03 0. -1.
    9900012    2    1    2    0    0 -0.57411355055E+01 -0.26766865342E+02 -0.33677846595E+02  0.47787273412E+02  0.20000010794E+02 0.  0.
        -12    1    1    2    0    0  0.57411355055E+01  0.26766865342E+02  0.33677846595E+02  0.43400726588E+02  0.00000000000E+00 0.  1.
         11    1    3    3    0    0  0.23158618173E+01 -0.96540074696E+01 -0.10664420494E+01  0.99850075156E+01  0.51100000000E-03 0. -1.
        -11    1    3    3    0    0 -0.78866248004E+00 -0.10428651593E+01 -0.38257784535E+01  0.40430356521E+01  0.51100000000E-03 0.  1.
         12    1    3    3    0    0 -0.72683348427E+01 -0.16069992713E+02 -0.28785626092E+02  0.33759230244E+02  0.00000000000E+00 0. -1.
</event>
<event>
 7    1  0.4236733E-010  0.4778727E+02  0.7816164E-02  0.1312668E+00
        -11   -1    0    0    0    0  0.00000000000E+00  0.00000000000E+00  0.45593999997E+02  0.45594000000E+02  0.51100000000E-03 0.  1.
         11   -1    0    0    0    0 -0.00000000000E+00 -0.00000000000E+00 -0.45593999997E+02  0.45594000000E+02  0.51100000000E-03 0. -1.
    9900012    2    1    2    0    0 -0.34852884860E+02  0.96036511583E+01 -0.24013943334E+02  0.47787272206E+02  0.20000005295E+02 0.  0.
        -12    1    1    2    0    0  0.34852884860E+02 -0.96036511583E+01  0.24013943334E+02  0.43400727794E+02  0.00000000000E+00 0.  1.
         11    1    3    3    0    0 -0.21188307237E+02  0.65605862365E+01 -0.24860862660E+02  0.33317385069E+02  0.51100000000E-03 0. -1.
        -11    1    3    3    0    0 -0.39674246808E+00 -0.88047865716E-01  0.73184641584E+00  0.83711196989E+00  0.51100000000E-03 0.  1.
         12    1    3    3    0    0 -0.13267835155E+02  0.31311127874E+01  0.11507291061E+00  0.13632775167E+02  0.00000000000E+00 0. -1.
</event>
<event>
 7    1  0.4236733E-010  0.4778727E+02  0.7816164E-02  0.1312668E+00
        -11   -1    0    0    0    0  0.00000000000E+00  0.00000000000E+00  0.45593999997E+02  0.45594000000E+02  0.51100000000E-03 0.  1.
         11   -1    0    0    0    0 -0.00000000000E+00 -0.00000000000E+00 -0.45593999997E+02  0.45594000000E+02  0.51100000000E-03 0. -1.
    9900012    2    1    2    0    0 -0.25634922049E+02  0.20743649890E+02 -0.28216574718E+02  0.47787270420E+02  0.19999997155E+02 0.  0.
        -12    1    1    2    0    0  0.25634922049E+02 -0.20743649890E+02  0.28216574718E+02  0.43400729580E+02  0.00000000000E+00 0.  1.
         11    1    3    3    0    0 -0.16906023285E+01  0.55076502974E+00 -0.43736914128E+01  0.47212980405E+01  0.51100000000E-03 0. -1.
        -11    1    3    3    0    0 -0.24869265211E+02  0.20637542808E+02 -0.17717280067E+02  0.36854993401E+02  0.51100000000E-03 0.  1.
         12    1    3    3    0    0  0.92494549068E+00 -0.44465794851E+00 -0.61256032381E+01  0.62109789794E+01  0.00000000000E+00 0. -1.
</event>
<event>
 7    1  0.4236733E-010  0.4778727E+02  0.7816164E-02  0.1312668E+00
        -11   -1    0    0    0    0  0.00000000000E+00  0.00000000000E+00  0.45593999997E+02  0.45594000000E+02  0.51100000000E-03 0.  1.
         11   -1    0    0    0    0 -0.00000000000E+00 -0.00000000000E+00 -0.45593999997E+02  0.45594000000E+02  0.51100000000E-03 0. -1.
    9900012    2    1    2    0    0 -0.35785214251E+02  0.26686426030E+01  0.24411477046E+02  0.47787269316E+02  0.19999992121E+02 0.  0.
        -12    1    1    2    0    0  0.35785214251E+02 -0.26686426030E+01 -0.24411477046E+02  0.43400730684E+02  0.00000000000E+00 0.  1.
         11    1    3    3    0    0 -0.15681890839E+02  0.96522037464E+00  0.32823531197E+01  0.16050769231E+02  0.51100000000E-03 0. -1.
        -11    1    3    3    0    0 -0.50081405367E+01 -0.48356837228E+01  0.41976003071E+01  0.81292777847E+01  0.51100000000E-03 0.  1.
         12    1    3    3    0    0 -0.15095182876E+02  0.65391059511E+01  0.16931523619E+02  0.23607222301E+02  0.00000000000E+00 0. -1.
</event>
<event>
 7    1  0.4236733E-010  0.4778727E+02  0.7816164E-02  0.1312668E+00
        -11   -1    0    0    0    0  0.00000000000E+00  0.00000000000E+00  0.45593999997E+02  0.45594000000E+02  0.51100000000E-03 0. -1.
         11   -1    0    0    0    0 -0.00000000000E+00 -0.00000000000E+00 -0.45593999997E+02  0.45594000000E+02  0.51100000000E-03 0.  1.
    9900012    2    1    2    0    0 -0.25155539758E+02  0.93989450456E+01  0.34095196639E+02  0.47787265186E+02  0.19999973290E+02 0.  0.
        -12    1    1    2    0    0  0.25155539758E+02 -0.93989450456E+01 -0.34095196639E+02  0.43400734814E+02  0.00000000000E+00 0.  1.
         11    1    3    3    0    0  0.17441753917E+01 -0.16572569635E+01  0.58608412523E+01  0.63354643781E+01  0.51100000000E-03 0. -1.
        -11    1    3    3    0    0 -0.43464934747E+01  0.48284908072E+01  0.93442648680E+01  0.11380756354E+02  0.51100000000E-03 0.  1.
        -12    1    3    3    0    0 -0.22553221675E+02  0.62277112019E+01  0.18890090519E+02  0.30071044454E+02  0.00000000000E+00 0.  1.
</event>
<event>
 7    1  0.4236733E-010  0.4778727E+02  0.7816164E-02  0.1312668E+00
        -11   -1    0    0    0    0  0.00000000000E+00  0.00000000000E+00  0.45593999997E+02  0.45594000000E+02  0.51100000000E-03 0.  1.
         11   -1    0    0    0    0 -0.00000000000E+00 -0.00000000000E+00 -0.45593999997E+02  0.45594000000E+02  0.51100000000E-03 0. -1.
    9900012    2    1    2    0    0 -0.41792708355E+02  0.23156371430E+00  0.11702107578E+02  0.47787269416E+02  0.19999992577E+02 0.  0.
        -12    1    1    2    0    0  0.41792708355E+02 -0.23156371430E+00 -0.11702107578E+02  0.43400730584E+02  0.00000000000E+00 0.  1.
         11    1    3    3    0    0 -0.61371926799E+01  0.31967091037E+01  0.31752514130E+01  0.76135605915E+01  0.51100000000E-03 0. -1.
        -11    1    3    3    0    0 -0.14933638477E+01  0.33057319439E+01 -0.16435392024E+01  0.39823636998E+01  0.51100000000E-03 0.  1.
         12    1    3    3    0    0 -0.34162151828E+02 -0.62708773332E+01  0.10170395367E+02  0.36191345125E+02  0.00000000000E+00 0. -1.
</event>
<event>
 7    1  0.4236733E-010  0.4778727E+02  0.7816164E-02  0.1312668E+00
        -11   -1    0    0    0    0  0.00000000000E+00  0.00000000000E+00  0.45593999997E+02  0.45594000000E+02  0.51100000000E-03 0.  1.
         11   -1    0    0    0    0 -0.00000000000E+00 -0.00000000000E+00 -0.45593999997E+02  0.45594000000E+02  0.51100000000E-03 0. -1.
    9900012    2    1    2    0    0  0.76076626659E+01 -0.34869681954E+02 -0.24695186093E+02  0.47787268820E+02  0.19999989856E+02 0.  0.
        -12    1    1    2    0    0 -0.76076626659E+01  0.34869681954E+02  0.24695186093E+02  0.43400731180E+02  0.00000000000E+00 0.  1.
         11    1    3    3    0    0 -0.24243599341E+01 -0.14473985407E+02 -0.87361664631E+01  0.17079062603E+02  0.51100000000E-03 0. -1.
        -11    1    3    3    0    0 -0.11064855454E+00 -0.13378783381E+02 -0.52432802094E+01  0.14369971310E+02  0.51100000000E-03 0.  1.
        -12    1    3    3    0    0  0.10142671155E+02 -0.70169131666E+01 -0.10715739420E+02  0.16338234906E+02  0.00000000000E+00 0.  1.
</event>
<event>
 7    1  0.4236733E-010  0.4778727E+02  0.7816164E-02  0.1312668E+00
        -11   -1    0    0    0    0  0.00000000000E+00  0.00000000000E+00  0.45593999997E+02  0.45594000000E+02  0.51100000000E-03 0.  1.
         11   -1    0    0    0    0 -0.00000000000E+00 -0.00000000000E+00 -0.45593999997E+02  0.45594000000E+02  0.51100000000E-03 0. -1.
    9900012    2    1    2    0    0 -0.41466621272E+02 -0.39480028895E+01 -0.12188351503E+02  0.47787270526E+02  0.19999997635E+02 0.  0.
        -12    1    1    2    0    0  0.41466621272E+02  0.39480028895E+01  0.12188351503E+02  0.43400729474E+02  0.00000000000E+00 0.  1.
         11    1    3    3    0    0 -0.51387635674E+01  0.21213440855E+01 -0.41829196193E+01  0.69572845660E+01  0.51100000000E-03 0. -1.
        -11    1    3    3    0    0 -0.18737148063E+02  0.46812514224E+01 -0.53752606924E+01  0.20047150924E+02  0.51100000000E-03 0.  1.
         12    1    3    3    0    0 -0.17590709642E+02 -0.10750598397E+02 -0.26301711914E+01  0.20782835035E+02  0.00000000000E+00 0. -1.
</event>
<event>
 7    1  0.4236733E-010  0.4778727E+02  0.7816164E-02  0.1312668E+00
        -11   -1    0    0    0    0  0.00000000000E+00  0.00000000000E+00  0.45593999997E+02  0.45594000000E+02  0.51100000000E-03 0.  1.
         11   -1    0    0    0    0 -0.00000000000E+00 -0.00000000000E+00 -0.45593999997E+02  0.45594000000E+02  0.51100000000E-03 0. -1.
    9900012    2    1    2    0    0  0.32291104863E+02  0.28787086655E+02  0.34944782685E+01  0.47787272014E+02  0.20000004422E+02 0.  0.
        -12    1    1    2    0    0 -0.32291104863E+02 -0.28787086655E+02 -0.34944782685E+01  0.43400727986E+02  0.00000000000E+00 0.  1.
         11    1    3    3    0    0  0.17286161101E+02  0.16823187432E+02 -0.34783466319E+01  0.24370676982E+02  0.51100000000E-03 0. -1.
        -11    1    3    3    0    0  0.10903871938E+02  0.39801511221E+01 -0.67150101964E+00  0.11626991875E+02  0.51100000000E-03 0.  1.
        -12    1    3    3    0    0  0.41010718239E+01  0.79837481006E+01  0.76443259200E+01  0.11789603157E+02  0.00000000000E+00 0.  1.
</event>
<event>
 7    1  0.4236733E-010  0.4778727E+02  0.7816164E-02  0.1312668E+00
        -11   -1    0    0    0    0  0.00000000000E+00  0.00000000000E+00  0.45593999997E+02  0.45594000000E+02  0.51100000000E-03 0. -1.
         11   -1    0    0    0    0 -0.00000000000E+00 -0.00000000000E+00 -0.45593999997E+02  0.45594000000E+02  0.51100000000E-03 0.  1.
    9900012    2    1    2    0    0 -0.23378914666E+02  0.34590980567E+02 -0.11853848525E+02  0.47787270601E+02  0.19999997978E+02 0.  0.
        -12    1    1    2    0    0  0.23378914666E+02 -0.34590980567E+02  0.11853848525E+02  0.43400729399E+02  0.00000000000E+00 0.  1.
         11    1    3    3    0    0 -0.91007427092E+01  0.89502520323E+01 -0.95973100953E+01  0.15969937089E+02  0.51100000000E-03 0. -1.
        -11    1    3    3    0    0 -0.51056189820E+01  0.25133594555E+01 -0.38750888580E+01  0.68848118972E+01  0.51100000000E-03 0.  1.
         12    1    3    3    0    0 -0.91725529746E+01  0.23127369079E+02  0.16185504281E+01  0.24932521615E+02  0.00000000000E+00 0. -1.
</event>
<event>
 7    1  0.4236733E-010  0.4778727E+02  0.7816164E-02  0.1312668E+00
        -11   -1    0    0    0    0  0.00000000000E+00  0.00000000000E+00  0.45593999997E+02  0.45594000000E+02  0.51100000000E-03 0.  1.
         11   -1    0    0    0    0 -0.00000000000E+00 -0.00000000000E+00 -0.45593999997E+02  0.45594000000E+02  0.51100000000E-03 0. -1.
    9900012    2    1    2    0    0  0.27784680009E+02  0.30759624329E+02  0.12863935572E+02  0.47787265323E+02  0.19999973915E+02 0.  0.
        -12    1    1    2    0    0 -0.27784680009E+02 -0.30759624329E+02 -0.12863935572E+02  0.43400734677E+02  0.00000000000E+00 0.  1.
         11    1    3    3    0    0  0.11809860364E+02  0.18299262941E+02  0.10670982775E+02  0.24252952390E+02  0.51100000000E-03 0. -1.
        -11    1    3    3    0    0  0.16216533725E+02  0.14218612178E+02  0.14678347367E+01  0.21617109830E+02  0.51100000000E-03 0.  1.
        -12    1    3    3    0    0 -0.24171408018E+00 -0.17582507898E+01  0.72511806065E+00  0.19172031031E+01  0.00000000000E+00 0.  1.
</event>
<event>
 7    1  0.4236733E-010  0.4778727E+02  0.7816164E-02  0.1312668E+00
        -11   -1    0    0    0    0  0.00000000000E+00  0.00000000000E+00  0.45593999997E+02  0.45594000000E+02  0.51100000000E-03 0.  1.
         11   -1    0    0    0    0 -0.00000000000E+00 -0.00000000000E+00 -0.45593999997E+02  0.45594000000E+02  0.51100000000E-03 0. -1.
    9900012    2    1    2    0    0  0.26538719698E+02 -0.34099659575E+02 -0.40660381278E+01  0.47787273136E+02  0.20000009534E+02 0.  0.
        -12    1    1    2    0    0 -0.26538719698E+02  0.34099659575E+02  0.40660381278E+01  0.43400726864E+02  0.00000000000E+00 0.  1.
         11    1    3    3    0    0  0.15527534984E+02 -0.19074964611E+02 -0.88617316734E+01  0.26143620754E+02  0.51100000000E-03 0. -1.
        -11    1    3    3    0    0  0.41827872102E+01  0.19991869883E+00 -0.29672759210E+00  0.41980619167E+01  0.51100000000E-03 0.  1.
         12    1    3    3    0    0  0.68283975032E+01 -0.15224613662E+02  0.50924211377E+01  0.17445590465E+02  0.00000000000E+00 0. -1.
</event>
<event>
 7    1  0.4236733E-010  0.4778727E+02  0.7816164E-02  0.1312668E+00
        -11   -1    0    0    0    0  0.00000000000E+00  0.00000000000E+00  0.45593999997E+02  0.45594000000E+02  0.51100000000E-03 0.  1.
         11   -1    0    0    0    0 -0.00000000000E+00 -0.00000000000E+00 -0.45593999997E+02  0.45594000000E+02  0.51100000000E-03 0. -1.
    9900012    2    1    2    0    0  0.25346884943E+00 -0.29627533839E+02 -0.31713846980E+02  0.47787273069E+02  0.20000009232E+02 0.  0.
        -12    1    1    2    0    0 -0.25346884943E+00  0.29627533839E+02  0.31713846980E+02  0.43400726931E+02  0.00000000000E+00 0.  1.
         11    1    3    3    0    0 -0.12479559254E+01 -0.11547874854E+01 -0.10270692297E+02  0.10410477830E+02  0.51100000000E-03 0. -1.
        -11    1    3    3    0    0  0.27425472257E+00 -0.78927723660E+01 -0.38533844326E+00  0.79069309628E+01  0.51100000000E-03 0.  1.
        -12    1    3    3    0    0  0.12271700523E+01 -0.20579973988E+02 -0.21057816239E+02  0.29469864276E+02  0.00000000000E+00 0.  1.
</event>
<event>
 7    1  0.4236733E-010  0.4778727E+02  0.7816164E-02  0.1312668E+00
        -11   -1    0    0    0    0  0.00000000000E+00  0.00000000000E+00  0.45593999997E+02  0.45594000000E+02  0.51100000000E-03 0.  1.
         11   -1    0    0    0    0 -0.00000000000E+00 -0.00000000000E+00 -0.45593999997E+02  0.45594000000E+02  0.51100000000E-03 0. -1.
    9900012    2    1    2    0    0 -0.61742944130E+01 -0.42171482680E+02 -0.81894604242E+01  0.47787272760E+02  0.20000007823E+02 0.  0.
        -12    1    1    2    0    0  0.61742944130E+01  0.42171482680E+02  0.81894604242E+01  0.43400727240E+02  0.00000000000E+00 0.  1.
         11    1    3    3    0    0 -0.45611552309E+01 -0.20171217104E+02  0.21153618566E+01  0.20788383596E+02  0.51100000000E-03 0. -1.
        -11    1    3    3    0    0 -0.27568820211E+01 -0.22955898449E+02 -0.84434467651E+01  0.24614334555E+02  0.51100000000E-03 0.  1.
        -12    1    3    3    0    0  0.11437428391E+01  0.95563287315E+00 -0.18613755157E+01  0.23845546084E+01  0.00000000000E+00 0.  1.
</event>
<event>
 7    1  0.4236733E-010  0.4778727E+02  0.7816164E-02  0.1312668E+00
        -11   -1    0    0    0    0  0.00000000000E+00  0.00000000000E+00  0.45593999997E+02  0.45594000000E+02  0.51100000000E-03 0.  1.
         11   -1    0    0    0    0 -0.00000000000E+00 -0.00000000000E+00 -0.45593999997E+02  0.45594000000E+02  0.51100000000E-03 0. -1.
    9900012    2    1    2    0    0 -0.89489478314E+01  0.22673936185E+02 -0.35908664905E+02  0.47787271151E+02  0.20000000485E+02 0.  0.
        -12    1    1    2    0    0  0.89489478314E+01 -0.22673936185E+02  0.35908664905E+02  0.43400728849E+02  0.00000000000E+00 0.  1.
         11    1    3    3    0    0 -0.26383145829E+01  0.71866359271E+01 -0.46464112251E+01  0.89553100070E+01  0.51100000000E-03 0. -1.
        -11    1    3    3    0    0 -0.64404351341E+01  0.25057951949E+01 -0.26303828915E+01  0.73943984672E+01  0.51100000000E-03 0.  1.
         12    1    3    3    0    0  0.12980188558E+00  0.12981505063E+02 -0.28631870788E+02  0.31437562677E+02  0.00000000000E+00 0. -1.
</event>
<event>
 7    1  0.4236733E-010  0.4778727E+02  0.7816164E-02  0.1312668E+00
        -11   -1    0    0    0    0  0.00000000000E+00  0.00000000000E+00  0.45593999997E+02  0.45594000000E+02  0.51100000000E-03 0. -1.
         11   -1    0    0    0    0 -0.00000000000E+00 -0.00000000000E+00 -0.45593999997E+02  0.45594000000E+02  0.51100000000E-03 0.  1.
    9900012    2    1    2    0    0  0.30116220438E+02 -0.14990703932E+02  0.27421075257E+02  0.47787270674E+02  0.19999998309E+02 0.  0.
        -12    1    1    2    0    0 -0.30116220438E+02  0.14990703932E+02 -0.27421075257E+02  0.43400729326E+02  0.00000000000E+00 0.  1.
         11    1    3    3    0    0  0.13397757537E+02  0.88542872439E+00  0.73988263988E+01  0.15330574789E+02  0.51100000000E-03 0. -1.
        -11    1    3    3    0    0  0.15545524016E+02 -0.80686853046E+01  0.12216667422E+02  0.21354483432E+02  0.51100000000E-03 0.  1.
        -12    1    3    3    0    0  0.11729388846E+01 -0.78074473519E+01  0.78055814361E+01  0.11102212452E+02  0.00000000000E+00 0.  1.
</event>
<event>
 7    1  0.4236733E-010  0.4778729E+02  0.7816164E-02  0.1312668E+00
        -11   -1    0    0    0    0  0.00000000000E+00  0.00000000000E+00  0.45593999997E+02  0.45594000000E+02  0.51100000000E-03 0. -1.
         11   -1    0    0    0    0 -0.00000000000E+00 -0.00000000000E+00 -0.45593999997E+02  0.45594000000E+02  0.51100000000E-03 0.  1.
    9900012    2    1    2    0    0 -0.25918461906E+02  0.65727384501E+01  0.34185580816E+02  0.47787291549E+02  0.20000093489E+02 0.  0.
        -12    1    1    2    0    0  0.25918461906E+02 -0.65727384501E+01 -0.34185580816E+02  0.43400708451E+02  0.00000000000E+00 0.  1.
         11    1    3    3    0    0 -0.59869000853E+01  0.43646565909E+00  0.78082306230E+01  0.98489563217E+01  0.51100000000E-03 0. -1.
        -11    1    3    3    0    0 -0.16255140381E+01  0.53799616795E+00 -0.26572004939E+01  0.31610837525E+01  0.51100000000E-03 0.  1.
        -12    1    3    3    0    0 -0.18306047782E+02  0.55982766230E+01  0.29034550687E+02  0.34777251475E+02  0.00000000000E+00 0.  1.
</event>
<event>
 7    1  0.4236733E-010  0.4778727E+02  0.7816164E-02  0.1312668E+00
        -11   -1    0    0    0    0  0.00000000000E+00  0.00000000000E+00  0.45593999997E+02  0.45594000000E+02  0.51100000000E-03 0.  1.
         11   -1    0    0    0    0 -0.00000000000E+00 -0.00000000000E+00 -0.45593999997E+02  0.45594000000E+02  0.51100000000E-03 0. -1.
    9900012    2    1    2    0    0  0.37790294033E+02 -0.86558038557E+01 -0.19508824734E+02  0.47787268370E+02  0.19999987808E+02 0.  0.
        -12    1    1    2    0    0 -0.37790294033E+02  0.86558038557E+01  0.19508824734E+02  0.43400731630E+02  0.00000000000E+00 0.  1.
         11    1    3    3    0    0  0.25999914054E+02 -0.11627896538E+02 -0.17389357130E+02  0.33370544652E+02  0.51100000000E-03 0. -1.
        -11    1    3    3    0    0 -0.92598559355E+00 -0.29871657989E+00 -0.72341519159E+00  0.12124399841E+01  0.51100000000E-03 0.  1.
         12    1    3    3    0    0  0.12716365572E+02  0.32708092621E+01 -0.13960524123E+01  0.13204283734E+02  0.00000000000E+00 0. -1.
</event>
<event>
 7    1  0.4236733E-010  0.4778728E+02  0.7816164E-02  0.1312668E+00
        -11   -1    0    0    0    0  0.00000000000E+00  0.00000000000E+00  0.45593999997E+02  0.45594000000E+02  0.51100000000E-03 0.  1.
         11   -1    0    0    0    0 -0.00000000000E+00 -0.00000000000E+00 -0.45593999997E+02  0.45594000000E+02  0.51100000000E-03 0. -1.
    9900012    2    1    2    0    0 -0.39280550845E+02  0.61761131411E+01 -0.17393004436E+02  0.47787278214E+02  0.20000032690E+02 0.  0.
        -12    1    1    2    0    0  0.39280550845E+02 -0.61761131411E+01  0.17393004436E+02  0.43400721786E+02  0.00000000000E+00 0.  1.
         11    1    3    3    0    0 -0.24502027790E+02  0.15374525566E+00 -0.50704673358E+01  0.25021643485E+02  0.51100000000E-03 0. -1.
        -11    1    3    3    0    0 -0.37290915794E+01 -0.30690568528E+01 -0.33090013005E+01  0.58544618746E+01  0.51100000000E-03 0.  1.
        -12    1    3    3    0    0 -0.11049431475E+02  0.90914247383E+01 -0.90135358002E+01  0.16911172854E+02  0.00000000000E+00 0.  1.
</event>
<event>
 7    1  0.4236733E-010  0.4778727E+02  0.7816164E-02  0.1312668E+00
        -11   -1    0    0    0    0  0.00000000000E+00  0.00000000000E+00  0.45593999997E+02  0.45594000000E+02  0.51100000000E-03 0.  1.
         11   -1    0    0    0    0 -0.00000000000E+00 -0.00000000000E+00 -0.45593999997E+02  0.45594000000E+02  0.51100000000E-03 0. -1.
    9900012    2    1    2    0    0  0.33943734109E+02  0.94691489103E+01 -0.25333404403E+02  0.47787271377E+02  0.20000001516E+02 0.  0.
        -12    1    1    2    0    0 -0.33943734109E+02 -0.94691489103E+01  0.25333404403E+02  0.43400728623E+02  0.00000000000E+00 0.  1.
         11    1    3    3    0    0  0.33417658438E+01  0.12796667816E+01  0.22264803114E+01  0.42145178686E+01  0.51100000000E-03 0. -1.
        -11    1    3    3    0    0  0.92822797239E+01  0.80404540119E+01 -0.81353294806E+01  0.14730689176E+02  0.51100000000E-03 0.  1.
         12    1    3    3    0    0  0.21319688542E+02  0.14902811681E+00 -0.19424555234E+02  0.28842064332E+02  0.00000000000E+00 0. -1.
</event>
<event>
 7    1  0.4236733E-010  0.4778727E+02  0.7816164E-02  0.1312668E+00
        -11   -1    0    0    0    0  0.00000000000E+00  0.00000000000E+00  0.45593999997E+02  0.45594000000E+02  0.51100000000E-03 0.  1.
         11   -1    0    0    0    0 -0.00000000000E+00 -0.00000000000E+00 -0.45593999997E+02  0.45594000000E+02  0.51100000000E-03 0. -1.
    9900012    2    1    2    0    0  0.24981915100E+02  0.27544575256E+02  0.22379090220E+02  0.47787269739E+02  0.19999994048E+02 0.  0.
        -12    1    1    2    0    0 -0.24981915100E+02 -0.27544575256E+02 -0.22379090220E+02  0.43400730261E+02  0.00000000000E+00 0.  1.
         11    1    3    3    0    0  0.17490933062E+01  0.18131007015E+01 -0.80814840441E+00  0.26457070231E+01  0.51100000000E-03 0. -1.
        -11    1    3    3    0    0  0.86111966800E+01  0.42402671786E+00  0.15107803029E+01  0.87529974468E+01  0.51100000000E-03 0.  1.
         12    1    3    3    0    0  0.14621625114E+02  0.25307447836E+02  0.21676458322E+02  0.36388565269E+02  0.00000000000E+00 0. -1.
</event>
<event>
 7    1  0.4236733E-010  0.4778727E+02  0.7816164E-02  0.1312668E+00
        -11   -1    0    0    0    0  0.00000000000E+00  0.00000000000E+00  0.45593999997E+02  0.45594000000E+02  0.51100000000E-03 0.  1.
         11   -1    0    0    0    0 -0.00000000000E+00 -0.00000000000E+00 -0.45593999997E+02  0.45594000000E+02  0.51100000000E-03 0. -1.
    9900012    2    1    2    0    0 -0.24674632076E+01 -0.28015433638E+02 -0.33055572449E+02  0.47787265369E+02  0.19999974121E+02 0.  0.
        -12    1    1    2    0    0  0.24674632076E+01  0.28015433638E+02  0.33055572449E+02  0.43400734631E+02  0.00000000000E+00 0.  1.
         11    1    3    3    0    0  0.50212495232E+01 -0.16188038250E+02 -0.17884954043E+02  0.24640152405E+02  0.51100000000E-03 0.  1.
        -11    1    3    3    0    0  0.15220239590E+01 -0.68828484061E+01 -0.77091811669E+01  0.10446130080E+02  0.51100000000E-03 0. -1.
        -12    1    3    3    0    0 -0.90107366898E+01 -0.49445469824E+01 -0.74614372390E+01  0.12700982884E+02  0.00000000000E+00 0.  1.
</event>
<event>
 7    1  0.4236733E-010  0.4778727E+02  0.7816164E-02  0.1312668E+00
        -11   -1    0    0    0    0  0.00000000000E+00  0.00000000000E+00  0.45593999997E+02  0.45594000000E+02  0.51100000000E-03 0.  1.
         11   -1    0    0    0    0 -0.00000000000E+00 -0.00000000000E+00 -0.45593999997E+02  0.45594000000E+02  0.51100000000E-03 0. -1.
    9900012    2    1    2    0    0 -0.50820460207E+01  0.42193257644E+00 -0.43100097451E+02  0.47787267067E+02  0.19999981864E+02 0.  0.
        -12    1    1    2    0    0  0.50820460207E+01 -0.42193257644E+00  0.43100097451E+02  0.43400732933E+02  0.00000000000E+00 0.  1.
         11    1    3    3    0    0 -0.43805041924E+00  0.64349821915E+00 -0.28970113042E+00  0.83060528166E+00  0.51100000000E-03 0. -1.
        -11    1    3    3    0    0 -0.88963396485E+01  0.22764966668E+01 -0.92441023445E+01  0.13029993271E+02  0.51100000000E-03 0.  1.
         12    1    3    3    0    0  0.42523440470E+01 -0.24980623095E+01 -0.33566293976E+02  0.33926668515E+02  0.00000000000E+00 0. -1.
</event>
<event>
 7    1  0.4236733E-010  0.4778727E+02  0.7816164E-02  0.1312668E+00
        -11   -1    0    0    0    0  0.00000000000E+00  0.00000000000E+00  0.45593999997E+02  0.45594000000E+02  0.51100000000E-03 0. -1.
         11   -1    0    0    0    0 -0.00000000000E+00 -0.00000000000E+00 -0.45593999997E+02  0.45594000000E+02  0.51100000000E-03 0.  1.
    9900012    2    1    2    0    0  0.14084723097E+02 -0.26314155758E+02  0.31508869586E+02  0.47787273271E+02  0.20000010153E+02 0.  0.
        -12    1    1    2    0    0 -0.14084723097E+02  0.26314155758E+02 -0.31508869586E+02  0.43400726729E+02  0.00000000000E+00 0.  1.
         11    1    3    3    0    0 -0.22837448320E+00 -0.19748855329E+01  0.14508077698E+00  0.19933330042E+01  0.51100000000E-03 0. -1.
        -11    1    3    3    0    0  0.49799879744E+00 -0.18135579106E+02  0.15498313528E+02  0.23860950417E+02  0.51100000000E-03 0.  1.
         12    1    3    3    0    0  0.13815098783E+02 -0.62036911191E+01  0.15865475281E+02  0.21932989850E+02  0.00000000000E+00 0. -1.
</event>
<event>
 7    1  0.4236733E-010  0.4778727E+02  0.7816164E-02  0.1312668E+00
        -11   -1    0    0    0    0  0.00000000000E+00  0.00000000000E+00  0.45593999997E+02  0.45594000000E+02  0.51100000000E-03 0.  1.
         11   -1    0    0    0    0 -0.00000000000E+00 -0.00000000000E+00 -0.45593999997E+02  0.45594000000E+02  0.51100000000E-03 0. -1.
    9900012    2    1    2    0    0 -0.41914505798E+02  0.53600234392E+01 -0.99029033142E+01  0.47787272568E+02  0.20000006946E+02 0.  0.
        -12    1    1    2    0    0  0.41914505798E+02 -0.53600234392E+01  0.99029033142E+01  0.43400727432E+02  0.00000000000E+00 0.  1.
         11    1    3    3    0    0 -0.14292273572E+02  0.29952288728E+01 -0.67871131079E+01  0.16102961978E+02  0.51100000000E-03 0. -1.
        -11    1    3    3    0    0 -0.51919689007E+01 -0.28232225788E+01 -0.60715144250E+01  0.84729224279E+01  0.51100000000E-03 0.  1.
        -12    1    3    3    0    0 -0.22430263326E+02  0.51880171452E+01  0.29557242187E+01  0.23211388162E+02  0.00000000000E+00 0.  1.
</event>
<event>
 7    1  0.4236733E-010  0.4778727E+02  0.7816164E-02  0.1312668E+00
        -11   -1    0    0    0    0  0.00000000000E+00  0.00000000000E+00  0.45593999997E+02  0.45594000000E+02  0.51100000000E-03 0. -1.
         11   -1    0    0    0    0 -0.00000000000E+00 -0.00000000000E+00 -0.45593999997E+02  0.45594000000E+02  0.51100000000E-03 0.  1.
    9900012    2    1    2    0    0 -0.42018575447E+02  0.96501990210E+00  0.10822722795E+02  0.47787271035E+02  0.19999999955E+02 0.  0.
        -12    1    1    2    0    0  0.42018575447E+02 -0.96501990210E+00 -0.10822722795E+02  0.43400728965E+02  0.00000000000E+00 0.  1.
         11    1    3    3    0    0 -0.19935187696E+02  0.56635163271E+01  0.76296876958E+01  0.22083914061E+02  0.51100000000E-03 0. -1.
        -11    1    3    3    0    0 -0.20584806989E+02 -0.32524764061E+01 -0.11656420207E+01  0.20872747858E+02  0.51100000000E-03 0.  1.
         12    1    3    3    0    0 -0.14985807624E+01 -0.14460200189E+01  0.43586771196E+01  0.48306091157E+01  0.00000000000E+00 0. -1.
</event>
<event>
 7    1  0.4236733E-010  0.4778727E+02  0.7816164E-02  0.1312668E+00
        -11   -1    0    0    0    0  0.00000000000E+00  0.00000000000E+00  0.45593999997E+02  0.45594000000E+02  0.51100000000E-03 0.  1.
         11   -1    0    0    0    0 -0.00000000000E+00 -0.00000000000E+00 -0.45593999997E+02  0.45594000000E+02  0.51100000000E-03 0. -1.
    9900012    2    1    2    0    0 -0.34850825497E+01 -0.43260529201E+02 -0.65044453762E-01  0.47787269386E+02  0.19999992436E+02 0.  0.
        -12    1    1    2    0    0  0.34850825497E+01  0.43260529201E+02  0.65044453762E-01  0.43400730614E+02  0.00000000000E+00 0.  1.
         11    1    3    3    0    0 -0.52876470879E+01 -0.17377851292E+02 -0.68137180053E+01  0.19400404135E+02  0.51100000000E-03 0. -1.
        -11    1    3    3    0    0  0.39489032655E+00  0.69911528884E+00  0.75336453966E+00  0.11010263157E+01  0.51100000000E-03 0.  1.
         12    1    3    3    0    0  0.14076742116E+01 -0.26581793197E+02  0.59953090119E+01  0.27285838935E+02  0.00000000000E+00 0. -1.
</event>
<event>
 7    1  0.4236733E-010  0.4778725E+02  0.7816164E-02  0.1312668E+00
        -11   -1    0    0    0    0  0.00000000000E+00  0.00000000000E+00  0.45593999997E+02  0.45594000000E+02  0.51100000000E-03 0. -1.
         11   -1    0    0    0    0 -0.00000000000E+00 -0.00000000000E+00 -0.45593999997E+02  0.45594000000E+02  0.51100000000E-03 0.  1.
    9900012    2    1    2    0    0  0.42891158739E+02 -0.66278191725E+01  0.21421589027E+00  0.47787246856E+02  0.19999889716E+02 0.  0.
        -12    1    1    2    0    0 -0.42891158739E+02  0.66278191725E+01 -0.21421589027E+00  0.43400753144E+02  0.00000000000E+00 0.  1.
         11    1    3    3    0    0  0.23792574945E+01  0.45341338500E+00 -0.31105050649E+01  0.39422952632E+01  0.51100000000E-03 0. -1.
        -11    1    3    3    0    0  0.28320007541E+02 -0.60894022933E+01 -0.45136588228E+01  0.29316834134E+02  0.51100000000E-03 0.  1.
         12    1    3    3    0    0  0.12191893704E+02 -0.99183026421E+00  0.78383797780E+01  0.14528117459E+02  0.00000000000E+00 0. -1.
</event>
<event>
 7    1  0.4236733E-010  0.4778727E+02  0.7816164E-02  0.1312668E+00
        -11   -1    0    0    0    0  0.00000000000E+00  0.00000000000E+00  0.45593999997E+02  0.45594000000E+02  0.51100000000E-03 0. -1.
         11   -1    0    0    0    0 -0.00000000000E+00 -0.00000000000E+00 -0.45593999997E+02  0.45594000000E+02  0.51100000000E-03 0.  1.
    9900012    2    1    2    0    0 -0.39397883487E+02 -0.11233336459E+01  0.18170528304E+02  0.47787271889E+02  0.20000003849E+02 0.  0.
        -12    1    1    2    0    0  0.39397883487E+02  0.11233336459E+01 -0.18170528304E+02  0.43400728111E+02  0.00000000000E+00 0.  1.
         11    1    3    3    0    0 -0.12177306582E+02 -0.48011257651E+01  0.10718939260E+02  0.16918429694E+02  0.51100000000E-03 0. -1.
        -11    1    3    3    0    0  0.11185904759E+01  0.32807389831E+00 -0.46437562994E+00  0.12547996343E+01  0.51100000000E-03 0.  1.
        -12    1    3    3    0    0 -0.28339167381E+02  0.33497182210E+01  0.79159646739E+01  0.29614042560E+02  0.00000000000E+00 0.  1.
</event>
<event>
 7    1  0.4236733E-010  0.4778727E+02  0.7816164E-02  0.1312668E+00
        -11   -1    0    0    0    0  0.00000000000E+00  0.00000000000E+00  0.45593999997E+02  0.45594000000E+02  0.51100000000E-03 0. -1.
         11   -1    0    0    0    0 -0.00000000000E+00 -0.00000000000E+00 -0.45593999997E+02  0.45594000000E+02  0.51100000000E-03 0.  1.
    9900012    2    1    2    0    0 -0.31737781087E+02 -0.32347592375E+01  0.29425716651E+02  0.47787271710E+02  0.20000003036E+02 0.  0.
        -12    1    1    2    0    0  0.31737781087E+02  0.32347592375E+01 -0.29425716651E+02  0.43400728290E+02  0.00000000000E+00 0.  1.
         11    1    3    3    0    0 -0.12512408811E+02  0.36770225185E+01  0.97715417356E+01  0.16296131351E+02  0.51100000000E-03 0. -1.
        -11    1    3    3    0    0 -0.26119973804E+01  0.37995806912E+01  0.55110492479E+01  0.71854719969E+01  0.51100000000E-03 0.  1.
        -12    1    3    3    0    0 -0.16613374895E+02 -0.10711362447E+02  0.14143125668E+02  0.24305668362E+02  0.00000000000E+00 0.  1.
</event>
<event>
 7    1  0.4236733E-010  0.4778727E+02  0.7816164E-02  0.1312668E+00
        -11   -1    0    0    0    0  0.00000000000E+00  0.00000000000E+00  0.45593999997E+02  0.45594000000E+02  0.51100000000E-03 0. -1.
         11   -1    0    0    0    0 -0.00000000000E+00 -0.00000000000E+00 -0.45593999997E+02  0.45594000000E+02  0.51100000000E-03 0.  1.
    9900012    2    1    2    0    0  0.33572225397E+02  0.24569815762E+02  0.12363387782E+02  0.47787268184E+02  0.19999986960E+02 0.  0.
        -12    1    1    2    0    0 -0.33572225397E+02 -0.24569815762E+02 -0.12363387782E+02  0.43400731816E+02  0.00000000000E+00 0.  1.
         11    1    3    3    0    0  0.18084467976E+02  0.18536904743E+02  0.11892860864E+02  0.28497455312E+02  0.51100000000E-03 0. -1.
        -11    1    3    3    0    0  0.84682144963E+01  0.87810228400E+00  0.45717756479E+01  0.96634803882E+01  0.51100000000E-03 0.  1.
        -12    1    3    3    0    0  0.70195429245E+01  0.51548087344E+01 -0.41012487298E+01  0.96263324844E+01  0.00000000000E+00 0.  1.
</event>
<event>
 7    1  0.4236733E-010  0.4778728E+02  0.7816164E-02  0.1312668E+00
        -11   -1    0    0    0    0  0.00000000000E+00  0.00000000000E+00  0.45593999997E+02  0.45594000000E+02  0.51100000000E-03 0. -1.
         11   -1    0    0    0    0 -0.00000000000E+00 -0.00000000000E+00 -0.45593999997E+02  0.45594000000E+02  0.51100000000E-03 0.  1.
    9900012    2    1    2    0    0 -0.13983960486E+02  0.38994355421E+02  0.12942634684E+02  0.47787277677E+02  0.20000030242E+02 0.  0.
        -12    1    1    2    0    0  0.13983960486E+02 -0.38994355421E+02 -0.12942634684E+02  0.43400722323E+02  0.00000000000E+00 0.  1.
         11    1    3    3    0    0 -0.58932887796E+01  0.18372849997E+02  0.25127324068E+01  0.19457808049E+02  0.51100000000E-03 0. -1.
        -11    1    3    3    0    0 -0.13879112657E+01  0.18985330439E+02  0.53874017688E+01  0.19783659107E+02  0.51100000000E-03 0.  1.
         12    1    3    3    0    0 -0.67027604407E+01  0.16361749850E+01  0.50425005079E+01  0.85458105220E+01  0.00000000000E+00 0. -1.
</event>
<event>
 7    1  0.4236733E-010  0.4778729E+02  0.7816164E-02  0.1312668E+00
        -11   -1    0    0    0    0  0.00000000000E+00  0.00000000000E+00  0.45593999997E+02  0.45594000000E+02  0.51100000000E-03 0.  1.
         11   -1    0    0    0    0 -0.00000000000E+00 -0.00000000000E+00 -0.45593999997E+02  0.45594000000E+02  0.51100000000E-03 0. -1.
    9900012    2    1    2    0    0 -0.28856932521E+02 -0.31408040054E+02 -0.80270717327E+01  0.47787292457E+02  0.20000097630E+02 0.  0.
        -12    1    1    2    0    0  0.28856932521E+02  0.31408040054E+02  0.80270717327E+01  0.43400707543E+02  0.00000000000E+00 0.  1.
         11    1    3    3    0    0 -0.13943619195E+02 -0.52403641234E+01 -0.11474559162E+01  0.14939966123E+02  0.51100000000E-03 0. -1.
        -11    1    3    3    0    0  0.15994587571E+01 -0.76517014792E+00  0.22691710636E-01  0.17732086301E+01  0.51100000000E-03 0.  1.
         12    1    3    3    0    0 -0.16512772083E+02 -0.25402505783E+02 -0.69023075271E+01  0.31074117705E+02  0.00000000000E+00 0. -1.
</event>
<event>
 7    1  0.4236733E-010  0.4778728E+02  0.7816164E-02  0.1312668E+00
        -11   -1    0    0    0    0  0.00000000000E+00  0.00000000000E+00  0.45593999997E+02  0.45594000000E+02  0.51100000000E-03 0. -1.
         11   -1    0    0    0    0 -0.00000000000E+00 -0.00000000000E+00 -0.45593999997E+02  0.45594000000E+02  0.51100000000E-03 0.  1.
    9900012    2    1    2    0    0  0.40819272795E+02  0.23957713254E+01  0.14548864268E+02  0.47787283379E+02  0.20000056238E+02 0.  0.
        -12    1    1    2    0    0 -0.40819272795E+02 -0.23957713254E+01 -0.14548864268E+02  0.43400716621E+02  0.00000000000E+00 0.  1.
         11    1    3    3    0    0  0.36639241140E+01  0.13462911654E+01  0.69232418091E+01  0.79478372670E+01  0.51100000000E-03 0. -1.
        -11    1    3    3    0    0  0.17465930749E+01 -0.18457276446E+01  0.31262542031E+01  0.40287421748E+01  0.51100000000E-03 0.  1.
        -12    1    3    3    0    0  0.35408755606E+02  0.28952078046E+01  0.44993682560E+01  0.35810703937E+02  0.00000000000E+00 0.  1.
</event>
<event>
 7    1  0.4236733E-010  0.4778727E+02  0.7816164E-02  0.1312668E+00
        -11   -1    0    0    0    0  0.00000000000E+00  0.00000000000E+00  0.45593999997E+02  0.45594000000E+02  0.51100000000E-03 0. -1.
         11   -1    0    0    0    0 -0.00000000000E+00 -0.00000000000E+00 -0.45593999997E+02  0.45594000000E+02  0.51100000000E-03 0.  1.
    9900012    2    1    2    0    0  0.88376527910E+01  0.42192214479E+02  0.50335188999E+01  0.47787269799E+02  0.19999994321E+02 0.  0.
        -12    1    1    2    0    0 -0.88376527910E+01 -0.42192214479E+02 -0.50335188999E+01  0.43400730201E+02  0.00000000000E+00 0.  1.
         11    1    3    3    0    0 -0.28838233594E+01  0.38683926285E+01  0.53714300532E+01  0.72203296167E+01  0.51100000000E-03 0. -1.
        -11    1    3    3    0    0  0.40625741143E+01  0.59673580270E+01 -0.11302875816E+01  0.73069433099E+01  0.51100000000E-03 0.  1.
        -12    1    3    3    0    0  0.76589020362E+01  0.32356463823E+02  0.79237642838E+00  0.33259996872E+02  0.00000000000E+00 0.  1.
</event>
<event>
 7    1  0.4236733E-010  0.4778727E+02  0.7816164E-02  0.1312668E+00
        -11   -1    0    0    0    0  0.00000000000E+00  0.00000000000E+00  0.45593999997E+02  0.45594000000E+02  0.51100000000E-03 0. -1.
         11   -1    0    0    0    0 -0.00000000000E+00 -0.00000000000E+00 -0.45593999997E+02  0.45594000000E+02  0.51100000000E-03 0.  1.
    9900012    2    1    2    0    0  0.26395502417E+02  0.62151639395E+01 -0.33886169154E+02  0.47787271082E+02  0.20000000171E+02 0.  0.
        -12    1    1    2    0    0 -0.26395502417E+02 -0.62151639395E+01  0.33886169154E+02  0.43400728918E+02  0.00000000000E+00 0.  1.
         11    1    3    3    0    0  0.45581730018E-01  0.77235714210E+00  0.60455578257E+00  0.98188655375E+00  0.51100000000E-03 0. -1.
        -11    1    3    3    0    0  0.51502935707E+01  0.64455180050E+01 -0.18422200945E+02  0.20185334135E+02  0.51100000000E-03 0.  1.
         12    1    3    3    0    0  0.21199627117E+02 -0.10027112076E+01 -0.16068523992E+02  0.26620050393E+02  0.00000000000E+00 0. -1.
</event>
<event>
 7    1  0.4236733E-010  0.4778727E+02  0.7816164E-02  0.1312668E+00
        -11   -1    0    0    0    0  0.00000000000E+00  0.00000000000E+00  0.45593999997E+02  0.45594000000E+02  0.51100000000E-03 0.  1.
         11   -1    0    0    0    0 -0.00000000000E+00 -0.00000000000E+00 -0.45593999997E+02  0.45594000000E+02  0.51100000000E-03 0. -1.
    9900012    2    1    2    0    0  0.27368205186E+02  0.60126889195E+01 -0.33142907896E+02  0.47787269281E+02  0.19999991961E+02 0.  0.
        -12    1    1    2    0    0 -0.27368205186E+02 -0.60126889195E+01  0.33142907896E+02  0.43400730719E+02  0.00000000000E+00 0.  1.
         11    1    3    3    0    0  0.40950875840E+01 -0.21858396251E+01 -0.48287774660E+01  0.66981138588E+01  0.51100000000E-03 0. -1.
        -11    1    3    3    0    0 -0.28536865562E+00  0.49415912317E+01 -0.13402490932E+01  0.51280627008E+01  0.51100000000E-03 0.  1.
         12    1    3    3    0    0  0.23558486257E+02  0.32569373129E+01 -0.26973881337E+02  0.35961092722E+02  0.00000000000E+00 0. -1.
</event>
<event>
 7    1  0.4236733E-010  0.4778727E+02  0.7816164E-02  0.1312668E+00
        -11   -1    0    0    0    0  0.00000000000E+00  0.00000000000E+00  0.45593999997E+02  0.45594000000E+02  0.51100000000E-03 0. -1.
         11   -1    0    0    0    0 -0.00000000000E+00 -0.00000000000E+00 -0.45593999997E+02  0.45594000000E+02  0.51100000000E-03 0.  1.
    9900012    2    1    2    0    0 -0.94541650786E+01 -0.42307714372E+02 -0.20735406870E+01  0.47787268396E+02  0.19999987927E+02 0.  0.
        -12    1    1    2    0    0  0.94541650786E+01  0.42307714372E+02  0.20735406870E+01  0.43400731604E+02  0.00000000000E+00 0.  1.
         11    1    3    3    0    0 -0.11645499963E+02 -0.29559373335E+02  0.43605709738E+01  0.32068501693E+02  0.51100000000E-03 0. -1.
        -11    1    3    3    0    0 -0.16249175860E+00  0.46710220020E+00  0.41805733794E+00  0.64758029307E+00  0.51100000000E-03 0.  1.
         12    1    3    3    0    0  0.23538266434E+01 -0.13215443238E+02 -0.68521689988E+01  0.15071186411E+02  0.00000000000E+00 0. -1.
</event>
<event>
 7    1  0.4236733E-010  0.4778727E+02  0.7816164E-02  0.1312668E+00
        -11   -1    0    0    0    0  0.00000000000E+00  0.00000000000E+00  0.45593999997E+02  0.45594000000E+02  0.51100000000E-03 0.  1.
         11   -1    0    0    0    0 -0.00000000000E+00 -0.00000000000E+00 -0.45593999997E+02  0.45594000000E+02  0.51100000000E-03 0. -1.
    9900012    2    1    2    0    0 -0.62662325778E+01 -0.18183918947E+02 -0.38906336170E+02  0.47787267596E+02  0.19999984279E+02 0.  0.
        -12    1    1    2    0    0  0.62662325778E+01  0.18183918947E+02  0.38906336170E+02  0.43400732404E+02  0.00000000000E+00 0.  1.
         11    1    3    3    0    0 -0.11216988574E+02 -0.15891055946E+02 -0.31759648851E+02  0.37242741402E+02  0.51100000000E-03 0. -1.
        -11    1    3    3    0    0  0.14329868867E+01 -0.34306782368E+01 -0.20426405893E+01  0.42420968187E+01  0.51100000000E-03 0.  1.
         12    1    3    3    0    0  0.35177691090E+01  0.11378152359E+01 -0.51040467300E+01  0.63024293758E+01  0.00000000000E+00 0. -1.
</event>
<event>
 7    1  0.4236733E-010  0.4778727E+02  0.7816164E-02  0.1312668E+00
        -11   -1    0    0    0    0  0.00000000000E+00  0.00000000000E+00  0.45593999997E+02  0.45594000000E+02  0.51100000000E-03 0. -1.
         11   -1    0    0    0    0 -0.00000000000E+00 -0.00000000000E+00 -0.45593999997E+02  0.45594000000E+02  0.51100000000E-03 0.  1.
    9900012    2    1    2    0    0  0.16836402681E+02  0.34370198881E+01  0.39854054841E+02  0.47787271340E+02  0.20000001350E+02 0.  0.
        -12    1    1    2    0    0 -0.16836402681E+02 -0.34370198881E+01 -0.39854054841E+02  0.43400728660E+02  0.00000000000E+00 0.  1.
         11    1    3    3    0    0  0.15858005704E+01 -0.31728857819E+01  0.17952465076E+02  0.18299534699E+02  0.51100000000E-03 0. -1.
        -11    1    3    3    0    0 -0.10185005488E+00  0.11627531726E+01  0.79633399366E+01  0.80484254101E+01  0.51100000000E-03 0.  1.
        -12    1    3    3    0    0  0.15352452165E+02  0.54471524974E+01  0.13938249828E+02  0.21439311232E+02  0.00000000000E+00 0.  1.
</event>
<event>
 7    1  0.4236733E-010  0.4778727E+02  0.7816164E-02  0.1312668E+00
        -11   -1    0    0    0    0  0.00000000000E+00  0.00000000000E+00  0.45593999997E+02  0.45594000000E+02  0.51100000000E-03 0. -1.
         11   -1    0    0    0    0 -0.00000000000E+00 -0.00000000000E+00 -0.45593999997E+02  0.45594000000E+02  0.51100000000E-03 0.  1.
    9900012    2    1    2    0    0  0.12985405127E+02 -0.36892479271E+01  0.41247936561E+02  0.47787267666E+02  0.19999984597E+02 0.  0.
        -12    1    1    2    0    0 -0.12985405127E+02  0.36892479271E+01 -0.41247936561E+02  0.43400732334E+02  0.00000000000E+00 0.  1.
         11    1    3    3    0    0  0.10421016256E+02  0.11956400087E+01  0.27094020894E+02  0.29053624616E+02  0.51100000000E-03 0. -1.
        -11    1    3    3    0    0  0.54093333998E+01 -0.21276933766E+00  0.11376373300E+02  0.12598731220E+02  0.51100000000E-03 0.  1.
        -12    1    3    3    0    0 -0.28449445292E+01 -0.46721185982E+01  0.27775423668E+01  0.61349118306E+01  0.00000000000E+00 0.  1.
</event>
<event>
 7    1  0.4236733E-010  0.4778727E+02  0.7816164E-02  0.1312668E+00
        -11   -1    0    0    0    0  0.00000000000E+00  0.00000000000E+00  0.45593999997E+02  0.45594000000E+02  0.51100000000E-03 0.  1.
         11   -1    0    0    0    0 -0.00000000000E+00 -0.00000000000E+00 -0.45593999997E+02  0.45594000000E+02  0.51100000000E-03 0. -1.
    9900012    2    1    2    0    0  0.45273314617E+01  0.73715120162E+01 -0.42529840629E+02  0.47787271164E+02  0.20000000545E+02 0.  0.
        -12    1    1    2    0    0 -0.45273314617E+01 -0.73715120162E+01  0.42529840629E+02  0.43400728836E+02  0.00000000000E+00 0.  1.
         11    1    3    3    0    0  0.18588050278E+01  0.61060761287E+01 -0.33665847745E+02  0.34265560355E+02  0.51100000000E-03 0. -1.
        -11    1    3    3    0    0  0.63124398664E+00  0.32725644100E+01 -0.99262891865E+01  0.10470881723E+02  0.51100000000E-03 0.  1.
        -12    1    3    3    0    0  0.20372824472E+01 -0.20071285226E+01  0.10622963022E+01  0.30508290856E+01  0.00000000000E+00 0.  1.
</event>
<event>
 7    1  0.4236733E-010  0.4778727E+02  0.7816164E-02  0.1312668E+00
        -11   -1    0    0    0    0  0.00000000000E+00  0.00000000000E+00  0.45593999997E+02  0.45594000000E+02  0.51100000000E-03 0. -1.
         11   -1    0    0    0    0 -0.00000000000E+00 -0.00000000000E+00 -0.45593999997E+02  0.45594000000E+02  0.51100000000E-03 0.  1.
    9900012    2    1    2    0    0  0.30815078755E+02 -0.13712512002E+02  0.27313385201E+02  0.47787273333E+02  0.20000010432E+02 0.  0.
        -12    1    1    2    0    0 -0.30815078755E+02  0.13712512002E+02 -0.27313385201E+02  0.43400726667E+02  0.00000000000E+00 0.  1.
         11    1    3    3    0    0  0.29607996262E+01 -0.48473706875E+01  0.13759935096E+02  0.14886206741E+02  0.51100000000E-03 0. -1.
        -11    1    3    3    0    0  0.37535280276E+01 -0.38209063897E+01  0.25024936148E+01  0.59119178653E+01  0.51100000000E-03 0.  1.
        -12    1    3    3    0    0  0.24100751102E+02 -0.50442349246E+01  0.11050956490E+02  0.26989148727E+02  0.00000000000E+00 0.  1.
</event>
<event>
 7    1  0.4236733E-010  0.4778727E+02  0.7816164E-02  0.1312668E+00
        -11   -1    0    0    0    0  0.00000000000E+00  0.00000000000E+00  0.45593999997E+02  0.45594000000E+02  0.51100000000E-03 0.  1.
         11   -1    0    0    0    0 -0.00000000000E+00 -0.00000000000E+00 -0.45593999997E+02  0.45594000000E+02  0.51100000000E-03 0. -1.
    9900012    2    1    2    0    0  0.12614167207E+02 -0.20611449487E+02 -0.36050994126E+02  0.47787271415E+02  0.20000001687E+02 0.  0.
        -12    1    1    2    0    0 -0.12614167207E+02  0.20611449487E+02  0.36050994126E+02  0.43400728585E+02  0.00000000000E+00 0.  1.
         11    1    3    3    0    0  0.24710300479E+01 -0.11150151188E+02 -0.12956038913E+02  0.17271097406E+02  0.51100000000E-03 0. -1.
        -11    1    3    3    0    0 -0.34612286964E+01 -0.35934679472E+01 -0.43215266469E+01  0.66006597244E+01  0.51100000000E-03 0.  1.
        -12    1    3    3    0    0  0.13604365856E+02 -0.58678303519E+01 -0.18773428566E+02  0.23915514285E+02  0.00000000000E+00 0.  1.
</event>
<event>
 7    1  0.4236733E-010  0.4778726E+02  0.7816164E-02  0.1312668E+00
        -11   -1    0    0    0    0  0.00000000000E+00  0.00000000000E+00  0.45593999997E+02  0.45594000000E+02  0.51100000000E-03 0. -1.
         11   -1    0    0    0    0 -0.00000000000E+00 -0.00000000000E+00 -0.45593999997E+02  0.45594000000E+02  0.51100000000E-03 0.  1.
    9900012    2    1    2    0    0 -0.29068570581E+02 -0.26123667825E+02  0.18873158622E+02  0.47787263455E+02  0.19999965398E+02 0.  0.
        -12    1    1    2    0    0  0.29068570581E+02  0.26123667825E+02 -0.18873158622E+02  0.43400736545E+02  0.00000000000E+00 0.  1.
         11    1    3    3    0    0 -0.10864532446E+02 -0.19585454162E+02  0.16082280081E+02  0.27572954373E+02  0.51100000000E-03 0. -1.
        -11    1    3    3    0    0 -0.35198052608E+01 -0.35504985707E+01  0.17473953041E+00  0.50025596787E+01  0.51100000000E-03 0.  1.
        -12    1    3    3    0    0 -0.14684232875E+02 -0.29877150921E+01  0.26161390105E+01  0.15211749404E+02  0.00000000000E+00 0.  1.
</event>
<event>
 7    1  0.4236733E-010  0.4778727E+02  0.7816164E-02  0.1312668E+00
        -11   -1    0    0    0    0  0.00000000000E+00  0.00000000000E+00  0.45593999997E+02  0.45594000000E+02  0.51100000000E-03 0.  1.
         11   -1    0    0    0    0 -0.00000000000E+00 -0.00000000000E+00 -0.45593999997E+02  0.45594000000E+02  0.51100000000E-03 0. -1.
    9900012    2    1    2    0    0  0.13645879274E+02 -0.34444603476E+02 -0.22604920792E+02  0.47787272197E+02  0.20000005257E+02 0.  0.
        -12    1    1    2    0    0 -0.13645879274E+02  0.34444603476E+02  0.22604920792E+02  0.43400727803E+02  0.00000000000E+00 0.  1.
         11    1    3    3    0    0  0.58380254734E+01 -0.20424856874E+02 -0.70819939009E+01  0.22392229849E+02  0.51100000000E-03 0. -1.
        -11    1    3    3    0    0  0.97510709261E+01 -0.79513957811E+01 -0.60061429295E+01  0.13942088517E+02  0.51100000000E-03 0.  1.
        -12    1    3    3    0    0 -0.19432171256E+01 -0.60683508211E+01 -0.95167839616E+01  0.11452953831E+02  0.00000000000E+00 0.  1.
</event>
<event>
 7    1  0.4236733E-010  0.4778727E+02  0.7816164E-02  0.1312668E+00
        -11   -1    0    0    0    0  0.00000000000E+00  0.00000000000E+00  0.45593999997E+02  0.45594000000E+02  0.51100000000E-03 0.  1.
         11   -1    0    0    0    0 -0.00000000000E+00 -0.00000000000E+00 -0.45593999997E+02  0.45594000000E+02  0.51100000000E-03 0. -1.
    9900012    2    1    2    0    0  0.36548168223E+01  0.24040809641E+02 -0.35948648501E+02  0.47787267941E+02  0.19999985852E+02 0.  0.
        -12    1    1    2    0    0 -0.36548168223E+01 -0.24040809641E+02  0.35948648501E+02  0.43400732059E+02  0.00000000000E+00 0.  1.
         11    1    3    3    0    0 -0.50290285654E+01  0.87930151127E+01 -0.14967869391E+02  0.18073332771E+02  0.51100000000E-03 0. -1.
        -11    1    3    3    0    0  0.40888459887E+01  0.51662670454E+01 -0.72787998739E+00  0.66286338141E+01  0.51100000000E-03 0.  1.
         12    1    3    3    0    0  0.45949993990E+01  0.10081527483E+02 -0.20252899122E+02  0.23085301357E+02  0.00000000000E+00 0. -1.
</event>
<event>
 7    1  0.4236733E-010  0.4778727E+02  0.7816164E-02  0.1312668E+00
        -11   -1    0    0    0    0  0.00000000000E+00  0.00000000000E+00  0.45593999997E+02  0.45594000000E+02  0.51100000000E-03 0.  1.
         11   -1    0    0    0    0 -0.00000000000E+00 -0.00000000000E+00 -0.45593999997E+02  0.45594000000E+02  0.51100000000E-03 0. -1.
    9900012    2    1    2    0    0  0.60336372148E+01 -0.19212983161E+02 -0.38445806619E+02  0.47787267903E+02  0.19999985677E+02 0.  0.
        -12    1    1    2    0    0 -0.60336372148E+01  0.19212983161E+02  0.38445806619E+02  0.43400732097E+02  0.00000000000E+00 0.  1.
         11    1    3    3    0    0  0.10980735430E+01  0.32163900153E+00 -0.25367541849E+01  0.27828652876E+01  0.51100000000E-03 0. -1.
        -11    1    3    3    0    0  0.88547994475E+01 -0.27727887892E+01 -0.81957142366E+01  0.12380046972E+02  0.51100000000E-03 0.  1.
         12    1    3    3    0    0 -0.39192357756E+01 -0.16761833373E+02 -0.27713338197E+02  0.32624355643E+02  0.00000000000E+00 0. -1.
</event>
<event>
 7    1  0.4236733E-010  0.4778726E+02  0.7816164E-02  0.1312668E+00
        -11   -1    0    0    0    0  0.00000000000E+00  0.00000000000E+00  0.45593999997E+02  0.45594000000E+02  0.51100000000E-03 0.  1.
         11   -1    0    0    0    0 -0.00000000000E+00 -0.00000000000E+00 -0.45593999997E+02  0.45594000000E+02  0.51100000000E-03 0. -1.
    9900012    2    1    2    0    0 -0.32212735127E+00 -0.36268672352E+01 -0.43247735582E+02  0.47787256170E+02  0.19999932184E+02 0.  0.
        -12    1    1    2    0    0  0.32212735127E+00  0.36268672352E+01  0.43247735582E+02  0.43400743830E+02  0.00000000000E+00 0.  1.
         11    1    3    3    0    0  0.17519857256E+01 -0.13853275033E+01 -0.60762257380E+01  0.64737242569E+01  0.51100000000E-03 0. -1.
        -11    1    3    3    0    0 -0.55143084677E+00  0.24312761159E+00  0.19718294163E+01  0.20618677267E+01  0.51100000000E-03 0.  1.
         12    1    3    3    0    0 -0.15226822301E+01 -0.24846673435E+01 -0.39143339260E+02  0.39251664187E+02  0.00000000000E+00 0. -1.
</event>
<event>
 7    1  0.4236733E-010  0.4778727E+02  0.7816164E-02  0.1312668E+00
        -11   -1    0    0    0    0  0.00000000000E+00  0.00000000000E+00  0.45593999997E+02  0.45594000000E+02  0.51100000000E-03 0.  1.
         11   -1    0    0    0    0 -0.00000000000E+00 -0.00000000000E+00 -0.45593999997E+02  0.45594000000E+02  0.51100000000E-03 0. -1.
    9900012    2    1    2    0    0 -0.39729536429E+02 -0.95906203686E+01 -0.14601629916E+02  0.47787266594E+02  0.19999979710E+02 0.  0.
        -12    1    1    2    0    0  0.39729536429E+02  0.95906203686E+01  0.14601629916E+02  0.43400733406E+02  0.00000000000E+00 0.  1.
         11    1    3    3    0    0 -0.12991027087E+02 -0.68091330845E+01 -0.71796183991E+01  0.16330278588E+02  0.51100000000E-03 0. -1.
        -11    1    3    3    0    0 -0.64927901029E+01 -0.73240402306E+01 -0.17083889718E+01  0.99356168284E+01  0.51100000000E-03 0.  1.
         12    1    3    3    0    0 -0.20245719239E+02  0.45425529465E+01 -0.57136225455E+01  0.21521371178E+02  0.00000000000E+00 0. -1.
</event>
<event>
 7    1  0.4236733E-010  0.4778729E+02  0.7816164E-02  0.1312668E+00
        -11   -1    0    0    0    0  0.00000000000E+00  0.00000000000E+00  0.45593999997E+02  0.45594000000E+02  0.51100000000E-03 0. -1.
         11   -1    0    0    0    0 -0.00000000000E+00 -0.00000000000E+00 -0.45593999997E+02  0.45594000000E+02  0.51100000000E-03 0.  1.
    9900012    2    1    2    0    0  0.36641246514E+02  0.36364124099E+01  0.22974273980E+02  0.47787289104E+02  0.20000082343E+02 0.  0.
        -12    1    1    2    0    0 -0.36641246514E+02 -0.36364124099E+01 -0.22974273980E+02  0.43400710896E+02  0.00000000000E+00 0.  1.
         11    1    3    3    0    0  0.20705635245E+02  0.22573121211E+01  0.98673065684E+01  0.23047397425E+02  0.51100000000E-03 0. -1.
        -11    1    3    3    0    0  0.10649633904E+02  0.23397080330E+01  0.36290847198E+00  0.10909658051E+02  0.51100000000E-03 0.  1.
        -12    1    3    3    0    0  0.52859773650E+01 -0.96060774420E+00  0.12744058940E+02  0.13830233628E+02  0.00000000000E+00 0.  1.
</event>
<event>
 7    1  0.4236733E-010  0.4778727E+02  0.7816164E-02  0.1312668E+00
        -11   -1    0    0    0    0  0.00000000000E+00  0.00000000000E+00  0.45593999997E+02  0.45594000000E+02  0.51100000000E-03 0. -1.
         11   -1    0    0    0    0 -0.00000000000E+00 -0.00000000000E+00 -0.45593999997E+02  0.45594000000E+02  0.51100000000E-03 0.  1.
    9900012    2    1    2    0    0 -0.97318930288E+00 -0.75287652070E+01  0.42731646045E+02  0.47787274468E+02  0.20000015611E+02 0.  0.
        -12    1    1    2    0    0  0.97318930288E+00  0.75287652070E+01 -0.42731646045E+02  0.43400725532E+02  0.00000000000E+00 0.  1.
         11    1    3    3    0    0  0.43777227401E+01 -0.13296839331E+01  0.31589963571E+02  0.31919560060E+02  0.51100000000E-03 0. -1.
        -11    1    3    3    0    0 -0.14712887367E+01  0.18494371943E+01  0.23507646071E+01  0.33333471138E+01  0.51100000000E-03 0.  1.
         12    1    3    3    0    0 -0.38796233063E+01 -0.80485184682E+01  0.87909178670E+01  0.12534367295E+02  0.00000000000E+00 0. -1.
</event>
<event>
 7    1  0.4236733E-010  0.4778728E+02  0.7816164E-02  0.1312668E+00
        -11   -1    0    0    0    0  0.00000000000E+00  0.00000000000E+00  0.45593999997E+02  0.45594000000E+02  0.51100000000E-03 0. -1.
         11   -1    0    0    0    0 -0.00000000000E+00 -0.00000000000E+00 -0.45593999997E+02  0.45594000000E+02  0.51100000000E-03 0.  1.
    9900012    2    1    2    0    0  0.15296551252E+02 -0.40510890597E+02  0.29165321144E+01  0.47787275389E+02  0.20000019809E+02 0.  0.
        -12    1    1    2    0    0 -0.15296551252E+02  0.40510890597E+02 -0.29165321144E+01  0.43400724611E+02  0.00000000000E+00 0.  1.
         11    1    3    3    0    0  0.66122863686E+01 -0.14066709875E+02  0.78359723605E+00  0.15563055054E+02  0.51100000000E-03 0. -1.
        -11    1    3    3    0    0  0.71939839116E+01 -0.21321494115E+02  0.83772137325E+01  0.24011189600E+02  0.51100000000E-03 0.  1.
        -12    1    3    3    0    0  0.14902809716E+01 -0.51226866070E+01 -0.62442788542E+01  0.82130307351E+01  0.00000000000E+00 0.  1.
</event>
<event>
 7    1  0.4236733E-010  0.4778727E+02  0.7816164E-02  0.1312668E+00
        -11   -1    0    0    0    0  0.00000000000E+00  0.00000000000E+00  0.45593999997E+02  0.45594000000E+02  0.51100000000E-03 0.  1.
         11   -1    0    0    0    0 -0.00000000000E+00 -0.00000000000E+00 -0.45593999997E+02  0.45594000000E+02  0.51100000000E-03 0. -1.
    9900012    2    1    2    0    0  0.21034991749E+02 -0.18348542095E+02 -0.33233766076E+02  0.47787273249E+02  0.20000010053E+02 0.  0.
        -12    1    1    2    0    0 -0.21034991749E+02  0.18348542095E+02  0.33233766076E+02  0.43400726751E+02  0.00000000000E+00 0.  1.
         11    1    3    3    0    0  0.12800316720E+01 -0.70843647233E+00 -0.13066528326E+02  0.13148175770E+02  0.51100000000E-03 0. -1.
        -11    1    3    3    0    0  0.76005871056E+00  0.93819286963E+00  0.11462091032E+00  0.12128616237E+01  0.51100000000E-03 0.  1.
         12    1    3    3    0    0  0.18994901366E+02 -0.18578298492E+02 -0.20281858660E+02  0.33426235856E+02  0.00000000000E+00 0. -1.
</event>
<event>
 7    1  0.4236733E-010  0.4778727E+02  0.7816164E-02  0.1312668E+00
        -11   -1    0    0    0    0  0.00000000000E+00  0.00000000000E+00  0.45593999997E+02  0.45594000000E+02  0.51100000000E-03 0. -1.
         11   -1    0    0    0    0 -0.00000000000E+00 -0.00000000000E+00 -0.45593999997E+02  0.45594000000E+02  0.51100000000E-03 0.  1.
    9900012    2    1    2    0    0 -0.26620352412E+02 -0.51682684129E+01  0.33886118746E+02  0.47787271843E+02  0.20000003641E+02 0.  0.
        -12    1    1    2    0    0  0.26620352412E+02  0.51682684129E+01 -0.33886118746E+02  0.43400728157E+02  0.00000000000E+00 0.  1.
         11    1    3    3    0    0 -0.45714081868E-01 -0.13807027637E+01 -0.62327965129E+00  0.15155552394E+01  0.51100000000E-03 0.  1.
        -11    1    3    3    0    0 -0.19592293555E+02  0.27938171896E+01  0.16101601279E+02  0.25513230788E+02  0.51100000000E-03 0. -1.
         12    1    3    3    0    0 -0.69823447748E+01 -0.65813828388E+01  0.18407797118E+02  0.20758485815E+02  0.00000000000E+00 0. -1.
</event>
<event>
 7    1  0.4236733E-010  0.4778727E+02  0.7816164E-02  0.1312668E+00
        -11   -1    0    0    0    0  0.00000000000E+00  0.00000000000E+00  0.45593999997E+02  0.45594000000E+02  0.51100000000E-03 0.  1.
         11   -1    0    0    0    0 -0.00000000000E+00 -0.00000000000E+00 -0.45593999997E+02  0.45594000000E+02  0.51100000000E-03 0. -1.
    9900012    2    1    2    0    0  0.24937726022E+02 -0.34719801386E+02 -0.75012396385E+01  0.47787269781E+02  0.19999994240E+02 0.  0.
        -12    1    1    2    0    0 -0.24937726022E+02  0.34719801386E+02  0.75012396385E+01  0.43400730219E+02  0.00000000000E+00 0.  1.
         11    1    3    3    0    0  0.13189775021E+02 -0.23627937180E+02 -0.31909869585E+01  0.27247605005E+02  0.51100000000E-03 0. -1.
        -11    1    3    3    0    0  0.73498797341E+00 -0.87820518191E+01 -0.23126633370E+01  0.91111499519E+01  0.51100000000E-03 0.  1.
         12    1    3    3    0    0  0.11012963028E+02 -0.23098123874E+01 -0.19975893429E+01  0.11428514825E+02  0.00000000000E+00 0. -1.
</event>
<event>
 7    1  0.4236733E-010  0.4778727E+02  0.7816164E-02  0.1312668E+00
        -11   -1    0    0    0    0  0.00000000000E+00  0.00000000000E+00  0.45593999997E+02  0.45594000000E+02  0.51100000000E-03 0. -1.
         11   -1    0    0    0    0 -0.00000000000E+00 -0.00000000000E+00 -0.45593999997E+02  0.45594000000E+02  0.51100000000E-03 0.  1.
    9900012    2    1    2    0    0  0.33858004565E+02  0.26183157275E+02 -0.71903494851E+01  0.47787270470E+02  0.19999997382E+02 0.  0.
        -12    1    1    2    0    0 -0.33858004565E+02 -0.26183157275E+02  0.71903494851E+01  0.43400729530E+02  0.00000000000E+00 0.  1.
         11    1    3    3    0    0  0.36765983088E+01 -0.14145757277E+01 -0.96479825564E+00  0.40557657167E+01  0.51100000000E-03 0. -1.
        -11    1    3    3    0    0  0.15890655711E+01 -0.11311439859E+01 -0.22906672992E+01  0.30086164666E+01  0.51100000000E-03 0.  1.
         12    1    3    3    0    0  0.28592340685E+02  0.28728876989E+02 -0.39348839302E+01  0.40722888287E+02  0.00000000000E+00 0. -1.
</event>
<event>
 7    1  0.4236733E-010  0.4778727E+02  0.7816164E-02  0.1312668E+00
        -11   -1    0    0    0    0  0.00000000000E+00  0.00000000000E+00  0.45593999997E+02  0.45594000000E+02  0.51100000000E-03 0.  1.
         11   -1    0    0    0    0 -0.00000000000E+00 -0.00000000000E+00 -0.45593999997E+02  0.45594000000E+02  0.51100000000E-03 0. -1.
    9900012    2    1    2    0    0  0.36664936457E+02 -0.19735874869E+02 -0.12239323382E+02  0.47787270063E+02  0.19999995524E+02 0.  0.
        -12    1    1    2    0    0 -0.36664936457E+02  0.19735874869E+02  0.12239323382E+02  0.43400729937E+02  0.00000000000E+00 0.  1.
         11    1    3    3    0    0  0.23165490856E+02 -0.83428401344E+01 -0.99398145216E+01  0.26552643204E+02  0.51100000000E-03 0. -1.
        -11    1    3    3    0    0  0.12814966744E+02 -0.38159622739E+01 -0.25968728424E+01  0.13620891658E+02  0.51100000000E-03 0.  1.
        -12    1    3    3    0    0  0.68447885678E+00 -0.75770724605E+01  0.29736398222E+00  0.76137352012E+01  0.00000000000E+00 0.  1.
</event>
<event>
 7    1  0.4236733E-010  0.4778726E+02  0.7816164E-02  0.1312668E+00
        -11   -1    0    0    0    0  0.00000000000E+00  0.00000000000E+00  0.45593999997E+02  0.45594000000E+02  0.51100000000E-03 0.  1.
         11   -1    0    0    0    0 -0.00000000000E+00 -0.00000000000E+00 -0.45593999997E+02  0.45594000000E+02  0.51100000000E-03 0. -1.
    9900012    2    1    2    0    0  0.15689608623E+02  0.22608524763E+02 -0.33560613308E+02  0.47787262952E+02  0.19999963104E+02 0.  0.
        -12    1    1    2    0    0 -0.15689608623E+02 -0.22608524763E+02  0.33560613308E+02  0.43400737048E+02  0.00000000000E+00 0.  1.
         11    1    3    3    0    0 -0.63938921752E+00 -0.66448047192E+00  0.57741857287E+00  0.10880098062E+01  0.51100000000E-03 0. -1.
        -11    1    3    3    0    0 -0.95127532500E+00 -0.14127548189E+01 -0.14011237457E+01  0.22054362231E+01  0.51100000000E-03 0.  1.
         12    1    3    3    0    0  0.17280273166E+02  0.24685760054E+02 -0.32736908135E+02  0.44493816923E+02  0.00000000000E+00 0. -1.
</event>
<event>
 7    1  0.4236733E-010  0.4778727E+02  0.7816164E-02  0.1312668E+00
        -11   -1    0    0    0    0  0.00000000000E+00  0.00000000000E+00  0.45593999997E+02  0.45594000000E+02  0.51100000000E-03 0.  1.
         11   -1    0    0    0    0 -0.00000000000E+00 -0.00000000000E+00 -0.45593999997E+02  0.45594000000E+02  0.51100000000E-03 0. -1.
    9900012    2    1    2    0    0 -0.73152573647E+01 -0.17116304851E+02 -0.39206409529E+02  0.47787269243E+02  0.19999991785E+02 0.  0.
        -12    1    1    2    0    0  0.73152573647E+01  0.17116304851E+02  0.39206409529E+02  0.43400730757E+02  0.00000000000E+00 0.  1.
         11    1    3    3    0    0 -0.22766237337E+01  0.27140521780E+01 -0.16711142429E+01  0.39168505108E+01  0.51100000000E-03 0. -1.
        -11    1    3    3    0    0 -0.23761730362E+01 -0.76392194749E+01 -0.61358456640E+01  0.10082285195E+02  0.51100000000E-03 0.  1.
         12    1    3    3    0    0 -0.26624605948E+01 -0.12191137554E+02 -0.31399449623E+02  0.33788133537E+02  0.00000000000E+00 0. -1.
</event>
<event>
 7    1  0.4236733E-010  0.4778728E+02  0.7816164E-02  0.1312668E+00
        -11   -1    0    0    0    0  0.00000000000E+00  0.00000000000E+00  0.45593999997E+02  0.45594000000E+02  0.51100000000E-03 0.  1.
         11   -1    0    0    0    0 -0.00000000000E+00 -0.00000000000E+00 -0.45593999997E+02  0.45594000000E+02  0.51100000000E-03 0. -1.
    9900012    2    1    2    0    0  0.18691254567E+02 -0.38370092444E+02 -0.78737153702E+01  0.47787281283E+02  0.20000046680E+02 0.  0.
        -12    1    1    2    0    0 -0.18691254567E+02  0.38370092444E+02  0.78737153702E+01  0.43400718717E+02  0.00000000000E+00 0.  1.
         11    1    3    3    0    0 -0.12347774441E+01 -0.37846700287E+01  0.26550304696E+01  0.47851425913E+01  0.51100000000E-03 0.  1.
        -11    1    3    3    0    0  0.11531074436E+02 -0.15847504876E+02  0.67784377897E+00  0.19610419702E+02  0.51100000000E-03 0. -1.
         12    1    3    3    0    0  0.83949575752E+01 -0.18737917539E+02 -0.11206589619E+02  0.23391718989E+02  0.00000000000E+00 0. -1.
</event>
<event>
 7    1  0.4236733E-010  0.4778724E+02  0.7816164E-02  0.1312668E+00
        -11   -1    0    0    0    0  0.00000000000E+00  0.00000000000E+00  0.45593999997E+02  0.45594000000E+02  0.51100000000E-03 0. -1.
         11   -1    0    0    0    0 -0.00000000000E+00 -0.00000000000E+00 -0.45593999997E+02  0.45594000000E+02  0.51100000000E-03 0.  1.
    9900012    2    1    2    0    0 -0.14844242616E+02 -0.25167606596E+02  0.32091530994E+02  0.47787235927E+02  0.19999839886E+02 0.  0.
        -12    1    1    2    0    0  0.14844242616E+02  0.25167606596E+02 -0.32091530994E+02  0.43400764073E+02  0.00000000000E+00 0.  1.
         11    1    3    3    0    0 -0.70355894639E+01 -0.75568829815E+01  0.24308772606E+02  0.26410649847E+02  0.51100000000E-03 0. -1.
        -11    1    3    3    0    0  0.65069426241E+00 -0.15681795658E+01  0.16630618713E+00  0.17059449530E+01  0.51100000000E-03 0.  1.
         12    1    3    3    0    0 -0.84593474143E+01 -0.16042544048E+02  0.76164522009E+01  0.19670641127E+02  0.00000000000E+00 0. -1.
</event>
<event>
 7    1  0.4236733E-010  0.4778727E+02  0.7816164E-02  0.1312668E+00
        -11   -1    0    0    0    0  0.00000000000E+00  0.00000000000E+00  0.45593999997E+02  0.45594000000E+02  0.51100000000E-03 0.  1.
         11   -1    0    0    0    0 -0.00000000000E+00 -0.00000000000E+00 -0.45593999997E+02  0.45594000000E+02  0.51100000000E-03 0. -1.
    9900012    2    1    2    0    0  0.12756935250E+02  0.25426362810E+01 -0.41405543971E+02  0.47787268811E+02  0.19999989817E+02 0.  0.
        -12    1    1    2    0    0 -0.12756935250E+02 -0.25426362810E+01  0.41405543971E+02  0.43400731189E+02  0.00000000000E+00 0.  1.
         11    1    3    3    0    0  0.23270615154E+00  0.44104391009E+01 -0.13548621616E+02  0.14250307827E+02  0.51100000000E-03 0. -1.
        -11    1    3    3    0    0  0.39021864252E+01 -0.46332464853E+01 -0.21842210720E+02  0.22666631891E+02  0.51100000000E-03 0.  1.
         12    1    3    3    0    0  0.86220426735E+01  0.27654436654E+01 -0.60147116345E+01  0.10870329092E+02  0.00000000000E+00 0. -1.
</event>
<event>
 7    1  0.4236733E-010  0.4778727E+02  0.7816164E-02  0.1312668E+00
        -11   -1    0    0    0    0  0.00000000000E+00  0.00000000000E+00  0.45593999997E+02  0.45594000000E+02  0.51100000000E-03 0.  1.
         11   -1    0    0    0    0 -0.00000000000E+00 -0.00000000000E+00 -0.45593999997E+02  0.45594000000E+02  0.51100000000E-03 0. -1.
    9900012    2    1    2    0    0  0.18252083892E+02 -0.35421833883E+02 -0.17198209358E+02  0.47787270891E+02  0.19999999302E+02 0.  0.
        -12    1    1    2    0    0 -0.18252083892E+02  0.35421833883E+02  0.17198209358E+02  0.43400729109E+02  0.00000000000E+00 0.  1.
         11    1    3    3    0    0 -0.19813696818E+01 -0.48045704756E+01  0.56098865628E+00  0.52272776667E+01  0.51100000000E-03 0.  1.
        -11    1    3    3    0    0  0.55740174382E+01 -0.18048561301E+01 -0.53459558742E+01  0.79313567895E+01  0.51100000000E-03 0. -1.
         12    1    3    3    0    0  0.14659436136E+02 -0.28812407277E+02 -0.12413242140E+02  0.34628636435E+02  0.00000000000E+00 0. -1.
</event>
<event>
 7    1  0.4236733E-010  0.4778727E+02  0.7816164E-02  0.1312668E+00
        -11   -1    0    0    0    0  0.00000000000E+00  0.00000000000E+00  0.45593999997E+02  0.45594000000E+02  0.51100000000E-03 0. -1.
         11   -1    0    0    0    0 -0.00000000000E+00 -0.00000000000E+00 -0.45593999997E+02  0.45594000000E+02  0.51100000000E-03 0.  1.
    9900012    2    1    2    0    0  0.33945597285E+01 -0.36815281896E+02  0.22731814971E+02  0.47787269261E+02  0.19999991866E+02 0.  0.
        -12    1    1    2    0    0 -0.33945597285E+01  0.36815281896E+02 -0.22731814971E+02  0.43400730739E+02  0.00000000000E+00 0.  1.
         11    1    3    3    0    0 -0.73709770019E+01 -0.22639594282E+02  0.96303772135E+01  0.25683198725E+02  0.51100000000E-03 0. -1.
        -11    1    3    3    0    0  0.13954672476E+01 -0.17223183714E+01  0.17246592253E+01  0.28085866759E+01  0.51100000000E-03 0.  1.
         12    1    3    3    0    0  0.93700694828E+01 -0.12453369243E+02  0.11376778532E+02  0.19295483860E+02  0.00000000000E+00 0. -1.
</event>
<event>
 7    1  0.4236733E-010  0.4778729E+02  0.7816164E-02  0.1312668E+00
        -11   -1    0    0    0    0  0.00000000000E+00  0.00000000000E+00  0.45593999997E+02  0.45594000000E+02  0.51100000000E-03 0.  1.
         11   -1    0    0    0    0 -0.00000000000E+00 -0.00000000000E+00 -0.45593999997E+02  0.45594000000E+02  0.51100000000E-03 0. -1.
    9900012    2    1    2    0    0 -0.97876915824E+01  0.31125154699E+02 -0.28619002435E+02  0.47787291919E+02  0.20000095176E+02 0.  0.
        -12    1    1    2    0    0  0.97876915824E+01 -0.31125154699E+02  0.28619002435E+02  0.43400708081E+02  0.00000000000E+00 0.  1.
         11    1    3    3    0    0 -0.44034672475E+01  0.12239890665E+02 -0.16640050472E+02  0.21121002042E+02  0.51100000000E-03 0. -1.
        -11    1    3    3    0    0 -0.73708531194E+01  0.12040317539E+02 -0.13325174030E+02  0.19412856187E+02  0.51100000000E-03 0.  1.
        -12    1    3    3    0    0  0.19866287845E+01  0.68449464945E+01  0.13462220670E+01  0.72534336899E+01  0.00000000000E+00 0.  1.
</event>
<event>
 7    1  0.4236733E-010  0.4778723E+02  0.7816164E-02  0.1312668E+00
        -11   -1    0    0    0    0  0.00000000000E+00  0.00000000000E+00  0.45593999997E+02  0.45594000000E+02  0.51100000000E-03 0.  1.
         11   -1    0    0    0    0 -0.00000000000E+00 -0.00000000000E+00 -0.45593999997E+02  0.45594000000E+02  0.51100000000E-03 0. -1.
    9900012    2    1    2    0    0 -0.33588236147E+02 -0.18796797234E+02 -0.20053372531E+02  0.47787228768E+02  0.19999807242E+02 0.  0.
        -12    1    1    2    0    0  0.33588236147E+02  0.18796797234E+02  0.20053372531E+02  0.43400771232E+02  0.00000000000E+00 0.  1.
         11    1    3    3    0    0 -0.13777671164E+02 -0.43283885978E+01 -0.10046070111E+02  0.17592120267E+02  0.51100000000E-03 0. -1.
        -11    1    3    3    0    0 -0.18888109171E+02 -0.13512759516E+02 -0.34191126787E+01  0.23474361962E+02  0.51100000000E-03 0.  1.
        -12    1    3    3    0    0 -0.92245581207E+00 -0.95564912033E+00 -0.65881897407E+01  0.67207465378E+01  0.00000000000E+00 0.  1.
</event>
<event>
 7    1  0.4236733E-010  0.4778727E+02  0.7816164E-02  0.1312668E+00
        -11   -1    0    0    0    0  0.00000000000E+00  0.00000000000E+00  0.45593999997E+02  0.45594000000E+02  0.51100000000E-03 0.  1.
         11   -1    0    0    0    0 -0.00000000000E+00 -0.00000000000E+00 -0.45593999997E+02  0.45594000000E+02  0.51100000000E-03 0. -1.
    9900012    2    1    2    0    0 -0.34147423979E+01  0.34559774417E+02 -0.26030458949E+02  0.47787271129E+02  0.20000000387E+02 0.  0.
        -12    1    1    2    0    0  0.34147423979E+01 -0.34559774417E+02  0.26030458949E+02  0.43400728871E+02  0.00000000000E+00 0.  1.
         11    1    3    3    0    0  0.55983229216E+01  0.17695386434E+02 -0.13864074767E+02  0.23166365489E+02  0.51100000000E-03 0. -1.
        -11    1    3    3    0    0  0.81968466071E+00  0.47271776920E+00 -0.35139893107E+01  0.36391573433E+01  0.51100000000E-03 0.  1.
         12    1    3    3    0    0 -0.98327499802E+01  0.16391670214E+02 -0.86523948710E+01  0.20981748297E+02  0.00000000000E+00 0. -1.
</event>
<event>
 7    1  0.4236733E-010  0.4778727E+02  0.7816164E-02  0.1312668E+00
        -11   -1    0    0    0    0  0.00000000000E+00  0.00000000000E+00  0.45593999997E+02  0.45594000000E+02  0.51100000000E-03 0.  1.
         11   -1    0    0    0    0 -0.00000000000E+00 -0.00000000000E+00 -0.45593999997E+02  0.45594000000E+02  0.51100000000E-03 0. -1.
    9900012    2    1    2    0    0  0.26347287826E+01  0.39162017768E+02 -0.18520750187E+02  0.47787267069E+02  0.19999981876E+02 0.  0.
        -12    1    1    2    0    0 -0.26347287826E+01 -0.39162017768E+02  0.18520750187E+02  0.43400732931E+02  0.00000000000E+00 0.  1.
         11    1    3    3    0    0  0.18436022132E+01  0.19594810935E+02 -0.15574990482E+01  0.19742879432E+02  0.51100000000E-03 0.  1.
        -11    1    3    3    0    0 -0.53734418315E+00  0.75192832586E+01 -0.43895694479E+00  0.75512279103E+01  0.51100000000E-03 0. -1.
         12    1    3    3    0    0  0.13284707526E+01  0.12047923574E+02 -0.16524294195E+02  0.20493159727E+02  0.00000000000E+00 0. -1.
</event>
<event>
 7    1  0.4236733E-010  0.4778727E+02  0.7816164E-02  0.1312668E+00
        -11   -1    0    0    0    0  0.00000000000E+00  0.00000000000E+00  0.45593999997E+02  0.45594000000E+02  0.51100000000E-03 0.  1.
         11   -1    0    0    0    0 -0.00000000000E+00 -0.00000000000E+00 -0.45593999997E+02  0.45594000000E+02  0.51100000000E-03 0. -1.
    9900012    2    1    2    0    0 -0.26069132379E+02  0.32584215507E+02  0.11928628893E+02  0.47787274771E+02  0.20000016989E+02 0.  0.
        -12    1    1    2    0    0  0.26069132379E+02 -0.32584215507E+02 -0.11928628893E+02  0.43400725229E+02  0.00000000000E+00 0.  1.
         11    1    3    3    0    0  0.60040522700E+00  0.12390289084E+00 -0.55703938492E+00  0.82833055023E+00  0.51100000000E-03 0.  1.
        -11    1    3    3    0    0 -0.36305527196E+01  0.14815253906E+00  0.56087222478E+01  0.66828607451E+01  0.51100000000E-03 0. -1.
         12    1    3    3    0    0 -0.23038984886E+02  0.32312160077E+02  0.68769460301E+01  0.40276083475E+02  0.00000000000E+00 0. -1.
</event>
<event>
 7    1  0.4236733E-010  0.4778727E+02  0.7816164E-02  0.1312668E+00
        -11   -1    0    0    0    0  0.00000000000E+00  0.00000000000E+00  0.45593999997E+02  0.45594000000E+02  0.51100000000E-03 0.  1.
         11   -1    0    0    0    0 -0.00000000000E+00 -0.00000000000E+00 -0.45593999997E+02  0.45594000000E+02  0.51100000000E-03 0. -1.
    9900012    2    1    2    0    0 -0.20809650584E+02  0.10401797246E+02 -0.36638563088E+02  0.47787271336E+02  0.20000001330E+02 0.  0.
        -12    1    1    2    0    0  0.20809650584E+02 -0.10401797246E+02  0.36638563088E+02  0.43400728664E+02  0.00000000000E+00 0.  1.
         11    1    3    3    0    0  0.47619736706E+00  0.10065843878E+01 -0.32442546906E+01  0.34300386034E+01  0.51100000000E-03 0. -1.
        -11    1    3    3    0    0 -0.24227602211E+01 -0.45059942053E+01 -0.28370242495E+01  0.58499963864E+01  0.51100000000E-03 0.  1.
         12    1    3    3    0    0 -0.18863087730E+02  0.13901207063E+02 -0.30557284148E+02  0.38507236346E+02  0.00000000000E+00 0. -1.
</event>
<event>
 7    1  0.4236733E-010  0.4778727E+02  0.7816164E-02  0.1312668E+00
        -11   -1    0    0    0    0  0.00000000000E+00  0.00000000000E+00  0.45593999997E+02  0.45594000000E+02  0.51100000000E-03 0. -1.
         11   -1    0    0    0    0 -0.00000000000E+00 -0.00000000000E+00 -0.45593999997E+02  0.45594000000E+02  0.51100000000E-03 0.  1.
    9900012    2    1    2    0    0  0.38274370159E+02 -0.20079415746E+02 -0.39386332448E+01  0.47787272131E+02  0.20000004954E+02 0.  0.
        -12    1    1    2    0    0 -0.38274370159E+02  0.20079415746E+02  0.39386332448E+01  0.43400727869E+02  0.00000000000E+00 0.  1.
         11    1    3    3    0    0  0.38730271209E+01 -0.28478263159E+01 -0.30738086872E+01  0.57060278576E+01  0.51100000000E-03 0.  1.
        -11    1    3    3    0    0  0.30280552935E+02 -0.79880308138E+01  0.24999108028E+01  0.31416079905E+02  0.51100000000E-03 0. -1.
         12    1    3    3    0    0  0.41207901026E+01 -0.92435586159E+01 -0.33647353604E+01  0.10665164368E+02  0.00000000000E+00 0. -1.
</event>
<event>
 7    1  0.4236733E-010  0.4778727E+02  0.7816164E-02  0.1312668E+00
        -11   -1    0    0    0    0  0.00000000000E+00  0.00000000000E+00  0.45593999997E+02  0.45594000000E+02  0.51100000000E-03 0.  1.
         11   -1    0    0    0    0 -0.00000000000E+00 -0.00000000000E+00 -0.45593999997E+02  0.45594000000E+02  0.51100000000E-03 0. -1.
    9900012    2    1    2    0    0  0.12441976605E+02  0.45670364519E+01 -0.41327503838E+02  0.47787272157E+02  0.20000005074E+02 0.  0.
        -12    1    1    2    0    0 -0.12441976605E+02 -0.45670364519E+01  0.41327503838E+02  0.43400727843E+02  0.00000000000E+00 0.  1.
         11    1    3    3    0    0  0.12788252028E+02  0.29132968354E+01 -0.35148849104E+02  0.37516240243E+02  0.51100000000E-03 0. -1.
        -11    1    3    3    0    0  0.34173724367E+01 -0.73719527440E+00 -0.14886613030E+01  0.37997373567E+01  0.51100000000E-03 0.  1.
        -12    1    3    3    0    0 -0.37636478599E+01  0.23909348909E+01 -0.46899934307E+01  0.64712945572E+01  0.00000000000E+00 0.  1.
</event>
<event>
 7    1  0.4236733E-010  0.4778727E+02  0.7816164E-02  0.1312668E+00
        -11   -1    0    0    0    0  0.00000000000E+00  0.00000000000E+00  0.45593999997E+02  0.45594000000E+02  0.51100000000E-03 0.  1.
         11   -1    0    0    0    0 -0.00000000000E+00 -0.00000000000E+00 -0.45593999997E+02  0.45594000000E+02  0.51100000000E-03 0. -1.
    9900012    2    1    2    0    0 -0.20469846564E+02 -0.75154721096E+01 -0.37525008977E+02  0.47787271457E+02  0.20000001879E+02 0.  0.
        -12    1    1    2    0    0  0.20469846564E+02  0.75154721096E+01  0.37525008977E+02  0.43400728543E+02  0.00000000000E+00 0.  1.
         11    1    3    3    0    0 -0.38514795836E+01 -0.74179078885E+01 -0.71457148954E+01  0.10996385499E+02  0.51100000000E-03 0. -1.
        -11    1    3    3    0    0 -0.24023063987E+01  0.33606425520E+01 -0.14601610268E+01  0.43814455241E+01  0.51100000000E-03 0.  1.
         12    1    3    3    0    0 -0.14216060582E+02 -0.34582067731E+01 -0.28919133054E+02  0.32409440433E+02  0.00000000000E+00 0. -1.
</event>
<event>
 7    1  0.4236733E-010  0.4778727E+02  0.7816164E-02  0.1312668E+00
        -11   -1    0    0    0    0  0.00000000000E+00  0.00000000000E+00  0.45593999997E+02  0.45594000000E+02  0.51100000000E-03 0. -1.
         11   -1    0    0    0    0 -0.00000000000E+00 -0.00000000000E+00 -0.45593999997E+02  0.45594000000E+02  0.51100000000E-03 0.  1.
    9900012    2    1    2    0    0  0.32843453352E+02  0.22514880084E+02  0.17262997343E+02  0.47787270391E+02  0.19999997021E+02 0.  0.
        -12    1    1    2    0    0 -0.32843453352E+02 -0.22514880084E+02 -0.17262997343E+02  0.43400729609E+02  0.00000000000E+00 0.  1.
         11    1    3    3    0    0  0.65942206341E+01  0.20503252424E+01 -0.12051043594E+01  0.70099826069E+01  0.51100000000E-03 0. -1.
        -11    1    3    3    0    0 -0.67643977577E+00 -0.29961128299E+00 -0.12639036965E+01  0.14645103298E+01  0.51100000000E-03 0.  1.
        -12    1    3    3    0    0  0.26925672494E+02  0.20764166124E+02  0.19732005399E+02  0.39312777454E+02  0.00000000000E+00 0.  1.
</event>
<event>
 7    1  0.4236733E-010  0.4778727E+02  0.7816164E-02  0.1312668E+00
        -11   -1    0    0    0    0  0.00000000000E+00  0.00000000000E+00  0.45593999997E+02  0.45594000000E+02  0.51100000000E-03 0.  1.
         11   -1    0    0    0    0 -0.00000000000E+00 -0.00000000000E+00 -0.45593999997E+02  0.45594000000E+02  0.51100000000E-03 0. -1.
    9900012    2    1    2    0    0  0.67056170062E+01 -0.58271504631E+01 -0.42481789283E+02  0.47787269561E+02  0.19999993236E+02 0.  0.
        -12    1    1    2    0    0 -0.67056170062E+01  0.58271504631E+01  0.42481789283E+02  0.43400730439E+02  0.00000000000E+00 0.  1.
         11    1    3    3    0    0  0.22296064146E+01 -0.48656125257E+00 -0.10562423334E+02  0.10806140549E+02  0.51100000000E-03 0. -1.
        -11    1    3    3    0    0 -0.43536166936E+01 -0.72507611413E+01 -0.90227994204E+01  0.12366827608E+02  0.51100000000E-03 0.  1.
        -12    1    3    3    0    0  0.88296272853E+01  0.19101719308E+01 -0.22896566529E+02  0.24614301404E+02  0.00000000000E+00 0.  1.
</event>
<event>
 7    1  0.4236733E-010  0.4778726E+02  0.7816164E-02  0.1312668E+00
        -11   -1    0    0    0    0  0.00000000000E+00  0.00000000000E+00  0.45593999997E+02  0.45594000000E+02  0.51100000000E-03 0.  1.
         11   -1    0    0    0    0 -0.00000000000E+00 -0.00000000000E+00 -0.45593999997E+02  0.45594000000E+02  0.51100000000E-03 0. -1.
    9900012    2    1    2    0    0  0.28716168613E+02  0.32279410752E+02 -0.41286205233E+01  0.47787260309E+02  0.19999951054E+02 0.  0.
        -12    1    1    2    0    0 -0.28716168613E+02 -0.32279410752E+02  0.41286205233E+01  0.43400739691E+02  0.00000000000E+00 0.  1.
         11    1    3    3    0    0  0.11793595513E+02  0.11267934980E+02 -0.62735548442E+01  0.17476062042E+02  0.51100000000E-03 0. -1.
        -11    1    3    3    0    0 -0.47861076723E+00  0.78332778713E+01 -0.19868582026E+01  0.80954874006E+01  0.51100000000E-03 0.  1.
         12    1    3    3    0    0  0.17401183867E+02  0.13178197901E+02  0.41317925235E+01  0.22215710867E+02  0.00000000000E+00 0. -1.
</event>
<event>
 7    1  0.4236733E-010  0.4778730E+02  0.7816164E-02  0.1312668E+00
        -11   -1    0    0    0    0  0.00000000000E+00  0.00000000000E+00  0.45593999997E+02  0.45594000000E+02  0.51100000000E-03 0.  1.
         11   -1    0    0    0    0 -0.00000000000E+00 -0.00000000000E+00 -0.45593999997E+02  0.45594000000E+02  0.51100000000E-03 0. -1.
    9900012    2    1    2    0    0 -0.16470580079E+02 -0.15738116033E+02 -0.36941196874E+02  0.47787304949E+02  0.20000154584E+02 0.  0.
        -12    1    1    2    0    0  0.16470580079E+02  0.15738116033E+02  0.36941196874E+02  0.43400695051E+02  0.00000000000E+00 0.  1.
         11    1    3    3    0    0 -0.14660841387E+02 -0.16565796845E+02 -0.27292456968E+02  0.35131810413E+02  0.51100000000E-03 0. -1.
        -11    1    3    3    0    0  0.30627559005E+00 -0.34243129998E+01 -0.39202114084E+01  0.52141904458E+01  0.51100000000E-03 0.  1.
        -12    1    3    3    0    0 -0.21160142815E+01  0.42519938115E+01 -0.57285284978E+01  0.74413040902E+01  0.00000000000E+00 0.  1.
</event>
<event>
 7    1  0.4236733E-010  0.4778727E+02  0.7816164E-02  0.1312668E+00
        -11   -1    0    0    0    0  0.00000000000E+00  0.00000000000E+00  0.45593999997E+02  0.45594000000E+02  0.51100000000E-03 0. -1.
         11   -1    0    0    0    0 -0.00000000000E+00 -0.00000000000E+00 -0.45593999997E+02  0.45594000000E+02  0.51100000000E-03 0.  1.
    9900012    2    1    2    0    0 -0.38577677120E+02 -0.13525514747E+02  0.14575544396E+02  0.47787271716E+02  0.20000003063E+02 0.  0.
        -12    1    1    2    0    0  0.38577677120E+02  0.13525514747E+02 -0.14575544396E+02  0.43400728284E+02  0.00000000000E+00 0.  1.
         11    1    3    3    0    0 -0.22222124481E+02 -0.22897297885E+01  0.10342185670E+02  0.24617605156E+02  0.51100000000E-03 0. -1.
        -11    1    3    3    0    0 -0.61052618718E+01  0.14511472310E+01 -0.16213632314E+00  0.62774468741E+01  0.51100000000E-03 0.  1.
         12    1    3    3    0    0 -0.10250290767E+02 -0.12686932189E+02  0.43954950494E+01  0.16892219686E+02  0.00000000000E+00 0. -1.
</event>
<event>
 7    1  0.4236733E-010  0.4778728E+02  0.7816164E-02  0.1312668E+00
        -11   -1    0    0    0    0  0.00000000000E+00  0.00000000000E+00  0.45593999997E+02  0.45594000000E+02  0.51100000000E-03 0. -1.
         11   -1    0    0    0    0 -0.00000000000E+00 -0.00000000000E+00 -0.45593999997E+02  0.45594000000E+02  0.51100000000E-03 0.  1.
    9900012    2    1    2    0    0  0.19446690542E+02  0.36668222666E+02  0.12684236046E+02  0.47787283755E+02  0.20000057950E+02 0.  0.
        -12    1    1    2    0    0 -0.19446690542E+02 -0.36668222666E+02 -0.12684236046E+02  0.43400716245E+02  0.00000000000E+00 0.  1.
         11    1    3    3    0    0  0.96504724242E+01  0.76201910192E+01  0.22871973734E+01  0.12507205974E+02  0.51100000000E-03 0. -1.
        -11    1    3    3    0    0 -0.10627969203E+01 -0.54345110881E-01 -0.16500307782E+01  0.19634389512E+01  0.51100000000E-03 0.  1.
         12    1    3    3    0    0  0.10859015038E+02  0.29102376758E+02  0.12047069450E+02  0.33316638830E+02  0.00000000000E+00 0. -1.
</event>
<event>
 7    1  0.4236733E-010  0.4778727E+02  0.7816164E-02  0.1312668E+00
        -11   -1    0    0    0    0  0.00000000000E+00  0.00000000000E+00  0.45593999997E+02  0.45594000000E+02  0.51100000000E-03 0.  1.
         11   -1    0    0    0    0 -0.00000000000E+00 -0.00000000000E+00 -0.45593999997E+02  0.45594000000E+02  0.51100000000E-03 0. -1.
    9900012    2    1    2    0    0 -0.79440631242E+01  0.11901396554E+02 -0.40974041730E+02  0.47787268733E+02  0.19999989459E+02 0.  0.
        -12    1    1    2    0    0  0.79440631242E+01 -0.11901396554E+02  0.40974041730E+02  0.43400731267E+02  0.00000000000E+00 0.  1.
         11    1    3    3    0    0 -0.39451024011E+01 -0.43349707183E+00 -0.13127857577E+02  0.13714678177E+02  0.51100000000E-03 0. -1.
        -11    1    3    3    0    0 -0.82365779471E+01  0.10670559037E+02 -0.25740645186E+02  0.29056545928E+02  0.51100000000E-03 0.  1.
        -12    1    3    3    0    0  0.42376172240E+01  0.16643345892E+01 -0.21055389664E+01  0.50160446271E+01  0.00000000000E+00 0.  1.
</event>
<event>
 7    1  0.4236733E-010  0.4778727E+02  0.7816164E-02  0.1312668E+00
        -11   -1    0    0    0    0  0.00000000000E+00  0.00000000000E+00  0.45593999997E+02  0.45594000000E+02  0.51100000000E-03 0.  1.
         11   -1    0    0    0    0 -0.00000000000E+00 -0.00000000000E+00 -0.45593999997E+02  0.45594000000E+02  0.51100000000E-03 0. -1.
    9900012    2    1    2    0    0 -0.19026623494E+02  0.16410802108E+02 -0.35387798794E+02  0.47787272691E+02  0.20000007507E+02 0.  0.
        -12    1    1    2    0    0  0.19026623494E+02 -0.16410802108E+02  0.35387798794E+02  0.43400727309E+02  0.00000000000E+00 0.  1.
         11    1    3    3    0    0 -0.11480460751E+02  0.42020423150E+01 -0.20758140601E+02  0.24090631793E+02  0.51100000000E-03 0. -1.
        -11    1    3    3    0    0 -0.56075896610E+01  0.22869540170E+01 -0.11694857898E+02  0.13169848974E+02  0.51100000000E-03 0.  1.
        -12    1    3    3    0    0 -0.19385730822E+01  0.99218057762E+01 -0.29348002956E+01  0.10526791925E+02  0.00000000000E+00 0.  1.
</event>
<event>
 7    1  0.4236733E-010  0.4778728E+02  0.7816164E-02  0.1312668E+00
        -11   -1    0    0    0    0  0.00000000000E+00  0.00000000000E+00  0.45593999997E+02  0.45594000000E+02  0.51100000000E-03 0.  1.
         11   -1    0    0    0    0 -0.00000000000E+00 -0.00000000000E+00 -0.45593999997E+02  0.45594000000E+02  0.51100000000E-03 0. -1.
    9900012    2    1    2    0    0  0.22087351041E+02 -0.34260717512E+02 -0.14898827064E+02  0.47787275486E+02  0.20000020250E+02 0.  0.
        -12    1    1    2    0    0 -0.22087351041E+02  0.34260717512E+02  0.14898827064E+02  0.43400724514E+02  0.00000000000E+00 0.  1.
         11    1    3    3    0    0  0.19495391849E+00 -0.32951001653E+01 -0.36306980025E+01  0.49068992629E+01  0.51100000000E-03 0. -1.
        -11    1    3    3    0    0  0.95229710701E+01 -0.18599533589E+02 -0.14035848913E+02  0.25172101277E+02  0.51100000000E-03 0.  1.
         12    1    3    3    0    0  0.12369426053E+02 -0.12366083758E+02  0.27677198513E+01  0.17708274946E+02  0.00000000000E+00 0. -1.
</event>
<event>
 7    1  0.4236733E-010  0.4778728E+02  0.7816164E-02  0.1312668E+00
        -11   -1    0    0    0    0  0.00000000000E+00  0.00000000000E+00  0.45593999997E+02  0.45594000000E+02  0.51100000000E-03 0.  1.
         11   -1    0    0    0    0 -0.00000000000E+00 -0.00000000000E+00 -0.45593999997E+02  0.45594000000E+02  0.51100000000E-03 0. -1.
    9900012    2    1    2    0    0 -0.15179049378E+02 -0.67463832907E+00 -0.40654200773E+02  0.47787277455E+02  0.20000029231E+02 0.  0.
        -12    1    1    2    0    0  0.15179049378E+02  0.67463832907E+00  0.40654200773E+02  0.43400722545E+02  0.00000000000E+00 0.  1.
         11    1    3    3    0    0  0.23633631641E+01 -0.11687930787E+01 -0.79728869321E+01  0.83975287436E+01  0.51100000000E-03 0. -1.
        -11    1    3    3    0    0 -0.28420605069E+01  0.50188812235E+01 -0.46213422769E+01  0.73907564810E+01  0.51100000000E-03 0.  1.
         12    1    3    3    0    0 -0.14700352035E+02 -0.45247264738E+01 -0.28059971564E+02  0.31998992231E+02  0.00000000000E+00 0. -1.
</event>
<event>
 7    1  0.4236733E-010  0.4778727E+02  0.7816164E-02  0.1312668E+00
        -11   -1    0    0    0    0  0.00000000000E+00  0.00000000000E+00  0.45593999997E+02  0.45594000000E+02  0.51100000000E-03 0.  1.
         11   -1    0    0    0    0 -0.00000000000E+00 -0.00000000000E+00 -0.45593999997E+02  0.45594000000E+02  0.51100000000E-03 0. -1.
    9900012    2    1    2    0    0 -0.32253904827E+02 -0.22737090657E+02 -0.18064710530E+02  0.47787269192E+02  0.19999991552E+02 0.  0.
        -12    1    1    2    0    0  0.32253904827E+02  0.22737090657E+02  0.18064710530E+02  0.43400730808E+02  0.00000000000E+00 0.  1.
         11    1    3    3    0    0 -0.15185721801E+02 -0.74237575334E+01 -0.39377289718E+01  0.17355806874E+02  0.51100000000E-03 0. -1.
        -11    1    3    3    0    0 -0.27830245632E+01 -0.21175851352E+01  0.29312035952E+01  0.45630414530E+01  0.51100000000E-03 0.  1.
         12    1    3    3    0    0 -0.14285158463E+02 -0.13195747989E+02 -0.17058185153E+02  0.25868420864E+02  0.00000000000E+00 0. -1.
</event>
<event>
 7    1  0.4236733E-010  0.4778727E+02  0.7816164E-02  0.1312668E+00
        -11   -1    0    0    0    0  0.00000000000E+00  0.00000000000E+00  0.45593999997E+02  0.45594000000E+02  0.51100000000E-03 0.  1.
         11   -1    0    0    0    0 -0.00000000000E+00 -0.00000000000E+00 -0.45593999997E+02  0.45594000000E+02  0.51100000000E-03 0. -1.
    9900012    2    1    2    0    0  0.25606827883E+02 -0.86916558850E+01 -0.33946556996E+02  0.47787271341E+02  0.20000001353E+02 0.  0.
        -12    1    1    2    0    0 -0.25606827883E+02  0.86916558850E+01  0.33946556996E+02  0.43400728659E+02  0.00000000000E+00 0.  1.
         11    1    3    3    0    0  0.43877845367E+00  0.86551250611E+00 -0.31198375879E+00  0.10193000326E+01  0.51100000000E-03 0. -1.
        -11    1    3    3    0    0  0.19493905916E+02 -0.74151581971E+01 -0.34819696216E+02  0.40588276433E+02  0.51100000000E-03 0.  1.
        -12    1    3    3    0    0  0.56741435133E+01 -0.21420101940E+01  0.11851229792E+01  0.61796948757E+01  0.00000000000E+00 0.  1.
</event>
<event>
 7    1  0.4236733E-010  0.4778727E+02  0.7816164E-02  0.1312668E+00
        -11   -1    0    0    0    0  0.00000000000E+00  0.00000000000E+00  0.45593999997E+02  0.45594000000E+02  0.51100000000E-03 0. -1.
         11   -1    0    0    0    0 -0.00000000000E+00 -0.00000000000E+00 -0.45593999997E+02  0.45594000000E+02  0.51100000000E-03 0.  1.
    9900012    2    1    2    0    0 -0.75191691644E+01 -0.18492293751E+02  0.38537260792E+02  0.47787270716E+02  0.19999998501E+02 0.  0.
        -12    1    1    2    0    0  0.75191691644E+01  0.18492293751E+02 -0.38537260792E+02  0.43400729284E+02  0.00000000000E+00 0.  1.
         11    1    3    3    0    0  0.26470292377E+01  0.20657604248E+01  0.55762997732E+01  0.65091665626E+01  0.51100000000E-03 0. -1.
        -11    1    3    3    0    0 -0.20268543412E+01 -0.48402403774E+01  0.20019858383E+01  0.56164057002E+01  0.51100000000E-03 0.  1.
         12    1    3    3    0    0 -0.81393440609E+01 -0.15717813798E+02  0.30958975180E+02  0.35661698453E+02  0.00000000000E+00 0. -1.
</event>
<event>
 7    1  0.4236733E-010  0.4778727E+02  0.7816164E-02  0.1312668E+00
        -11   -1    0    0    0    0  0.00000000000E+00  0.00000000000E+00  0.45593999997E+02  0.45594000000E+02  0.51100000000E-03 0.  1.
         11   -1    0    0    0    0 -0.00000000000E+00 -0.00000000000E+00 -0.45593999997E+02  0.45594000000E+02  0.51100000000E-03 0. -1.
    9900012    2    1    2    0    0 -0.33702446272E+02  0.73195323364E+01 -0.26347534463E+02  0.47787274077E+02  0.20000013827E+02 0.  0.
        -12    1    1    2    0    0  0.33702446272E+02 -0.73195323364E+01  0.26347534463E+02  0.43400725923E+02  0.00000000000E+00 0.  1.
         11    1    3    3    0    0 -0.12018680073E+02 -0.14581543343E+01 -0.45559386326E+01  0.12935666270E+02  0.51100000000E-03 0. -1.
        -11    1    3    3    0    0 -0.45892995248E+01  0.32110005591E+01  0.11368879172E+01  0.57153048140E+01  0.51100000000E-03 0.  1.
        -12    1    3    3    0    0 -0.17094466675E+02  0.55666861116E+01 -0.22928483748E+02  0.29136302993E+02  0.00000000000E+00 0.  1.
</event>
<event>
 7    1  0.4236733E-010  0.4778727E+02  0.7816164E-02  0.1312668E+00
        -11   -1    0    0    0    0  0.00000000000E+00  0.00000000000E+00  0.45593999997E+02  0.45594000000E+02  0.51100000000E-03 0. -1.
         11   -1    0    0    0    0 -0.00000000000E+00 -0.00000000000E+00 -0.45593999997E+02  0.45594000000E+02  0.51100000000E-03 0.  1.
    9900012    2    1    2    0    0 -0.21201180425E+02 -0.34807911139E+02  0.14917863762E+02  0.47787269724E+02  0.19999993980E+02 0.  0.
        -12    1    1    2    0    0  0.21201180425E+02  0.34807911139E+02 -0.14917863762E+02  0.43400730276E+02  0.00000000000E+00 0.  1.
         11    1    3    3    0    0 -0.44848241158E+01 -0.65451813295E+01 -0.12273737015E+01  0.80286669161E+01  0.51100000000E-03 0.  1.
        -11    1    3    3    0    0 -0.10895749937E+02 -0.10572613453E+02  0.10892224438E+00  0.15182535567E+02  0.51100000000E-03 0. -1.
         12    1    3    3    0    0 -0.58206063720E+01 -0.17690116356E+02  0.16036315219E+02  0.24576067241E+02  0.00000000000E+00 0. -1.
</event>
<event>
 7    1  0.4236733E-010  0.4778726E+02  0.7816164E-02  0.1312668E+00
        -11   -1    0    0    0    0  0.00000000000E+00  0.00000000000E+00  0.45593999997E+02  0.45594000000E+02  0.51100000000E-03 0. -1.
         11   -1    0    0    0    0 -0.00000000000E+00 -0.00000000000E+00 -0.45593999997E+02  0.45594000000E+02  0.51100000000E-03 0.  1.
    9900012    2    1    2    0    0  0.26174471022E+02 -0.21510057453E+02  0.27126354511E+02  0.47787255606E+02  0.19999929608E+02 0.  0.
        -12    1    1    2    0    0 -0.26174471022E+02  0.21510057453E+02 -0.27126354511E+02  0.43400744394E+02  0.00000000000E+00 0.  1.
         11    1    3    3    0    0  0.15869647827E+02 -0.10532447958E+02  0.21050814780E+02  0.28388641836E+02  0.51100000000E-03 0. -1.
        -11    1    3    3    0    0  0.70729866540E+01 -0.45902405064E+01  0.83706014589E+01  0.11881263281E+02  0.51100000000E-03 0.  1.
        -12    1    3    3    0    0  0.32318365416E+01 -0.63873689892E+01 -0.22950617277E+01  0.75173504887E+01  0.00000000000E+00 0.  1.
</event>
<event>
 7    1  0.4236733E-010  0.4778726E+02  0.7816164E-02  0.1312668E+00
        -11   -1    0    0    0    0  0.00000000000E+00  0.00000000000E+00  0.45593999997E+02  0.45594000000E+02  0.51100000000E-03 0. -1.
         11   -1    0    0    0    0 -0.00000000000E+00 -0.00000000000E+00 -0.45593999997E+02  0.45594000000E+02  0.51100000000E-03 0.  1.
    9900012    2    1    2    0    0  0.97975784504E+01 -0.11613480683E+02  0.40654132294E+02  0.47787263260E+02  0.19999964506E+02 0.  0.
        -12    1    1    2    0    0 -0.97975784504E+01  0.11613480683E+02 -0.40654132294E+02  0.43400736740E+02  0.00000000000E+00 0.  1.
         11    1    3    3    0    0  0.78966832687E+01 -0.58994993598E+01  0.17918177830E+02  0.20450496237E+02  0.51100000000E-03 0. -1.
        -11    1    3    3    0    0 -0.38559750693E+01 -0.43924665384E+01  0.19982763907E+02  0.20820018243E+02  0.51100000000E-03 0.  1.
         12    1    3    3    0    0  0.57568702510E+01 -0.13215147847E+01  0.27531905571E+01  0.65167487796E+01  0.00000000000E+00 0. -1.
</event>
<event>
 7    1  0.4236733E-010  0.4778727E+02  0.7816164E-02  0.1312668E+00
        -11   -1    0    0    0    0  0.00000000000E+00  0.00000000000E+00  0.45593999997E+02  0.45594000000E+02  0.51100000000E-03 0.  1.
         11   -1    0    0    0    0 -0.00000000000E+00 -0.00000000000E+00 -0.45593999997E+02  0.45594000000E+02  0.51100000000E-03 0. -1.
    9900012    2    1    2    0    0  0.73223513609E+01 -0.42466225575E+02 -0.51600364931E+01  0.47787272810E+02  0.20000008050E+02 0.  0.
        -12    1    1    2    0    0 -0.73223513609E+01  0.42466225575E+02  0.51600364931E+01  0.43400727190E+02  0.00000000000E+00 0.  1.
         11    1    3    3    0    0  0.18419357653E+01 -0.15110322580E+02 -0.17670160560E+01  0.15324389771E+02  0.51100000000E-03 0. -1.
        -11    1    3    3    0    0  0.51279222276E+00 -0.22004929123E+02  0.36578389158E+01  0.22312768707E+02  0.51100000000E-03 0.  1.
         12    1    3    3    0    0  0.49676233728E+01 -0.53509738716E+01 -0.70508593528E+01  0.10150114332E+02  0.00000000000E+00 0. -1.
</event>
<event>
 7    1  0.4236733E-010  0.4778727E+02  0.7816164E-02  0.1312668E+00
        -11   -1    0    0    0    0  0.00000000000E+00  0.00000000000E+00  0.45593999997E+02  0.45594000000E+02  0.51100000000E-03 0. -1.
         11   -1    0    0    0    0 -0.00000000000E+00 -0.00000000000E+00 -0.45593999997E+02  0.45594000000E+02  0.51100000000E-03 0.  1.
    9900012    2    1    2    0    0 -0.40572949736E+02 -0.15276000973E+02  0.20255155007E+01  0.47787272252E+02  0.20000005506E+02 0.  0.
        -12    1    1    2    0    0  0.40572949736E+02  0.15276000973E+02 -0.20255155007E+01  0.43400727748E+02  0.00000000000E+00 0.  1.
         11    1    3    3    0    0 -0.76745066582E+01 -0.90406898181E+01  0.33673631923E+01  0.12327662388E+02  0.51100000000E-03 0.  1.
        -11    1    3    3    0    0 -0.19653407968E+02 -0.76080502264E+01  0.33541397584E+01  0.21339848331E+02  0.51100000000E-03 0. -1.
        -12    1    3    3    0    0 -0.13245035109E+02  0.13727390713E+01 -0.46959874499E+01  0.14119761533E+02  0.00000000000E+00 0.  1.
</event>
<event>
 7    1  0.4236733E-010  0.4778727E+02  0.7816164E-02  0.1312668E+00
        -11   -1    0    0    0    0  0.00000000000E+00  0.00000000000E+00  0.45593999997E+02  0.45594000000E+02  0.51100000000E-03 0.  1.
         11   -1    0    0    0    0 -0.00000000000E+00 -0.00000000000E+00 -0.45593999997E+02  0.45594000000E+02  0.51100000000E-03 0. -1.
    9900012    2    1    2    0    0 -0.19207486643E+02  0.38889937283E+01 -0.38724303491E+02  0.47787268483E+02  0.19999988321E+02 0.  0.
        -12    1    1    2    0    0  0.19207486643E+02 -0.38889937283E+01  0.38724303491E+02  0.43400731517E+02  0.00000000000E+00 0.  1.
         11    1    3    3    0    0 -0.82298806388E+01 -0.34913016089E+01 -0.61132852184E+01  0.10830160602E+02  0.51100000000E-03 0. -1.
        -11    1    3    3    0    0 -0.11685141896E+02  0.18914073943E+01 -0.21456503853E+02  0.24505132542E+02  0.51100000000E-03 0.  1.
        -12    1    3    3    0    0  0.70753589148E+00  0.54888879429E+01 -0.11154514420E+02  0.12451975338E+02  0.00000000000E+00 0.  1.
</event>
<event>
 7    1  0.4236733E-010  0.4778727E+02  0.7816164E-02  0.1312668E+00
        -11   -1    0    0    0    0  0.00000000000E+00  0.00000000000E+00  0.45593999997E+02  0.45594000000E+02  0.51100000000E-03 0. -1.
         11   -1    0    0    0    0 -0.00000000000E+00 -0.00000000000E+00 -0.45593999997E+02  0.45594000000E+02  0.51100000000E-03 0.  1.
    9900012    2    1    2    0    0  0.27391367160E+02  0.22741591283E+02  0.24822497172E+02  0.47787270342E+02  0.19999996796E+02 0.  0.
        -12    1    1    2    0    0 -0.27391367160E+02 -0.22741591283E+02 -0.24822497172E+02  0.43400729658E+02  0.00000000000E+00 0.  1.
         11    1    3    3    0    0  0.99139033143E+01  0.76970361087E+01  0.70340067892E+01  0.14387741155E+02  0.51100000000E-03 0. -1.
        -11    1    3    3    0    0  0.32832438064E+01 -0.33793020480E+01  0.12921006832E+01  0.48855804835E+01  0.51100000000E-03 0.  1.
        -12    1    3    3    0    0  0.14194220040E+02  0.18423857223E+02  0.16496389700E+02  0.28513948703E+02  0.00000000000E+00 0.  1.
</event>
<event>
 7    1  0.4236733E-010  0.4778727E+02  0.7816164E-02  0.1312668E+00
        -11   -1    0    0    0    0  0.00000000000E+00  0.00000000000E+00  0.45593999997E+02  0.45594000000E+02  0.51100000000E-03 0.  1.
         11   -1    0    0    0    0 -0.00000000000E+00 -0.00000000000E+00 -0.45593999997E+02  0.45594000000E+02  0.51100000000E-03 0. -1.
    9900012    2    1    2    0    0 -0.26988260878E+02  0.30469136568E+02 -0.15062838569E+02  0.47787267124E+02  0.19999982124E+02 0.  0.
        -12    1    1    2    0    0  0.26988260878E+02 -0.30469136568E+02  0.15062838569E+02  0.43400732876E+02  0.00000000000E+00 0.  1.
         11    1    3    3    0    0 -0.13394633273E+02  0.12228501335E+02 -0.12373364578E+02  0.21955696223E+02  0.51100000000E-03 0. -1.
        -11    1    3    3    0    0 -0.12338038015E+02  0.71695233080E+01 -0.33916046120E+01  0.14667386565E+02  0.51100000000E-03 0.  1.
        -12    1    3    3    0    0 -0.12555895897E+01  0.11071111925E+02  0.70213062024E+00  0.11164184336E+02  0.00000000000E+00 0.  1.
</event>
<event>
 7    1  0.4236733E-010  0.4778728E+02  0.7816164E-02  0.1312668E+00
        -11   -1    0    0    0    0  0.00000000000E+00  0.00000000000E+00  0.45593999997E+02  0.45594000000E+02  0.51100000000E-03 0.  1.
         11   -1    0    0    0    0 -0.00000000000E+00 -0.00000000000E+00 -0.45593999997E+02  0.45594000000E+02  0.51100000000E-03 0. -1.
    9900012    2    1    2    0    0 -0.57083472879E+01 -0.39412158026E+02 -0.17254533286E+02  0.47787281712E+02  0.20000048638E+02 0.  0.
        -12    1    1    2    0    0  0.57083472879E+01  0.39412158026E+02  0.17254533286E+02  0.43400718288E+02  0.00000000000E+00 0.  1.
         11    1    3    3    0    0 -0.35108373373E+01 -0.46298591303E+00 -0.24141901563E+01  0.42858662060E+01  0.51100000000E-03 0. -1.
        -11    1    3    3    0    0 -0.61592709070E+00 -0.20277503388E+01  0.19781662085E+01  0.28990135265E+01  0.51100000000E-03 0.  1.
         12    1    3    3    0    0 -0.15815828600E+01 -0.36921421774E+02 -0.16818509338E+02  0.40602401979E+02  0.00000000000E+00 0. -1.
</event>
<event>
 7    1  0.4236733E-010  0.4778727E+02  0.7816164E-02  0.1312668E+00
        -11   -1    0    0    0    0  0.00000000000E+00  0.00000000000E+00  0.45593999997E+02  0.45594000000E+02  0.51100000000E-03 0.  1.
         11   -1    0    0    0    0 -0.00000000000E+00 -0.00000000000E+00 -0.45593999997E+02  0.45594000000E+02  0.51100000000E-03 0. -1.
    9900012    2    1    2    0    0 -0.35243116384E+02  0.21398254148E+02 -0.13552146712E+02  0.47787271740E+02  0.20000003170E+02 0.  0.
        -12    1    1    2    0    0  0.35243116384E+02 -0.21398254148E+02  0.13552146712E+02  0.43400728260E+02  0.00000000000E+00 0.  1.
         11    1    3    3    0    0 -0.93609160001E+01  0.48364294726E+01 -0.22133100968E-01  0.10536521653E+02  0.51100000000E-03 0.  1.
        -11    1    3    3    0    0 -0.19838905423E+02  0.12786842457E+02 -0.19877053934E+01  0.23686208675E+02  0.51100000000E-03 0. -1.
        -12    1    3    3    0    0 -0.60432949605E+01  0.37749822187E+01 -0.11542308217E+02  0.13564541412E+02  0.00000000000E+00 0.  1.
</event>
<event>
 7    1  0.4236733E-010  0.4778728E+02  0.7816164E-02  0.1312668E+00
        -11   -1    0    0    0    0  0.00000000000E+00  0.00000000000E+00  0.45593999997E+02  0.45594000000E+02  0.51100000000E-03 0.  1.
         11   -1    0    0    0    0 -0.00000000000E+00 -0.00000000000E+00 -0.45593999997E+02  0.45594000000E+02  0.51100000000E-03 0. -1.
    9900012    2    1    2    0    0 -0.50479714028E+00  0.10298708123E+02 -0.42158091739E+02  0.47787275257E+02  0.20000019206E+02 0.  0.
        -12    1    1    2    0    0  0.50479714028E+00 -0.10298708123E+02  0.42158091739E+02  0.43400724743E+02  0.00000000000E+00 0.  1.
         11    1    3    3    0    0  0.23701265201E+01  0.12743774771E+01 -0.22730434459E+02  0.22889171864E+02  0.51100000000E-03 0. -1.
        -11    1    3    3    0    0  0.44831863181E+01  0.33799924744E+01 -0.39854898281E+01  0.68853059570E+01  0.51100000000E-03 0.  1.
         12    1    3    3    0    0 -0.73581099785E+01  0.56443381714E+01 -0.15442167452E+02  0.18012797436E+02  0.00000000000E+00 0. -1.
</event>
<event>
 7    1  0.4236733E-010  0.4778727E+02  0.7816164E-02  0.1312668E+00
        -11   -1    0    0    0    0  0.00000000000E+00  0.00000000000E+00  0.45593999997E+02  0.45594000000E+02  0.51100000000E-03 0. -1.
         11   -1    0    0    0    0 -0.00000000000E+00 -0.00000000000E+00 -0.45593999997E+02  0.45594000000E+02  0.51100000000E-03 0.  1.
    9900012    2    1    2    0    0 -0.25764603083E+02 -0.30466796766E+02  0.17075803569E+02  0.47787267923E+02  0.19999985770E+02 0.  0.
        -12    1    1    2    0    0  0.25764603083E+02  0.30466796766E+02 -0.17075803569E+02  0.43400732077E+02  0.00000000000E+00 0.  1.
         11    1    3    3    0    0 -0.49878284416E+01 -0.31233725851E+01  0.71483220693E+01  0.92591790962E+01  0.51100000000E-03 0. -1.
        -11    1    3    3    0    0 -0.11791391681E+02 -0.18611478340E+02  0.13061136274E+02  0.25612835158E+02  0.51100000000E-03 0.  1.
        -12    1    3    3    0    0 -0.89853829608E+01 -0.87319458407E+01 -0.31336547734E+01  0.12915253670E+02  0.00000000000E+00 0.  1.
</event>
<event>
 7    1  0.4236733E-010  0.4778727E+02  0.7816164E-02  0.1312668E+00
        -11   -1    0    0    0    0  0.00000000000E+00  0.00000000000E+00  0.45593999997E+02  0.45594000000E+02  0.51100000000E-03 0.  1.
         11   -1    0    0    0    0 -0.00000000000E+00 -0.00000000000E+00 -0.45593999997E+02  0.45594000000E+02  0.51100000000E-03 0. -1.
    9900012    2    1    2    0    0 -0.34848146876E+02 -0.23854803733E+02 -0.10008917322E+02  0.47787269271E+02  0.19999991916E+02 0.  0.
        -12    1    1    2    0    0  0.34848146876E+02  0.23854803733E+02  0.10008917322E+02  0.43400730729E+02  0.00000000000E+00 0.  1.
         11    1    3    3    0    0 -0.78730078869E+01 -0.40446738907E+01  0.29836543609E+01  0.93405478252E+01  0.51100000000E-03 0. -1.
        -11    1    3    3    0    0 -0.17764942106E+02 -0.73940140799E+01 -0.17298359294E+01  0.19319858820E+02  0.51100000000E-03 0.  1.
         12    1    3    3    0    0 -0.92101968833E+01 -0.12416115762E+02 -0.11262735754E+02  0.19126862626E+02  0.00000000000E+00 0. -1.
</event>
<event>
 7    1  0.4236733E-010  0.4778727E+02  0.7816164E-02  0.1312668E+00
        -11   -1    0    0    0    0  0.00000000000E+00  0.00000000000E+00  0.45593999997E+02  0.45594000000E+02  0.51100000000E-03 0. -1.
         11   -1    0    0    0    0 -0.00000000000E+00 -0.00000000000E+00 -0.45593999997E+02  0.45594000000E+02  0.51100000000E-03 0.  1.
    9900012    2    1    2    0    0  0.36964307708E+02 -0.83307715547E+01 -0.21162738196E+02  0.47787270894E+02  0.19999999312E+02 0.  0.
        -12    1    1    2    0    0 -0.36964307708E+02  0.83307715547E+01  0.21162738196E+02  0.43400729106E+02  0.00000000000E+00 0.  1.
         11    1    3    3    0    0  0.19620271015E+01 -0.55389967421E+01 -0.54849278256E+00  0.59017692135E+01  0.51100000000E-03 0. -1.
        -11    1    3    3    0    0  0.62658676365E+01  0.53954776349E-01 -0.85248251067E+01  0.10580011896E+02  0.51100000000E-03 0.  1.
         12    1    3    3    0    0  0.28736412970E+02 -0.28457295890E+01 -0.12089420306E+02  0.31305489784E+02  0.00000000000E+00 0. -1.
</event>
<event>
 7    1  0.4236733E-010  0.4778727E+02  0.7816164E-02  0.1312668E+00
        -11   -1    0    0    0    0  0.00000000000E+00  0.00000000000E+00  0.45593999997E+02  0.45594000000E+02  0.51100000000E-03 0.  1.
         11   -1    0    0    0    0 -0.00000000000E+00 -0.00000000000E+00 -0.45593999997E+02  0.45594000000E+02  0.51100000000E-03 0. -1.
    9900012    2    1    2    0    0 -0.24396116816E+02 -0.21367873301E+02 -0.28842095742E+02  0.47787274063E+02  0.20000013761E+02 0.  0.
        -12    1    1    2    0    0  0.24396116816E+02  0.21367873301E+02  0.28842095742E+02  0.43400725937E+02  0.00000000000E+00 0.  1.
         11    1    3    3    0    0 -0.16388665675E+02 -0.17941880112E+02 -0.30417789011E+02  0.38932522563E+02  0.51100000000E-03 0. -1.
        -11    1    3    3    0    0 -0.20689421550E+01 -0.77750989875E+00  0.34506324310E+00  0.22369873014E+01  0.51100000000E-03 0.  1.
         12    1    3    3    0    0 -0.59385089860E+01 -0.26484832906E+01  0.12306300264E+01  0.66177641979E+01  0.00000000000E+00 0. -1.
</event>
<event>
 7    1  0.4236733E-010  0.4778727E+02  0.7816164E-02  0.1312668E+00
        -11   -1    0    0    0    0  0.00000000000E+00  0.00000000000E+00  0.45593999997E+02  0.45594000000E+02  0.51100000000E-03 0.  1.
         11   -1    0    0    0    0 -0.00000000000E+00 -0.00000000000E+00 -0.45593999997E+02  0.45594000000E+02  0.51100000000E-03 0. -1.
    9900012    2    1    2    0    0 -0.40708409137E+02 -0.16472454507E+01 -0.14957784301E+02  0.47787270706E+02  0.19999998458E+02 0.  0.
        -12    1    1    2    0    0  0.40708409137E+02  0.16472454507E+01  0.14957784301E+02  0.43400729294E+02  0.00000000000E+00 0.  1.
         11    1    3    3    0    0 -0.98567279929E+01  0.22444371569E+01  0.64773909250E+00  0.10129765598E+02  0.51100000000E-03 0. -1.
        -11    1    3    3    0    0 -0.14905887574E+02 -0.51009489703E+01 -0.65872002279E+00  0.15768293411E+02  0.51100000000E-03 0.  1.
         12    1    3    3    0    0 -0.15945793570E+02  0.12092663626E+01 -0.14946803371E+02  0.21889211697E+02  0.00000000000E+00 0. -1.
</event>
<event>
 7    1  0.4236733E-010  0.4778727E+02  0.7816164E-02  0.1312668E+00
        -11   -1    0    0    0    0  0.00000000000E+00  0.00000000000E+00  0.45593999997E+02  0.45594000000E+02  0.51100000000E-03 0.  1.
         11   -1    0    0    0    0 -0.00000000000E+00 -0.00000000000E+00 -0.45593999997E+02  0.45594000000E+02  0.51100000000E-03 0. -1.
    9900012    2    1    2    0    0 -0.15472546389E+01 -0.26406056764E+02 -0.34408571136E+02  0.47787267306E+02  0.19999982957E+02 0.  0.
        -12    1    1    2    0    0  0.15472546389E+01  0.26406056764E+02  0.34408571136E+02  0.43400732694E+02  0.00000000000E+00 0.  1.
         11    1    3    3    0    0 -0.16098852096E+01  0.92562769553E+00 -0.30927281570E+01  0.36074207869E+01  0.51100000000E-03 0. -1.
        -11    1    3    3    0    0 -0.61928132039E+01 -0.11869653383E+02 -0.82875121836E+01  0.15745553825E+02  0.51100000000E-03 0.  1.
         12    1    3    3    0    0  0.62554437746E+01 -0.15462031076E+02 -0.23028330795E+02  0.28434292695E+02  0.00000000000E+00 0. -1.
</event>
<event>
 7    1  0.4236733E-010  0.4778726E+02  0.7816164E-02  0.1312668E+00
        -11   -1    0    0    0    0  0.00000000000E+00  0.00000000000E+00  0.45593999997E+02  0.45594000000E+02  0.51100000000E-03 0. -1.
         11   -1    0    0    0    0 -0.00000000000E+00 -0.00000000000E+00 -0.45593999997E+02  0.45594000000E+02  0.51100000000E-03 0.  1.
    9900012    2    1    2    0    0 -0.14767863930E+02 -0.39772925960E+02  0.91459555986E+01  0.47787263275E+02  0.19999964575E+02 0.  0.
        -12    1    1    2    0    0  0.14767863930E+02  0.39772925960E+02 -0.91459555986E+01  0.43400736725E+02  0.00000000000E+00 0.  1.
         11    1    3    3    0    0 -0.20338455741E+00 -0.85619891605E+01 -0.51555207014E+01  0.99964202407E+01  0.51100000000E-03 0.  1.
        -11    1    3    3    0    0 -0.49271652051E+01 -0.12432746821E+02  0.24881609059E+01  0.13602981123E+02  0.51100000000E-03 0. -1.
        -12    1    3    3    0    0 -0.96373141679E+01 -0.18778189979E+02  0.11813315394E+02  0.24187861911E+02  0.00000000000E+00 0.  1.
</event>
<event>
 7    1  0.4236733E-010  0.4778728E+02  0.7816164E-02  0.1312668E+00
        -11   -1    0    0    0    0  0.00000000000E+00  0.00000000000E+00  0.45593999997E+02  0.45594000000E+02  0.51100000000E-03 0. -1.
         11   -1    0    0    0    0 -0.00000000000E+00 -0.00000000000E+00 -0.45593999997E+02  0.45594000000E+02  0.51100000000E-03 0.  1.
    9900012    2    1    2    0    0  0.22043968223E+02 -0.36779368607E+02 -0.67055502521E+01  0.47787275418E+02  0.20000019939E+02 0.  0.
        -12    1    1    2    0    0 -0.22043968223E+02  0.36779368607E+02  0.67055502521E+01  0.43400724582E+02  0.00000000000E+00 0.  1.
         11    1    3    3    0    0  0.11387777434E+02 -0.76288589443E+01  0.88131354720E+00  0.13735271294E+02  0.51100000000E-03 0. -1.
        -11    1    3    3    0    0  0.10493809900E+02 -0.16880365986E+02 -0.50250579520E+00  0.19882638516E+02  0.51100000000E-03 0.  1.
        -12    1    3    3    0    0  0.16238088877E+00 -0.12270143677E+02 -0.70843580041E+01  0.14169365608E+02  0.00000000000E+00 0.  1.
</event>
<event>
 7    1  0.4236733E-010  0.4778728E+02  0.7816164E-02  0.1312668E+00
        -11   -1    0    0    0    0  0.00000000000E+00  0.00000000000E+00  0.45593999997E+02  0.45594000000E+02  0.51100000000E-03 0.  1.
         11   -1    0    0    0    0 -0.00000000000E+00 -0.00000000000E+00 -0.45593999997E+02  0.45594000000E+02  0.51100000000E-03 0. -1.
    9900012    2    1    2    0    0 -0.19658298019E+02 -0.99371324374E+01 -0.37395548960E+02  0.47787281525E+02  0.20000047787E+02 0.  0.
        -12    1    1    2    0    0  0.19658298019E+02  0.99371324374E+01  0.37395548960E+02  0.43400718475E+02  0.00000000000E+00 0.  1.
         11    1    3    3    0    0 -0.70695238583E+01 -0.65740340289E+01 -0.25935425767E+02  0.27673857718E+02  0.51100000000E-03 0. -1.
        -11    1    3    3    0    0 -0.22823705736E+00 -0.39523275488E+01 -0.41753518671E+01  0.57538290453E+01  0.51100000000E-03 0.  1.
         12    1    3    3    0    0 -0.12360537103E+02  0.58922914034E+00 -0.72847713255E+01  0.14359594762E+02  0.00000000000E+00 0. -1.
</event>
<event>
 7    1  0.4236733E-010  0.4778727E+02  0.7816164E-02  0.1312668E+00
        -11   -1    0    0    0    0  0.00000000000E+00  0.00000000000E+00  0.45593999997E+02  0.45594000000E+02  0.51100000000E-03 0. -1.
         11   -1    0    0    0    0 -0.00000000000E+00 -0.00000000000E+00 -0.45593999997E+02  0.45594000000E+02  0.51100000000E-03 0.  1.
    9900012    2    1    2    0    0 -0.14851118357E+02  0.22908369189E+02  0.33738324522E+02  0.47787266863E+02  0.19999980933E+02 0.  0.
        -12    1    1    2    0    0  0.14851118357E+02 -0.22908369189E+02 -0.33738324522E+02  0.43400733137E+02  0.00000000000E+00 0.  1.
         11    1    3    3    0    0 -0.59102303234E+01  0.18951344597E+02  0.14745637469E+02  0.24728892193E+02  0.51100000000E-03 0. -1.
        -11    1    3    3    0    0 -0.30817333740E+00  0.34418217982E+01  0.10008326520E+02  0.10588092750E+02  0.51100000000E-03 0.  1.
         12    1    3    3    0    0 -0.86327146967E+01  0.51520279391E+00  0.89843605329E+01  0.12470281919E+02  0.00000000000E+00 0. -1.
</event>
<event>
 7    1  0.5032887E-010  0.4778727E+02  0.7816164E-02  0.1312668E+00
        -11   -1    0    0    0    0  0.00000000000E+00  0.00000000000E+00  0.45593999997E+02  0.45594000000E+02  0.51100000000E-03 0.  1.
         11   -1    0    0    0    0 -0.00000000000E+00 -0.00000000000E+00 -0.45593999997E+02  0.45594000000E+02  0.51100000000E-03 0. -1.
    9900012    2    1    2    0    0 -0.19170200551E+02 -0.24098538456E+02 -0.30584096247E+02  0.47787273184E+02  0.20000009757E+02 0.  0.
        -12    1    1    2    0    0  0.19170200551E+02  0.24098538456E+02  0.30584096247E+02  0.43400726816E+02  0.00000000000E+00 0.  1.
         11    1    3    3    0    0 -0.40364242216E+01 -0.12221885149E+02 -0.84707880181E+01  0.15408486201E+02  0.51100000000E-03 0. -1.
        -11    1    3    3    0    0 -0.14888707354E+02 -0.14047602306E+02 -0.22194177839E+02  0.30192553178E+02  0.51100000000E-03 0.  1.
        -12    1    3    3    0    0 -0.24506897526E+00  0.21709489991E+01  0.80869609655E-01  0.21862338057E+01  0.00000000000E+00 0.  1.
</event>
<event>
 7    1  0.4236733E-010  0.4778727E+02  0.7816164E-02  0.1312668E+00
        -11   -1    0    0    0    0  0.00000000000E+00  0.00000000000E+00  0.45593999997E+02  0.45594000000E+02  0.51100000000E-03 0.  1.
         11   -1    0    0    0    0 -0.00000000000E+00 -0.00000000000E+00 -0.45593999997E+02  0.45594000000E+02  0.51100000000E-03 0. -1.
    9900012    2    1    2    0    0  0.15110541872E+02 -0.24396054900E+02 -0.32559600883E+02  0.47787267518E+02  0.19999983921E+02 0.  0.
        -12    1    1    2    0    0 -0.15110541872E+02  0.24396054900E+02  0.32559600883E+02  0.43400732482E+02  0.00000000000E+00 0.  1.
         11    1    3    3    0    0  0.14543832264E+02 -0.10947661394E+02 -0.12298572004E+02  0.21968823831E+02  0.51100000000E-03 0. -1.
        -11    1    3    3    0    0  0.29061615206E+01 -0.30946439786E+01 -0.19917278347E+01  0.46893044438E+01  0.51100000000E-03 0.  1.
        -12    1    3    3    0    0 -0.23394519121E+01 -0.10353749527E+02 -0.18269301044E+02  0.21129139243E+02  0.00000000000E+00 0.  1.
</event>
<event>
 7    1  0.4236733E-010  0.4778727E+02  0.7816164E-02  0.1312668E+00
        -11   -1    0    0    0    0  0.00000000000E+00  0.00000000000E+00  0.45593999997E+02  0.45594000000E+02  0.51100000000E-03 0.  1.
         11   -1    0    0    0    0 -0.00000000000E+00 -0.00000000000E+00 -0.45593999997E+02  0.45594000000E+02  0.51100000000E-03 0. -1.
    9900012    2    1    2    0    0  0.27044086227E+01  0.19057328720E+02 -0.38898948249E+02  0.47787265227E+02  0.19999973477E+02 0.  0.
        -12    1    1    2    0    0 -0.27044086227E+01 -0.19057328720E+02  0.38898948249E+02  0.43400734773E+02  0.00000000000E+00 0.  1.
         11    1    3    3    0    0  0.73174878442E+00 -0.17137866981E+01 -0.21013122518E+01  0.28085645036E+01  0.51100000000E-03 0. -1.
        -11    1    3    3    0    0  0.60709242922E+01  0.16237831383E+01 -0.89696666269E+01  0.10952064331E+02  0.51100000000E-03 0.  1.
         12    1    3    3    0    0 -0.40982644539E+01  0.19147332279E+02 -0.27827969370E+02  0.34026636393E+02  0.00000000000E+00 0. -1.
</event>
<event>
 7    1  0.4236733E-010  0.4778728E+02  0.7816164E-02  0.1312668E+00
        -11   -1    0    0    0    0  0.00000000000E+00  0.00000000000E+00  0.45593999997E+02  0.45594000000E+02  0.51100000000E-03 0.  1.
         11   -1    0    0    0    0 -0.00000000000E+00 -0.00000000000E+00 -0.45593999997E+02  0.45594000000E+02  0.51100000000E-03 0. -1.
    9900012    2    1    2    0    0 -0.12675975494E+02 -0.15105714043E+02 -0.38662124804E+02  0.47787275975E+02  0.20000022481E+02 0.  0.
        -12    1    1    2    0    0  0.12675975494E+02  0.15105714043E+02  0.38662124804E+02  0.43400724025E+02  0.00000000000E+00 0.  1.
         11    1    3    3    0    0 -0.10242668483E+02 -0.30177261418E+01 -0.21138445129E+02  0.23682330786E+02  0.51100000000E-03 0. -1.
        -11    1    3    3    0    0 -0.22751420982E+01  0.15707031969E+01 -0.19140274659E+01  0.33625706685E+01  0.51100000000E-03 0.  1.
         12    1    3    3    0    0 -0.15816491332E+00 -0.13658691098E+02 -0.15609652209E+02  0.20742374521E+02  0.00000000000E+00 0. -1.
</event>
<event>
 7    1  0.4236733E-010  0.4778727E+02  0.7816164E-02  0.1312668E+00
        -11   -1    0    0    0    0  0.00000000000E+00  0.00000000000E+00  0.45593999997E+02  0.45594000000E+02  0.51100000000E-03 0.  1.
         11   -1    0    0    0    0 -0.00000000000E+00 -0.00000000000E+00 -0.45593999997E+02  0.45594000000E+02  0.51100000000E-03 0. -1.
    9900012    2    1    2    0    0  0.48439973925E+01 -0.42157597705E+02 -0.91047166395E+01  0.47787271664E+02  0.20000002826E+02 0.  0.
        -12    1    1    2    0    0 -0.48439973925E+01  0.42157597705E+02  0.91047166395E+01  0.43400728336E+02  0.00000000000E+00 0.  1.
         11    1    3    3    0    0  0.34601689986E+01 -0.58417696907E+01  0.86936127782E+00  0.68450589413E+01  0.51100000000E-03 0. -1.
        -11    1    3    3    0    0 -0.47650345961E+00 -0.31855772248E+01  0.38287970660E+01  0.50034633041E+01  0.51100000000E-03 0.  1.
         12    1    3    3    0    0  0.18603318535E+01 -0.33130250790E+02 -0.13802874983E+02  0.35938749419E+02  0.00000000000E+00 0. -1.
</event>
<event>
 7    1  0.4236733E-010  0.4778727E+02  0.7816164E-02  0.1312668E+00
        -11   -1    0    0    0    0  0.00000000000E+00  0.00000000000E+00  0.45593999997E+02  0.45594000000E+02  0.51100000000E-03 0. -1.
         11   -1    0    0    0    0 -0.00000000000E+00 -0.00000000000E+00 -0.45593999997E+02  0.45594000000E+02  0.51100000000E-03 0.  1.
    9900012    2    1    2    0    0 -0.91511597016E+01 -0.36460628421E+02  0.21691059012E+02  0.47787272013E+02  0.20000004416E+02 0.  0.
        -12    1    1    2    0    0  0.91511597016E+01  0.36460628421E+02 -0.21691059012E+02  0.43400727987E+02  0.00000000000E+00 0.  1.
         11    1    3    3    0    0 -0.79951570143E+01 -0.19542702817E+02  0.13240846331E+02  0.24923077276E+02  0.51100000000E-03 0. -1.
        -11    1    3    3    0    0 -0.89382043789E+00 -0.19020201531E+02  0.81968346503E+01  0.20730534962E+02  0.51100000000E-03 0.  1.
        -12    1    3    3    0    0 -0.26218224937E+00  0.21022759279E+01  0.25337803156E+00  0.21336597751E+01  0.00000000000E+00 0.  1.
</event>
<event>
 7    1  0.4236733E-010  0.4778727E+02  0.7816164E-02  0.1312668E+00
        -11   -1    0    0    0    0  0.00000000000E+00  0.00000000000E+00  0.45593999997E+02  0.45594000000E+02  0.51100000000E-03 0.  1.
         11   -1    0    0    0    0 -0.00000000000E+00 -0.00000000000E+00 -0.45593999997E+02  0.45594000000E+02  0.51100000000E-03 0. -1.
    9900012    2    1    2    0    0  0.36295187385E+02 -0.20180606453E+02 -0.12610548768E+02  0.47787269081E+02  0.19999991046E+02 0.  0.
        -12    1    1    2    0    0 -0.36295187385E+02  0.20180606453E+02  0.12610548768E+02  0.43400730919E+02  0.00000000000E+00 0.  1.
         11    1    3    3    0    0  0.33830440796E+00 -0.23305879030E+01  0.76794386796E-01  0.23562655804E+01  0.51100000000E-03 0. -1.
        -11    1    3    3    0    0  0.13880698323E+02 -0.10118758948E+01  0.19346167698E+01  0.14051349439E+02  0.51100000000E-03 0.  1.
         12    1    3    3    0    0  0.22076184654E+02 -0.16838142655E+02 -0.14621959925E+02  0.31379654061E+02  0.00000000000E+00 0. -1.
</event>
<event>
 7    1  0.4236733E-010  0.4778727E+02  0.7816164E-02  0.1312668E+00
        -11   -1    0    0    0    0  0.00000000000E+00  0.00000000000E+00  0.45593999997E+02  0.45594000000E+02  0.51100000000E-03 0. -1.
         11   -1    0    0    0    0 -0.00000000000E+00 -0.00000000000E+00 -0.45593999997E+02  0.45594000000E+02  0.51100000000E-03 0.  1.
    9900012    2    1    2    0    0 -0.15891280326E+02 -0.78015010628E+01  0.39626091699E+02  0.47787270138E+02  0.19999995865E+02 0.  0.
        -12    1    1    2    0    0  0.15891280326E+02  0.78015010628E+01 -0.39626091699E+02  0.43400729862E+02  0.00000000000E+00 0.  1.
         11    1    3    3    0    0 -0.13427379617E+02 -0.71240157841E+01  0.16065157740E+02  0.22116406076E+02  0.51100000000E-03 0.  1.
        -11    1    3    3    0    0 -0.47864404611E+01 -0.21685661098E+01  0.63603576373E+01  0.82502630743E+01  0.51100000000E-03 0. -1.
        -12    1    3    3    0    0  0.23225397516E+01  0.14910808311E+01  0.17200576322E+02  0.17420600987E+02  0.00000000000E+00 0.  1.
</event>
<event>
 7    1  0.4236733E-010  0.4778727E+02  0.7816164E-02  0.1312668E+00
        -11   -1    0    0    0    0  0.00000000000E+00  0.00000000000E+00  0.45593999997E+02  0.45594000000E+02  0.51100000000E-03 0.  1.
         11   -1    0    0    0    0 -0.00000000000E+00 -0.00000000000E+00 -0.45593999997E+02  0.45594000000E+02  0.51100000000E-03 0. -1.
    9900012    2    1    2    0    0  0.52436294228E+01 -0.39253144159E+02 -0.17757202286E+02  0.47787271792E+02  0.20000003410E+02 0.  0.
        -12    1    1    2    0    0 -0.52436294228E+01  0.39253144159E+02  0.17757202286E+02  0.43400728208E+02  0.00000000000E+00 0.  1.
         11    1    3    3    0    0  0.19440373237E+01 -0.55737552758E+00 -0.68215420938E+00  0.21343109476E+01  0.51100000000E-03 0. -1.
        -11    1    3    3    0    0  0.43556809982E+01 -0.10818434379E+01 -0.33453723755E+01  0.55976654754E+01  0.51100000000E-03 0.  1.
         12    1    3    3    0    0 -0.10560888992E+01 -0.37613925194E+02 -0.13729675701E+02  0.40055295369E+02  0.00000000000E+00 0. -1.
</event>
<event>
 7    1  0.4236733E-010  0.4778727E+02  0.7816164E-02  0.1312668E+00
        -11   -1    0    0    0    0  0.00000000000E+00  0.00000000000E+00  0.45593999997E+02  0.45594000000E+02  0.51100000000E-03 0.  1.
         11   -1    0    0    0    0 -0.00000000000E+00 -0.00000000000E+00 -0.45593999997E+02  0.45594000000E+02  0.51100000000E-03 0. -1.
    9900012    2    1    2    0    0 -0.44323644395E+01  0.31572671072E+02 -0.29447306534E+02  0.47787271028E+02  0.19999999927E+02 0.  0.
        -12    1    1    2    0    0  0.44323644395E+01 -0.31572671072E+02  0.29447306534E+02  0.43400728972E+02  0.00000000000E+00 0.  1.
         11    1    3    3    0    0  0.27039014150E+01  0.92481332416E+01 -0.67141790899E+01  0.11743902777E+02  0.51100000000E-03 0. -1.
        -11    1    3    3    0    0  0.52702665839E+00  0.11462870401E+02 -0.19067830161E+02  0.22254377148E+02  0.51100000000E-03 0.  1.
        -12    1    3    3    0    0 -0.76632925129E+01  0.10861667429E+02 -0.36652972830E+01  0.13788991104E+02  0.00000000000E+00 0.  1.
</event>
<event>
 7    1  0.4236733E-010  0.4778727E+02  0.7816164E-02  0.1312668E+00
        -11   -1    0    0    0    0  0.00000000000E+00  0.00000000000E+00  0.45593999997E+02  0.45594000000E+02  0.51100000000E-03 0. -1.
         11   -1    0    0    0    0 -0.00000000000E+00 -0.00000000000E+00 -0.45593999997E+02  0.45594000000E+02  0.51100000000E-03 0.  1.
    9900012    2    1    2    0    0 -0.28760634582E+01  0.39822804319E+02  0.17014586648E+02  0.47787266784E+02  0.19999980576E+02 0.  0.
        -12    1    1    2    0    0  0.28760634582E+01 -0.39822804319E+02 -0.17014586648E+02  0.43400733216E+02  0.00000000000E+00 0.  1.
         11    1    3    3    0    0  0.78181308112E+00  0.13400947591E+02  0.78786975386E+01  0.15565041060E+02  0.51100000000E-03 0. -1.
        -11    1    3    3    0    0 -0.20321194453E+01  0.33504048472E+01  0.81842955237E+01  0.90739966697E+01  0.51100000000E-03 0.  1.
         12    1    3    3    0    0 -0.16257570940E+01  0.23071451881E+02  0.95159358608E+00  0.23148229055E+02  0.00000000000E+00 0. -1.
</event>
<event>
 7    1  0.4236733E-010  0.4778728E+02  0.7816164E-02  0.1312668E+00
        -11   -1    0    0    0    0  0.00000000000E+00  0.00000000000E+00  0.45593999997E+02  0.45594000000E+02  0.51100000000E-03 0.  1.
         11   -1    0    0    0    0 -0.00000000000E+00 -0.00000000000E+00 -0.45593999997E+02  0.45594000000E+02  0.51100000000E-03 0. -1.
    9900012    2    1    2    0    0 -0.37775284354E+02  0.75768686002E+01 -0.19981037263E+02  0.47787275399E+02  0.20000019854E+02 0.  0.
        -12    1    1    2    0    0  0.37775284354E+02 -0.75768686002E+01  0.19981037263E+02  0.43400724601E+02  0.00000000000E+00 0.  1.
         11    1    3    3    0    0 -0.10694415527E+02  0.69180232265E+01 -0.47657626005E+01  0.13599340508E+02  0.51100000000E-03 0. -1.
        -11    1    3    3    0    0 -0.15019591708E+02  0.24338833917E+01 -0.69912373534E+00  0.15231569115E+02  0.51100000000E-03 0.  1.
         12    1    3    3    0    0 -0.12061277119E+02 -0.17750380179E+01 -0.14516150927E+02  0.18956365776E+02  0.00000000000E+00 0. -1.
</event>
<event>
 7    1  0.4236733E-010  0.4778727E+02  0.7816164E-02  0.1312668E+00
        -11   -1    0    0    0    0  0.00000000000E+00  0.00000000000E+00  0.45593999997E+02  0.45594000000E+02  0.51100000000E-03 0.  1.
         11   -1    0    0    0    0 -0.00000000000E+00 -0.00000000000E+00 -0.45593999997E+02  0.45594000000E+02  0.51100000000E-03 0. -1.
    9900012    2    1    2    0    0 -0.40266174795E+02  0.15553310426E+02 -0.45114781325E+01  0.47787265758E+02  0.19999975895E+02 0.  0.
        -12    1    1    2    0    0  0.40266174795E+02 -0.15553310426E+02  0.45114781325E+01  0.43400734242E+02  0.00000000000E+00 0.  1.
         11    1    3    3    0    0 -0.10449353746E+02  0.44754654462E+01 -0.72271175660E+01  0.13470338275E+02  0.51100000000E-03 0. -1.
        -11    1    3    3    0    0  0.66532232640E+00  0.93775269722E+00  0.18531441462E+01  0.21808662056E+01  0.51100000000E-03 0.  1.
        -12    1    3    3    0    0 -0.30482143375E+02  0.10140092283E+02  0.86249528734E+00  0.32136061277E+02  0.00000000000E+00 0.  1.
</event>
<event>
 7    1  0.4236733E-010  0.4778727E+02  0.7816164E-02  0.1312668E+00
        -11   -1    0    0    0    0  0.00000000000E+00  0.00000000000E+00  0.45593999997E+02  0.45594000000E+02  0.51100000000E-03 0.  1.
         11   -1    0    0    0    0 -0.00000000000E+00 -0.00000000000E+00 -0.45593999997E+02  0.45594000000E+02  0.51100000000E-03 0. -1.
    9900012    2    1    2    0    0  0.33164846615E+02  0.19709012089E+02 -0.19881417967E+02  0.47787274327E+02  0.20000014967E+02 0.  0.
        -12    1    1    2    0    0 -0.33164846615E+02 -0.19709012089E+02  0.19881417967E+02  0.43400725673E+02  0.00000000000E+00 0.  1.
         11    1    3    3    0    0  0.11109098355E+02  0.61721653559E+01 -0.13102570398E+01  0.12775933046E+02  0.51100000000E-03 0. -1.
        -11    1    3    3    0    0  0.12644575692E+02  0.10142795791E+02 -0.29727116225E+01  0.16480249256E+02  0.51100000000E-03 0.  1.
         12    1    3    3    0    0  0.94111725688E+01  0.33940509424E+01 -0.15598449305E+02  0.18531092025E+02  0.00000000000E+00 0. -1.
</event>
<event>
 7    1  0.4236733E-010  0.4778727E+02  0.7816164E-02  0.1312668E+00
        -11   -1    0    0    0    0  0.00000000000E+00  0.00000000000E+00  0.45593999997E+02  0.45594000000E+02  0.51100000000E-03 0.  1.
         11   -1    0    0    0    0 -0.00000000000E+00 -0.00000000000E+00 -0.45593999997E+02  0.45594000000E+02  0.51100000000E-03 0. -1.
    9900012    2    1    2    0    0  0.31229464442E+02  0.22215266743E+02 -0.20367271196E+02  0.47787271184E+02  0.20000000635E+02 0.  0.
        -12    1    1    2    0    0 -0.31229464442E+02 -0.22215266743E+02  0.20367271196E+02  0.43400728816E+02  0.00000000000E+00 0.  1.
         11    1    3    3    0    0  0.44094241752E+01  0.31355830991E+01  0.23882792158E+01  0.59142861616E+01  0.51100000000E-03 0. -1.
        -11    1    3    3    0    0 -0.96433633730E+00  0.23040285918E+01 -0.28907502790E+01  0.38203311060E+01  0.51100000000E-03 0.  1.
         12    1    3    3    0    0  0.27784376605E+02  0.16775655052E+02 -0.19864800133E+02  0.38052653916E+02  0.00000000000E+00 0. -1.
</event>
<event>
 7    1  0.4236733E-010  0.4778727E+02  0.7816164E-02  0.1312668E+00
        -11   -1    0    0    0    0  0.00000000000E+00  0.00000000000E+00  0.45593999997E+02  0.45594000000E+02  0.51100000000E-03 0.  1.
         11   -1    0    0    0    0 -0.00000000000E+00 -0.00000000000E+00 -0.45593999997E+02  0.45594000000E+02  0.51100000000E-03 0. -1.
    9900012    2    1    2    0    0  0.14534891138E+02 -0.18395691744E+02 -0.36523400130E+02  0.47787270834E+02  0.19999999039E+02 0.  0.
        -12    1    1    2    0    0 -0.14534891138E+02  0.18395691744E+02  0.36523400130E+02  0.43400729166E+02  0.00000000000E+00 0.  1.
         11    1    3    3    0    0  0.22857148123E+01 -0.13555597601E+02 -0.16480978620E+02  0.21461625639E+02  0.51100000000E-03 0. -1.
        -11    1    3    3    0    0  0.32594928607E+01 -0.26670920630E+01  0.44483084749E-01  0.42118467194E+01  0.51100000000E-03 0.  1.
         12    1    3    3    0    0  0.89896834646E+01 -0.21730020802E+01 -0.20086904595E+02  0.22113798476E+02  0.00000000000E+00 0. -1.
</event>
<event>
 7    1  0.4236733E-010  0.4778727E+02  0.7816164E-02  0.1312668E+00
        -11   -1    0    0    0    0  0.00000000000E+00  0.00000000000E+00  0.45593999997E+02  0.45594000000E+02  0.51100000000E-03 0.  1.
         11   -1    0    0    0    0 -0.00000000000E+00 -0.00000000000E+00 -0.45593999997E+02  0.45594000000E+02  0.51100000000E-03 0. -1.
    9900012    2    1    2    0    0  0.43392409579E+01  0.41713796178E+02 -0.11169310256E+02  0.47787270798E+02  0.19999998875E+02 0.  0.
        -12    1    1    2    0    0 -0.43392409579E+01 -0.41713796178E+02  0.11169310256E+02  0.43400729202E+02  0.00000000000E+00 0.  1.
         11    1    3    3    0    0 -0.14858149106E+01 -0.12008265371E+00  0.13870246593E+01  0.20361491740E+01  0.51100000000E-03 0. -1.
        -11    1    3    3    0    0 -0.63446744986E+00  0.20518887948E+02 -0.74833311531E+00  0.20542329816E+02  0.51100000000E-03 0.  1.
         12    1    3    3    0    0  0.64595233184E+01  0.21314990884E+02 -0.11808001800E+02  0.25208791807E+02  0.00000000000E+00 0. -1.
</event>
<event>
 7    1  0.4236733E-010  0.4778727E+02  0.7816164E-02  0.1312668E+00
        -11   -1    0    0    0    0  0.00000000000E+00  0.00000000000E+00  0.45593999997E+02  0.45594000000E+02  0.51100000000E-03 0.  1.
         11   -1    0    0    0    0 -0.00000000000E+00 -0.00000000000E+00 -0.45593999997E+02  0.45594000000E+02  0.51100000000E-03 0. -1.
    9900012    2    1    2    0    0 -0.13751643099E+02 -0.22989296838E+02 -0.34146855877E+02  0.47787271627E+02  0.20000002654E+02 0.  0.
        -12    1    1    2    0    0  0.13751643099E+02  0.22989296838E+02  0.34146855877E+02  0.43400728373E+02  0.00000000000E+00 0.  1.
         11    1    3    3    0    0 -0.82535900419E+01 -0.85282708810E+01 -0.11387527919E+02  0.16447764139E+02  0.51100000000E-03 0. -1.
        -11    1    3    3    0    0 -0.36969809516E+01  0.20900003694E+01 -0.19048056083E+01  0.46544660668E+01  0.51100000000E-03 0.  1.
        -12    1    3    3    0    0 -0.18010721059E+01 -0.16551026326E+02 -0.20854522351E+02  0.26685041421E+02  0.00000000000E+00 0.  1.
</event>
<event>
 7    1  0.4236733E-010  0.4778727E+02  0.7816164E-02  0.1312668E+00
        -11   -1    0    0    0    0  0.00000000000E+00  0.00000000000E+00  0.45593999997E+02  0.45594000000E+02  0.51100000000E-03 0.  1.
         11   -1    0    0    0    0 -0.00000000000E+00 -0.00000000000E+00 -0.45593999997E+02  0.45594000000E+02  0.51100000000E-03 0. -1.
    9900012    2    1    2    0    0  0.25611498927E+02 -0.36850986523E+00 -0.35036244833E+02  0.47787272716E+02  0.20000007621E+02 0.  0.
        -12    1    1    2    0    0 -0.25611498927E+02  0.36850986523E+00  0.35036244833E+02  0.43400727284E+02  0.00000000000E+00 0.  1.
         11    1    3    3    0    0  0.21872592707E+01 -0.43885974961E+01 -0.17392405419E+01  0.52027732051E+01  0.51100000000E-03 0. -1.
        -11    1    3    3    0    0  0.28424166095E+01  0.40992191774E+01 -0.25975889758E+01  0.56240909305E+01  0.51100000000E-03 0.  1.
         12    1    3    3    0    0  0.20581823047E+02 -0.79131546517E-01 -0.30699415315E+02  0.36960408580E+02  0.00000000000E+00 0. -1.
</event>
<event>
 7    1  0.4236733E-010  0.4778727E+02  0.7816164E-02  0.1312668E+00
        -11   -1    0    0    0    0  0.00000000000E+00  0.00000000000E+00  0.45593999997E+02  0.45594000000E+02  0.51100000000E-03 0.  1.
         11   -1    0    0    0    0 -0.00000000000E+00 -0.00000000000E+00 -0.45593999997E+02  0.45594000000E+02  0.51100000000E-03 0. -1.
    9900012    2    1    2    0    0  0.33314755976E+02 -0.19370454671E+02 -0.19963358704E+02  0.47787272234E+02  0.20000005422E+02 0.  0.
        -12    1    1    2    0    0 -0.33314755976E+02  0.19370454671E+02  0.19963358704E+02  0.43400727766E+02  0.00000000000E+00 0.  1.
         11    1    3    3    0    0  0.29397527973E+02 -0.10695362454E+02 -0.20244528262E+02  0.37261861920E+02  0.51100000000E-03 0. -1.
        -11    1    3    3    0    0 -0.28579531799E+00 -0.40838961107E+01 -0.89545217694E+00  0.41906707421E+01  0.51100000000E-03 0.  1.
        -12    1    3    3    0    0  0.42030233213E+01 -0.45911961068E+01  0.11766217352E+01  0.63347395714E+01  0.00000000000E+00 0.  1.
</event>
<event>
 7    1  0.4236733E-010  0.4778727E+02  0.7816164E-02  0.1312668E+00
        -11   -1    0    0    0    0  0.00000000000E+00  0.00000000000E+00  0.45593999997E+02  0.45594000000E+02  0.51100000000E-03 0.  1.
         11   -1    0    0    0    0 -0.00000000000E+00 -0.00000000000E+00 -0.45593999997E+02  0.45594000000E+02  0.51100000000E-03 0. -1.
    9900012    2    1    2    0    0 -0.72985033553E+01 -0.14019578106E+02 -0.40420373664E+02  0.47787270413E+02  0.19999997123E+02 0.  0.
        -12    1    1    2    0    0  0.72985033553E+01  0.14019578106E+02  0.40420373664E+02  0.43400729587E+02  0.00000000000E+00 0.  1.
         11    1    3    3    0    0  0.58265775585E+01 -0.63013644380E+01 -0.12658083973E+02  0.15293243278E+02  0.51100000000E-03 0. -1.
        -11    1    3    3    0    0 -0.75589164760E+00 -0.36998663661E+01 -0.78451980737E+01  0.87067511959E+01  0.51100000000E-03 0.  1.
        -12    1    3    3    0    0 -0.12369189266E+02 -0.40183473019E+01 -0.19917091617E+02  0.23787275940E+02  0.00000000000E+00 0.  1.
</event>
<event>
 7    1  0.4236733E-010  0.4778727E+02  0.7816164E-02  0.1312668E+00
        -11   -1    0    0    0    0  0.00000000000E+00  0.00000000000E+00  0.45593999997E+02  0.45594000000E+02  0.51100000000E-03 0.  1.
         11   -1    0    0    0    0 -0.00000000000E+00 -0.00000000000E+00 -0.45593999997E+02  0.45594000000E+02  0.51100000000E-03 0. -1.
    9900012    2    1    2    0    0 -0.29279165968E+02 -0.32028766471E+02  0.71542915225E+00  0.47787270971E+02  0.19999999663E+02 0.  0.
        -12    1    1    2    0    0  0.29279165968E+02  0.32028766471E+02 -0.71542915225E+00  0.43400729029E+02  0.00000000000E+00 0.  1.
         11    1    3    3    0    0 -0.65865113494E+01 -0.91372512649E+01 -0.19844707062E+01  0.11437203184E+02  0.51100000000E-03 0. -1.
        -11    1    3    3    0    0 -0.16592468480E+02 -0.50092999211E+01  0.19448650929E+01  0.17440917305E+02  0.51100000000E-03 0.  1.
        -12    1    3    3    0    0 -0.61001861385E+01 -0.17882215285E+02  0.75503476564E+00  0.18909150481E+02  0.00000000000E+00 0.  1.
</event>
<event>
 7    1  0.4236733E-010  0.4778727E+02  0.7816164E-02  0.1312668E+00
        -11   -1    0    0    0    0  0.00000000000E+00  0.00000000000E+00  0.45593999997E+02  0.45594000000E+02  0.51100000000E-03 0.  1.
         11   -1    0    0    0    0 -0.00000000000E+00 -0.00000000000E+00 -0.45593999997E+02  0.45594000000E+02  0.51100000000E-03 0. -1.
    9900012    2    1    2    0    0 -0.27154331072E+01  0.20216782726E+02 -0.38308372913E+02  0.47787270559E+02  0.19999997786E+02 0.  0.
        -12    1    1    2    0    0  0.27154331072E+01 -0.20216782726E+02  0.38308372913E+02  0.43400729441E+02  0.00000000000E+00 0.  1.
         11    1    3    3    0    0 -0.77370286823E+00  0.79598720503E+01 -0.20546433297E+02  0.22047995389E+02  0.51100000000E-03 0. -1.
        -11    1    3    3    0    0  0.27804961014E+01 -0.15603152844E+01 -0.67014417801E+01  0.74212576124E+01  0.51100000000E-03 0.  1.
        -12    1    3    3    0    0 -0.47222263404E+01  0.13817225960E+02 -0.11060497836E+02  0.18318017557E+02  0.00000000000E+00 0.  1.
</event>
<event>
 7    1  0.4236733E-010  0.4778725E+02  0.7816164E-02  0.1312668E+00
        -11   -1    0    0    0    0  0.00000000000E+00  0.00000000000E+00  0.45593999997E+02  0.45594000000E+02  0.51100000000E-03 0.  1.
         11   -1    0    0    0    0 -0.00000000000E+00 -0.00000000000E+00 -0.45593999997E+02  0.45594000000E+02  0.51100000000E-03 0. -1.
    9900012    2    1    2    0    0  0.71839159535E+01 -0.56652989693E+01 -0.42425471514E+02  0.47787252379E+02  0.19999914899E+02 0.  0.
        -12    1    1    2    0    0 -0.71839159535E+01  0.56652989693E+01  0.42425471514E+02  0.43400747621E+02  0.00000000000E+00 0.  1.
         11    1    3    3    0    0  0.73745740947E+01 -0.11003622402E+02 -0.19080700042E+02  0.23227939285E+02  0.51100000000E-03 0. -1.
        -11    1    3    3    0    0 -0.11661892099E+01 -0.78821454634E+00 -0.37233149577E+01  0.39804967001E+01  0.51100000000E-03 0.  1.
         12    1    3    3    0    0  0.97553106867E+00  0.61265379790E+01 -0.19621456514E+02  0.20578816395E+02  0.00000000000E+00 0. -1.
</event>
<event>
 7    1  0.4236733E-010  0.4778727E+02  0.7816164E-02  0.1312668E+00
        -11   -1    0    0    0    0  0.00000000000E+00  0.00000000000E+00  0.45593999997E+02  0.45594000000E+02  0.51100000000E-03 0. -1.
         11   -1    0    0    0    0 -0.00000000000E+00 -0.00000000000E+00 -0.45593999997E+02  0.45594000000E+02  0.51100000000E-03 0.  1.
    9900012    2    1    2    0    0 -0.72009981562E+00  0.26401076124E+02  0.34439627619E+02  0.47787270573E+02  0.19999997850E+02 0.  0.
        -12    1    1    2    0    0  0.72009981562E+00 -0.26401076124E+02 -0.34439627619E+02  0.43400729427E+02  0.00000000000E+00 0.  1.
         11    1    3    3    0    0 -0.75927404837E+00  0.31268421658E+01 -0.98012148002E+00  0.33636702256E+01  0.51100000000E-03 0.  1.
        -11    1    3    3    0    0 -0.64145283627E+01  0.11047546179E+02  0.14235277079E+02  0.19126880678E+02  0.51100000000E-03 0. -1.
         12    1    3    3    0    0  0.64537025954E+01  0.12226687780E+02  0.21184472020E+02  0.25296719669E+02  0.00000000000E+00 0. -1.
</event>
<event>
 7    1  0.4236733E-010  0.4778727E+02  0.7816164E-02  0.1312668E+00
        -11   -1    0    0    0    0  0.00000000000E+00  0.00000000000E+00  0.45593999997E+02  0.45594000000E+02  0.51100000000E-03 0. -1.
         11   -1    0    0    0    0 -0.00000000000E+00 -0.00000000000E+00 -0.45593999997E+02  0.45594000000E+02  0.51100000000E-03 0.  1.
    9900012    2    1    2    0    0  0.19957833456E+02 -0.21683483347E+02  0.31861176945E+02  0.47787272325E+02  0.20000005841E+02 0.  0.
        -12    1    1    2    0    0 -0.19957833456E+02  0.21683483347E+02 -0.31861176945E+02  0.43400727675E+02  0.00000000000E+00 0.  1.
         11    1    3    3    0    0  0.13067820125E+02 -0.30761815536E+01  0.10315081081E+02  0.16930201232E+02  0.51100000000E-03 0. -1.
        -11    1    3    3    0    0  0.48242091950E+01 -0.61233416560E+01  0.14270351507E+02  0.16260726914E+02  0.51100000000E-03 0.  1.
        -12    1    3    3    0    0  0.20658041358E+01 -0.12483960138E+02  0.72757443575E+01  0.14596344179E+02  0.00000000000E+00 0.  1.
</event>
<event>
 7    1  0.4236733E-010  0.4778728E+02  0.7816164E-02  0.1312668E+00
        -11   -1    0    0    0    0  0.00000000000E+00  0.00000000000E+00  0.45593999997E+02  0.45594000000E+02  0.51100000000E-03 0.  1.
         11   -1    0    0    0    0 -0.00000000000E+00 -0.00000000000E+00 -0.45593999997E+02  0.45594000000E+02  0.51100000000E-03 0. -1.
    9900012    2    1    2    0    0 -0.24627852639E+02 -0.21507384840E+02  0.28539855541E+02  0.47787284769E+02  0.20000062576E+02 0.  0.
        -12    1    1    2    0    0  0.24627852639E+02  0.21507384840E+02 -0.28539855541E+02  0.43400715231E+02  0.00000000000E+00 0.  1.
         11    1    3    3    0    0 -0.65295839270E+01 -0.65895652990E+01  0.99113440213E+01  0.13575440238E+02  0.51100000000E-03 0. -1.
        -11    1    3    3    0    0  0.31836971892E+01 -0.13614006450E+01  0.22508397606E+01  0.41298449604E+01  0.51100000000E-03 0.  1.
        -12    1    3    3    0    0 -0.21281965901E+02 -0.13556418896E+02  0.16377671759E+02  0.30081999570E+02  0.00000000000E+00 0.  1.
</event>
<event>
 7    1  0.4236733E-010  0.4778727E+02  0.7816164E-02  0.1312668E+00
        -11   -1    0    0    0    0  0.00000000000E+00  0.00000000000E+00  0.45593999997E+02  0.45594000000E+02  0.51100000000E-03 0. -1.
         11   -1    0    0    0    0 -0.00000000000E+00 -0.00000000000E+00 -0.45593999997E+02  0.45594000000E+02  0.51100000000E-03 0.  1.
    9900012    2    1    2    0    0 -0.29484363268E+02 -0.31133287923E+02  0.67092376109E+01  0.47787272315E+02  0.20000005793E+02 0.  0.
        -12    1    1    2    0    0  0.29484363268E+02  0.31133287923E+02 -0.67092376109E+01  0.43400727685E+02  0.00000000000E+00 0.  1.
         11    1    3    3    0    0 -0.17570408079E+02 -0.20015038595E+02 -0.33625498271E+00  0.26635203730E+02  0.51100000000E-03 0. -1.
        -11    1    3    3    0    0 -0.12151837491E+02 -0.45085315548E+01  0.27035382791E+01  0.13240208861E+02  0.51100000000E-03 0.  1.
        -12    1    3    3    0    0  0.23788230199E+00 -0.66097177732E+01  0.43419543144E+01  0.79118597245E+01  0.00000000000E+00 0.  1.
</event>
<event>
 7    1  0.4236733E-010  0.4778727E+02  0.7816164E-02  0.1312668E+00
        -11   -1    0    0    0    0  0.00000000000E+00  0.00000000000E+00  0.45593999997E+02  0.45594000000E+02  0.51100000000E-03 0. -1.
         11   -1    0    0    0    0 -0.00000000000E+00 -0.00000000000E+00 -0.45593999997E+02  0.45594000000E+02  0.51100000000E-03 0.  1.
    9900012    2    1    2    0    0  0.74520974919E+01  0.41923417869E+02 -0.83973977363E+01  0.47787274066E+02  0.20000013776E+02 0.  0.
        -12    1    1    2    0    0 -0.74520974919E+01 -0.41923417869E+02  0.83973977363E+01  0.43400725934E+02  0.00000000000E+00 0.  1.
         11    1    3    3    0    0  0.37873396822E+01  0.71787742847E+01 -0.55540505494E+01  0.98349489000E+01  0.51100000000E-03 0. -1.
        -11    1    3    3    0    0  0.43053532609E+01  0.44482485454E+01 -0.44225814824E+01  0.76080358209E+01  0.51100000000E-03 0.  1.
        -12    1    3    3    0    0 -0.64059545114E+00  0.30296395039E+02  0.15792342955E+01  0.30344289345E+02  0.00000000000E+00 0.  1.
</event>
<event>
 7    1  0.4236733E-010  0.4778727E+02  0.7816164E-02  0.1312668E+00
        -11   -1    0    0    0    0  0.00000000000E+00  0.00000000000E+00  0.45593999997E+02  0.45594000000E+02  0.51100000000E-03 0.  1.
         11   -1    0    0    0    0 -0.00000000000E+00 -0.00000000000E+00 -0.45593999997E+02  0.45594000000E+02  0.51100000000E-03 0. -1.
    9900012    2    1    2    0    0  0.22436998498E+02 -0.35444830264E+02 -0.11129613112E+02  0.47787272102E+02  0.20000004822E+02 0.  0.
        -12    1    1    2    0    0 -0.22436998498E+02  0.35444830264E+02  0.11129613112E+02  0.43400727898E+02  0.00000000000E+00 0.  1.
         11    1    3    3    0    0  0.15389868118E+02 -0.14204848163E+02 -0.13064393864E+02  0.24684086763E+02  0.51100000000E-03 0. -1.
        -11    1    3    3    0    0  0.26481903325E+01 -0.78269581971E+01  0.33508080723E+01  0.89163951042E+01  0.51100000000E-03 0.  1.
         12    1    3    3    0    0  0.43989400473E+01 -0.13413023904E+02 -0.14160273203E+01  0.14186790235E+02  0.00000000000E+00 0. -1.
</event>
<event>
 7    1  0.4236733E-010  0.4778728E+02  0.7816164E-02  0.1312668E+00
        -11   -1    0    0    0    0  0.00000000000E+00  0.00000000000E+00  0.45593999997E+02  0.45594000000E+02  0.51100000000E-03 0.  1.
         11   -1    0    0    0    0 -0.00000000000E+00 -0.00000000000E+00 -0.45593999997E+02  0.45594000000E+02  0.51100000000E-03 0. -1.
    9900012    2    1    2    0    0  0.27932544022E+02  0.18193067708E+02 -0.27792218704E+02  0.47787284007E+02  0.20000059103E+02 0.  0.
        -12    1    1    2    0    0 -0.27932544022E+02 -0.18193067708E+02  0.27792218704E+02  0.43400715993E+02  0.00000000000E+00 0.  1.
         11    1    3    3    0    0  0.64408641896E+01  0.15606939203E+01 -0.15286085171E+02  0.16660879242E+02  0.51100000000E-03 0.  1.
        -11    1    3    3    0    0  0.85968905352E+01  0.17395447570E+01 -0.45481691009E+01  0.98802016816E+01  0.51100000000E-03 0. -1.
        -12    1    3    3    0    0  0.12894789297E+02  0.14892829031E+02 -0.79579644323E+01  0.21246203084E+02  0.00000000000E+00 0.  1.
</event>
<event>
 7    1  0.4236733E-010  0.4778727E+02  0.7816164E-02  0.1312668E+00
        -11   -1    0    0    0    0  0.00000000000E+00  0.00000000000E+00  0.45593999997E+02  0.45594000000E+02  0.51100000000E-03 0. -1.
         11   -1    0    0    0    0 -0.00000000000E+00 -0.00000000000E+00 -0.45593999997E+02  0.45594000000E+02  0.51100000000E-03 0.  1.
    9900012    2    1    2    0    0  0.24251519043E+02 -0.45819038317E+01  0.35700047548E+02  0.47787269435E+02  0.19999992663E+02 0.  0.
        -12    1    1    2    0    0 -0.24251519043E+02  0.45819038317E+01 -0.35700047548E+02  0.43400730565E+02  0.00000000000E+00 0.  1.
         11    1    3    3    0    0 -0.67219685658E+00  0.14614754859E+01  0.16516552838E+01  0.23055855324E+01  0.51100000000E-03 0. -1.
        -11    1    3    3    0    0 -0.40116799867E-01 -0.22060308361E+01 -0.88235592699E+00  0.23762856836E+01  0.51100000000E-03 0.  1.
         12    1    3    3    0    0  0.24963832699E+02 -0.38373484815E+01  0.34930748192E+02  0.43105398219E+02  0.00000000000E+00 0. -1.
</event>
<event>
 7    1  0.4236733E-010  0.4778727E+02  0.7816164E-02  0.1312668E+00
        -11   -1    0    0    0    0  0.00000000000E+00  0.00000000000E+00  0.45593999997E+02  0.45594000000E+02  0.51100000000E-03 0. -1.
         11   -1    0    0    0    0 -0.00000000000E+00 -0.00000000000E+00 -0.45593999997E+02  0.45594000000E+02  0.51100000000E-03 0.  1.
    9900012    2    1    2    0    0 -0.13072706646E+02 -0.21408565438E+00  0.41384555973E+02  0.47787274605E+02  0.20000016234E+02 0.  0.
        -12    1    1    2    0    0  0.13072706646E+02  0.21408565438E+00 -0.41384555973E+02  0.43400725395E+02  0.00000000000E+00 0.  1.
         11    1    3    3    0    0  0.61359938156E+00 -0.30158886543E+01  0.16747784955E+01  0.35038510023E+01  0.51100000000E-03 0. -1.
        -11    1    3    3    0    0 -0.19270022120E+01  0.18546297759E+01 -0.18498244450E+00  0.26808968456E+01  0.51100000000E-03 0.  1.
         12    1    3    3    0    0 -0.11759303816E+02  0.94717322401E+00  0.39894759922E+02  0.41602526757E+02  0.00000000000E+00 0. -1.
</event>
<event>
 7    1  0.4236733E-010  0.4778725E+02  0.7816164E-02  0.1312668E+00
        -11   -1    0    0    0    0  0.00000000000E+00  0.00000000000E+00  0.45593999997E+02  0.45594000000E+02  0.51100000000E-03 0.  1.
         11   -1    0    0    0    0 -0.00000000000E+00 -0.00000000000E+00 -0.45593999997E+02  0.45594000000E+02  0.51100000000E-03 0. -1.
    9900012    2    1    2    0    0  0.39965588584E+02  0.57687897739E+01  0.15909050033E+02  0.47787250246E+02  0.19999905170E+02 0.  0.
        -12    1    1    2    0    0 -0.39965588584E+02 -0.57687897739E+01 -0.15909050033E+02  0.43400749754E+02  0.00000000000E+00 0.  1.
         11    1    3    3    0    0  0.24668399934E+01 -0.24166846391E+01  0.34511037310E+01  0.48821902279E+01  0.51100000000E-03 0.  1.
        -11    1    3    3    0    0  0.28793528951E+02  0.18957528318E+01  0.13969587252E+02  0.32059484658E+02  0.51100000000E-03 0. -1.
         12    1    3    3    0    0  0.87052196388E+01  0.62897215811E+01 -0.15116409499E+01  0.10845575360E+02  0.00000000000E+00 0. -1.
</event>
<event>
 7    1  0.4236733E-010  0.4778726E+02  0.7816164E-02  0.1312668E+00
        -11   -1    0    0    0    0  0.00000000000E+00  0.00000000000E+00  0.45593999997E+02  0.45594000000E+02  0.51100000000E-03 0.  1.
         11   -1    0    0    0    0 -0.00000000000E+00 -0.00000000000E+00 -0.45593999997E+02  0.45594000000E+02  0.51100000000E-03 0. -1.
    9900012    2    1    2    0    0  0.22947234070E+02  0.40054467279E+00 -0.36835960567E+02  0.47787262928E+02  0.19999962993E+02 0.  0.
        -12    1    1    2    0    0 -0.22947234070E+02 -0.40054467279E+00  0.36835960567E+02  0.43400737072E+02  0.00000000000E+00 0.  1.
         11    1    3    3    0    0  0.48330419081E+01  0.66330605644E+00 -0.13537931557E+02  0.14390061157E+02  0.51100000000E-03 0. -1.
        -11    1    3    3    0    0  0.11321316689E+02 -0.78104028731E+01 -0.12722642615E+02  0.18736067890E+02  0.51100000000E-03 0.  1.
         12    1    3    3    0    0  0.67928754729E+01  0.75476414895E+01 -0.10575386395E+02  0.14661133880E+02  0.00000000000E+00 0. -1.
</event>
<event>
 7    1  0.4236733E-010  0.4778727E+02  0.7816164E-02  0.1312668E+00
        -11   -1    0    0    0    0  0.00000000000E+00  0.00000000000E+00  0.45593999997E+02  0.45594000000E+02  0.51100000000E-03 0. -1.
         11   -1    0    0    0    0 -0.00000000000E+00 -0.00000000000E+00 -0.45593999997E+02  0.45594000000E+02  0.51100000000E-03 0.  1.
    9900012    2    1    2    0    0  0.36138467614E+02  0.23950781427E+02  0.19985527129E+01  0.47787274367E+02  0.20000015151E+02 0.  0.
        -12    1    1    2    0    0 -0.36138467614E+02 -0.23950781427E+02 -0.19985527129E+01  0.43400725633E+02  0.00000000000E+00 0.  1.
         11    1    3    3    0    0  0.19123422768E+02  0.18891995273E+02  0.39537328566E+01  0.27170660418E+02  0.51100000000E-03 0. -1.
        -11    1    3    3    0    0  0.84524431260E+00  0.23074030653E+01  0.26161842194E+01  0.35892850242E+01  0.51100000000E-03 0.  1.
         12    1    3    3    0    0  0.16169800533E+02  0.27513830886E+01 -0.45713643631E+01  0.17027328925E+02  0.00000000000E+00 0. -1.
</event>
<event>
 7    1  0.4236733E-010  0.4778727E+02  0.7816164E-02  0.1312668E+00
        -11   -1    0    0    0    0  0.00000000000E+00  0.00000000000E+00  0.45593999997E+02  0.45594000000E+02  0.51100000000E-03 0.  1.
         11   -1    0    0    0    0 -0.00000000000E+00 -0.00000000000E+00 -0.45593999997E+02  0.45594000000E+02  0.51100000000E-03 0. -1.
    9900012    2    1    2    0    0 -0.22206512949E+02  0.12531412700E+02 -0.35120617084E+02  0.47787271136E+02  0.20000000415E+02 0.  0.
        -12    1    1    2    0    0  0.22206512949E+02 -0.12531412700E+02  0.35120617084E+02  0.43400728864E+02  0.00000000000E+00 0.  1.
         11    1    3    3    0    0 -0.11477632639E+01 -0.35269459086E+01 -0.35888357363E+01  0.51610512645E+01  0.51100000000E-03 0. -1.
        -11    1    3    3    0    0 -0.39594629222E+01  0.69196354074E+01 -0.39111144442E+01  0.88800629086E+01  0.51100000000E-03 0.  1.
         12    1    3    3    0    0 -0.17099286763E+02  0.91387232016E+01 -0.27620666903E+02  0.33746156962E+02  0.00000000000E+00 0. -1.
</event>
<event>
 7    1  0.4236733E-010  0.4778728E+02  0.7816164E-02  0.1312668E+00
        -11   -1    0    0    0    0  0.00000000000E+00  0.00000000000E+00  0.45593999997E+02  0.45594000000E+02  0.51100000000E-03 0.  1.
         11   -1    0    0    0    0 -0.00000000000E+00 -0.00000000000E+00 -0.45593999997E+02  0.45594000000E+02  0.51100000000E-03 0. -1.
    9900012    2    1    2    0    0  0.35037310639E+02  0.19509493556E+02 -0.16594849944E+02  0.47787279726E+02  0.20000039583E+02 0.  0.
        -12    1    1    2    0    0 -0.35037310639E+02 -0.19509493556E+02  0.16594849944E+02  0.43400720274E+02  0.00000000000E+00 0.  1.
         11    1    3    3    0    0  0.16575387689E+02  0.53788200061E+01  0.15412860971E+00  0.17426960079E+02  0.51100000000E-03 0. -1.
        -11    1    3    3    0    0  0.48206089499E+01  0.56208986532E+01 -0.37808667521E+00  0.74145614916E+01  0.51100000000E-03 0.  1.
        -12    1    3    3    0    0  0.13641314000E+02  0.85097748970E+01 -0.16370891878E+02  0.22945758155E+02  0.00000000000E+00 0.  1.
</event>
<event>
 7    1  0.4236733E-010  0.4778727E+02  0.7816164E-02  0.1312668E+00
        -11   -1    0    0    0    0  0.00000000000E+00  0.00000000000E+00  0.45593999997E+02  0.45594000000E+02  0.51100000000E-03 0. -1.
         11   -1    0    0    0    0 -0.00000000000E+00 -0.00000000000E+00 -0.45593999997E+02  0.45594000000E+02  0.51100000000E-03 0.  1.
    9900012    2    1    2    0    0 -0.56290061453E+01 -0.33048923099E+01  0.42907052943E+02  0.47787271715E+02  0.20000003058E+02 0.  0.
        -12    1    1    2    0    0  0.56290061453E+01  0.33048923099E+01 -0.42907052943E+02  0.43400728285E+02  0.00000000000E+00 0.  1.
         11    1    3    3    0    0 -0.43040332343E+01  0.46682599556E+01  0.11638720662E+02  0.13258098356E+02  0.51100000000E-03 0. -1.
        -11    1    3    3    0    0  0.38286185316E+01 -0.84767609044E+00  0.19202477702E+02  0.19598776104E+02  0.51100000000E-03 0.  1.
        -12    1    3    3    0    0 -0.51535914426E+01 -0.71254761750E+01  0.12065854579E+02  0.14930397255E+02  0.00000000000E+00 0.  1.
</event>
<event>
 7    1  0.4236733E-010  0.4778728E+02  0.7816164E-02  0.1312668E+00
        -11   -1    0    0    0    0  0.00000000000E+00  0.00000000000E+00  0.45593999997E+02  0.45594000000E+02  0.51100000000E-03 0. -1.
         11   -1    0    0    0    0 -0.00000000000E+00 -0.00000000000E+00 -0.45593999997E+02  0.45594000000E+02  0.51100000000E-03 0.  1.
    9900012    2    1    2    0    0  0.64417115615E+01  0.41613601379E+02  0.10508800833E+02  0.47787281544E+02  0.20000047871E+02 0.  0.
        -12    1    1    2    0    0 -0.64417115615E+01 -0.41613601379E+02 -0.10508800833E+02  0.43400718456E+02  0.00000000000E+00 0.  1.
         11    1    3    3    0    0  0.38621899302E+01  0.12216329768E+02 -0.68261263840E+00  0.12830478726E+02  0.51100000000E-03 0. -1.
        -11    1    3    3    0    0  0.37448522415E+01  0.20776840429E+01  0.55944193518E+01  0.70454394780E+01  0.51100000000E-03 0.  1.
         12    1    3    3    0    0 -0.11653306103E+01  0.27319587568E+02  0.55969941196E+01  0.27911363340E+02  0.00000000000E+00 0. -1.
</event>
<event>
 7    1  0.4236733E-010  0.4778727E+02  0.7816164E-02  0.1312668E+00
        -11   -1    0    0    0    0  0.00000000000E+00  0.00000000000E+00  0.45593999997E+02  0.45594000000E+02  0.51100000000E-03 0.  1.
         11   -1    0    0    0    0 -0.00000000000E+00 -0.00000000000E+00 -0.45593999997E+02  0.45594000000E+02  0.51100000000E-03 0. -1.
    9900012    2    1    2    0    0  0.11023638568E+02 -0.39428515439E+02 -0.14404680740E+02  0.47787271155E+02  0.20000000506E+02 0.  0.
        -12    1    1    2    0    0 -0.11023638568E+02  0.39428515439E+02  0.14404680740E+02  0.43400728845E+02  0.00000000000E+00 0.  1.
         11    1    3    3    0    0  0.50679420862E+01 -0.17360642032E+02 -0.47060604898E+01  0.18687507441E+02  0.51100000000E-03 0. -1.
        -11    1    3    3    0    0  0.54231834747E+01 -0.42779795491E+01  0.26921445438E+01  0.74134789761E+01  0.51100000000E-03 0.  1.
        -12    1    3    3    0    0  0.53251300735E+00 -0.17789893858E+02 -0.12390764794E+02  0.21686284739E+02  0.00000000000E+00 0.  1.
</event>
<event>
 7    1  0.4236733E-010  0.4778727E+02  0.7816164E-02  0.1312668E+00
        -11   -1    0    0    0    0  0.00000000000E+00  0.00000000000E+00  0.45593999997E+02  0.45594000000E+02  0.51100000000E-03 0.  1.
         11   -1    0    0    0    0 -0.00000000000E+00 -0.00000000000E+00 -0.45593999997E+02  0.45594000000E+02  0.51100000000E-03 0. -1.
    9900012    2    1    2    0    0 -0.16645709405E+02 -0.18473852550E+02 -0.35570503404E+02  0.47787267494E+02  0.19999983814E+02 0.  0.
        -12    1    1    2    0    0  0.16645709405E+02  0.18473852550E+02  0.35570503404E+02  0.43400732506E+02  0.00000000000E+00 0.  1.
         11    1    3    3    0    0 -0.10196094321E+02 -0.40741713502E+01 -0.83721592381E+01  0.13807688517E+02  0.51100000000E-03 0. -1.
        -11    1    3    3    0    0 -0.84875464786E+01 -0.55886904807E+01 -0.86548611089E+01  0.13348352992E+02  0.51100000000E-03 0.  1.
         12    1    3    3    0    0  0.20379313952E+01 -0.88109907193E+01 -0.18543483057E+02  0.20631225986E+02  0.00000000000E+00 0. -1.
</event>
<event>
 7    1  0.4236733E-010  0.4778727E+02  0.7816164E-02  0.1312668E+00
        -11   -1    0    0    0    0  0.00000000000E+00  0.00000000000E+00  0.45593999997E+02  0.45594000000E+02  0.51100000000E-03 0.  1.
         11   -1    0    0    0    0 -0.00000000000E+00 -0.00000000000E+00 -0.45593999997E+02  0.45594000000E+02  0.51100000000E-03 0. -1.
    9900012    2    1    2    0    0 -0.76151136347E+01  0.34997427570E+02 -0.24511493927E+02  0.47787271588E+02  0.20000002477E+02 0.  0.
        -12    1    1    2    0    0  0.76151136347E+01 -0.34997427570E+02  0.24511493927E+02  0.43400728412E+02  0.00000000000E+00 0.  1.
         11    1    3    3    0    0 -0.47582330381E+01  0.13427355121E+02 -0.94104821597E+01  0.17073131580E+02  0.51100000000E-03 0.  1.
        -11    1    3    3    0    0 -0.44008463122E+01  0.18385726546E+02 -0.18026967183E+02  0.26122288088E+02  0.51100000000E-03 0. -1.
        -12    1    3    3    0    0  0.15439657156E+01  0.31843459030E+01  0.29259554155E+01  0.45918519200E+01  0.00000000000E+00 0.  1.
</event>
<event>
 7    1  0.4236733E-010  0.4778727E+02  0.7816164E-02  0.1312668E+00
        -11   -1    0    0    0    0  0.00000000000E+00  0.00000000000E+00  0.45593999997E+02  0.45594000000E+02  0.51100000000E-03 0.  1.
         11   -1    0    0    0    0 -0.00000000000E+00 -0.00000000000E+00 -0.45593999997E+02  0.45594000000E+02  0.51100000000E-03 0. -1.
    9900012    2    1    2    0    0  0.34665601088E+01  0.33501107835E+02 -0.27373015100E+02  0.47787271655E+02  0.20000002784E+02 0.  0.
        -12    1    1    2    0    0 -0.34665601088E+01 -0.33501107835E+02  0.27373015100E+02  0.43400728345E+02  0.00000000000E+00 0.  1.
         11    1    3    3    0    0  0.43121894828E+01  0.36583033019E+01 -0.10274043501E+02  0.11727494673E+02  0.51100000000E-03 0. -1.
        -11    1    3    3    0    0  0.48774210747E+01  0.14221153622E+02 -0.93695483876E+01  0.17714933924E+02  0.51100000000E-03 0.  1.
        -12    1    3    3    0    0 -0.57230504486E+01  0.15621650912E+02 -0.77294232116E+01  0.18344843058E+02  0.00000000000E+00 0.  1.
</event>
<event>
 7    1  0.4236733E-010  0.4778727E+02  0.7816164E-02  0.1312668E+00
        -11   -1    0    0    0    0  0.00000000000E+00  0.00000000000E+00  0.45593999997E+02  0.45594000000E+02  0.51100000000E-03 0.  1.
         11   -1    0    0    0    0 -0.00000000000E+00 -0.00000000000E+00 -0.45593999997E+02  0.45594000000E+02  0.51100000000E-03 0. -1.
    9900012    2    1    2    0    0 -0.40304938677E+02 -0.16097666559E+02 -0.19391163450E-01  0.47787270439E+02  0.19999997240E+02 0.  0.
        -12    1    1    2    0    0  0.40304938677E+02  0.16097666559E+02  0.19391163450E-01  0.43400729561E+02  0.00000000000E+00 0.  1.
         11    1    3    3    0    0 -0.24859033430E+01 -0.79511678782E+00 -0.30438471177E+01  0.40096049274E+01  0.51100000000E-03 0. -1.
        -11    1    3    3    0    0 -0.44391978772E+01 -0.33962523891E+01 -0.49337642353E+01  0.74554032671E+01  0.51100000000E-03 0.  1.
        -12    1    3    3    0    0 -0.33379837457E+02 -0.11906297382E+02  0.79582201896E+01  0.36322262245E+02  0.00000000000E+00 0.  1.
</event>
<event>
 7    1  0.4236733E-010  0.4778728E+02  0.7816164E-02  0.1312668E+00
        -11   -1    0    0    0    0  0.00000000000E+00  0.00000000000E+00  0.45593999997E+02  0.45594000000E+02  0.51100000000E-03 0. -1.
         11   -1    0    0    0    0 -0.00000000000E+00 -0.00000000000E+00 -0.45593999997E+02  0.45594000000E+02  0.51100000000E-03 0.  1.
    9900012    2    1    2    0    0 -0.38889151429E+02 -0.80201399874E+01 -0.17519527199E+02  0.47787279066E+02  0.20000036575E+02 0.  0.
        -12    1    1    2    0    0  0.38889151429E+02  0.80201399874E+01  0.17519527199E+02  0.43400720934E+02  0.00000000000E+00 0.  1.
         11    1    3    3    0    0 -0.74379864391E-01  0.33814236459E+01 -0.16399423626E+01  0.37588521454E+01  0.51100000000E-03 0. -1.
        -11    1    3    3    0    0 -0.65923959901E+01 -0.46877899323E+01 -0.21876471278E+01  0.83797887537E+01  0.51100000000E-03 0.  1.
         12    1    3    3    0    0 -0.32222375574E+02 -0.67137737011E+01 -0.13691937708E+02  0.35648638167E+02  0.00000000000E+00 0. -1.
</event>
<event>
 7    1  0.7405043E-010  0.4778727E+02  0.7816164E-02  0.1312668E+00
        -11   -1    0    0    0    0  0.00000000000E+00  0.00000000000E+00  0.45593999997E+02  0.45594000000E+02  0.51100000000E-03 0.  1.
         11   -1    0    0    0    0 -0.00000000000E+00 -0.00000000000E+00 -0.45593999997E+02  0.45594000000E+02  0.51100000000E-03 0. -1.
    9900012    2    1    2    0    0 -0.16771138787E+02  0.34072536208E+02 -0.21009869867E+02  0.47787268996E+02  0.19999990660E+02 0.  0.
        -12    1    1    2    0    0  0.16771138787E+02 -0.34072536208E+02  0.21009869867E+02  0.43400731004E+02  0.00000000000E+00 0.  1.
         11    1    3    3    0    0 -0.13153419639E+02  0.16793786145E+02 -0.11946809759E+02  0.24449334653E+02  0.51100000000E-03 0. -1.
        -11    1    3    3    0    0 -0.42084304434E+01  0.23124926839E+01  0.14761045198E+01  0.50236833125E+01  0.51100000000E-03 0.  1.
        -12    1    3    3    0    0  0.59071129528E+00  0.14966257378E+02 -0.10539164627E+02  0.18314251030E+02  0.00000000000E+00 0.  1.
</event>
<event>
 7    1  0.4236733E-010  0.4778727E+02  0.7816164E-02  0.1312668E+00
        -11   -1    0    0    0    0  0.00000000000E+00  0.00000000000E+00  0.45593999997E+02  0.45594000000E+02  0.51100000000E-03 0.  1.
         11   -1    0    0    0    0 -0.00000000000E+00 -0.00000000000E+00 -0.45593999997E+02  0.45594000000E+02  0.51100000000E-03 0. -1.
    9900012    2    1    2    0    0 -0.33583311700E+01 -0.43265606952E+02 -0.65744891800E+00  0.47787269911E+02  0.19999994832E+02 0.  0.
        -12    1    1    2    0    0  0.33583311700E+01  0.43265606952E+02  0.65744891800E+00  0.43400730089E+02  0.00000000000E+00 0.  1.
         11    1    3    3    0    0  0.28035854861E+00 -0.11635064144E+02 -0.45465919553E+01  0.12494991685E+02  0.51100000000E-03 0. -1.
        -11    1    3    3    0    0 -0.50603906774E+01 -0.12215568404E+02 -0.46755237887E+01  0.14024556614E+02  0.51100000000E-03 0.  1.
        -12    1    3    3    0    0  0.14217009589E+01 -0.19414974404E+02  0.85646668260E+01  0.21267721612E+02  0.00000000000E+00 0.  1.
</event>
<event>
 7    1  0.4236733E-010  0.4778727E+02  0.7816164E-02  0.1312668E+00
        -11   -1    0    0    0    0  0.00000000000E+00  0.00000000000E+00  0.45593999997E+02  0.45594000000E+02  0.51100000000E-03 0.  1.
         11   -1    0    0    0    0 -0.00000000000E+00 -0.00000000000E+00 -0.45593999997E+02  0.45594000000E+02  0.51100000000E-03 0. -1.
    9900012    2    1    2    0    0 -0.92691058498E+01 -0.38672484852E+02 -0.17382357781E+02  0.47787265330E+02  0.19999973946E+02 0.  0.
        -12    1    1    2    0    0  0.92691058498E+01  0.38672484852E+02  0.17382357781E+02  0.43400734670E+02  0.00000000000E+00 0.  1.
         11    1    3    3    0    0 -0.55547266493E+01 -0.19790602279E+02 -0.11368058530E+02  0.23489480235E+02  0.51100000000E-03 0. -1.
        -11    1    3    3    0    0 -0.37541671231E+01 -0.21029331173E+02 -0.50919240580E+01  0.21960287595E+02  0.51100000000E-03 0.  1.
        -12    1    3    3    0    0  0.39787922604E-01  0.21474485999E+01 -0.92237519327E+00  0.23374975006E+01  0.00000000000E+00 0.  1.
</event>
<event>
 7    1  0.4236733E-010  0.4778727E+02  0.7816164E-02  0.1312668E+00
        -11   -1    0    0    0    0  0.00000000000E+00  0.00000000000E+00  0.45593999997E+02  0.45594000000E+02  0.51100000000E-03 0.  1.
         11   -1    0    0    0    0 -0.00000000000E+00 -0.00000000000E+00 -0.45593999997E+02  0.45594000000E+02  0.51100000000E-03 0. -1.
    9900012    2    1    2    0    0 -0.17296957218E+02 -0.46082937033E+01 -0.39537353240E+02  0.47787269578E+02  0.19999993316E+02 0.  0.
        -12    1    1    2    0    0  0.17296957218E+02  0.46082937033E+01  0.39537353240E+02  0.43400730422E+02  0.00000000000E+00 0.  1.
         11    1    3    3    0    0  0.90368084918E+00  0.18237457007E+01 -0.24465145980E+01  0.31824709578E+01  0.51100000000E-03 0. -1.
        -11    1    3    3    0    0 -0.36702915415E+01 -0.60253780595E+01 -0.32373839346E+01  0.77625302422E+01  0.51100000000E-03 0.  1.
         12    1    3    3    0    0 -0.14530346526E+02 -0.40666134447E+00 -0.33853454708E+02  0.36842268378E+02  0.00000000000E+00 0. -1.
</event>
<event>
 7    1  0.4236733E-010  0.4778727E+02  0.7816164E-02  0.1312668E+00
        -11   -1    0    0    0    0  0.00000000000E+00  0.00000000000E+00  0.45593999997E+02  0.45594000000E+02  0.51100000000E-03 0. -1.
         11   -1    0    0    0    0 -0.00000000000E+00 -0.00000000000E+00 -0.45593999997E+02  0.45594000000E+02  0.51100000000E-03 0.  1.
    9900012    2    1    2    0    0 -0.39759643464E+01 -0.40667574478E+02 -0.14627479250E+02  0.47787273559E+02  0.20000011467E+02 0.  0.
        -12    1    1    2    0    0  0.39759643464E+01  0.40667574478E+02  0.14627479250E+02  0.43400726441E+02  0.00000000000E+00 0.  1.
         11    1    3    3    0    0 -0.54930290850E+01 -0.20848737306E+02  0.11678524512E+01  0.21591829367E+02  0.51100000000E-03 0. -1.
        -11    1    3    3    0    0 -0.19719749140E+01 -0.22947928702E+01 -0.21115126261E+01  0.36896131518E+01  0.51100000000E-03 0.  1.
         12    1    3    3    0    0  0.34890396525E+01 -0.17524044301E+02 -0.13683819075E+02  0.22505831041E+02  0.00000000000E+00 0. -1.
</event>
<event>
 7    1  0.4236733E-010  0.4778727E+02  0.7816164E-02  0.1312668E+00
        -11   -1    0    0    0    0  0.00000000000E+00  0.00000000000E+00  0.45593999997E+02  0.45594000000E+02  0.51100000000E-03 0. -1.
         11   -1    0    0    0    0 -0.00000000000E+00 -0.00000000000E+00 -0.45593999997E+02  0.45594000000E+02  0.51100000000E-03 0.  1.
    9900012    2    1    2    0    0  0.28910267426E+01  0.26459678505E+02  0.34280470353E+02  0.47787271091E+02  0.20000000212E+02 0.  0.
        -12    1    1    2    0    0 -0.28910267426E+01 -0.26459678505E+02 -0.34280470353E+02  0.43400728909E+02  0.00000000000E+00 0.  1.
         11    1    3    3    0    0 -0.14388930558E+01 -0.27320807487E+00  0.19178679894E+00  0.14771047070E+01  0.51100000000E-03 0. -1.
        -11    1    3    3    0    0  0.40700586992E+01  0.67448053619E+00  0.10991004460E+01  0.42694641187E+01  0.51100000000E-03 0.  1.
         12    1    3    3    0    0  0.25986109915E+00  0.26058406044E+02  0.32989583108E+02  0.42040702265E+02  0.00000000000E+00 0. -1.
</event>
<event>
 7    1  0.4236733E-010  0.4778727E+02  0.7816164E-02  0.1312668E+00
        -11   -1    0    0    0    0  0.00000000000E+00  0.00000000000E+00  0.45593999997E+02  0.45594000000E+02  0.51100000000E-03 0. -1.
         11   -1    0    0    0    0 -0.00000000000E+00 -0.00000000000E+00 -0.45593999997E+02  0.45594000000E+02  0.51100000000E-03 0.  1.
    9900012    2    1    2    0    0 -0.15283120319E+02  0.95345840914E-01  0.40620689138E+02  0.47787271393E+02  0.20000001591E+02 0.  0.
        -12    1    1    2    0    0  0.15283120319E+02 -0.95345840914E-01 -0.40620689138E+02  0.43400728607E+02  0.00000000000E+00 0.  1.
         11    1    3    3    0    0 -0.28770658003E+01 -0.33999951023E+01  0.10425504512E+02  0.11337046304E+02  0.51100000000E-03 0. -1.
        -11    1    3    3    0    0 -0.15755404147E+02  0.25715038795E+01  0.19478907184E+02  0.25184781464E+02  0.51100000000E-03 0.  1.
        -12    1    3    3    0    0  0.33493496284E+01  0.92383706373E+00  0.10716277442E+02  0.11265443625E+02  0.00000000000E+00 0.  1.
</event>
<event>
 7    1  0.4236733E-010  0.4778727E+02  0.7816164E-02  0.1312668E+00
        -11   -1    0    0    0    0  0.00000000000E+00  0.00000000000E+00  0.45593999997E+02  0.45594000000E+02  0.51100000000E-03 0.  1.
         11   -1    0    0    0    0 -0.00000000000E+00 -0.00000000000E+00 -0.45593999997E+02  0.45594000000E+02  0.51100000000E-03 0. -1.
    9900012    2    1    2    0    0  0.10788162499E+02  0.39781921355E+02 -0.13588151985E+02  0.47787267389E+02  0.19999983335E+02 0.  0.
        -12    1    1    2    0    0 -0.10788162499E+02 -0.39781921355E+02  0.13588151985E+02  0.43400732611E+02  0.00000000000E+00 0.  1.
         11    1    3    3    0    0  0.55426609610E+01  0.12006214510E+02 -0.49607122246E+01  0.14123701477E+02  0.51100000000E-03 0. -1.
        -11    1    3    3    0    0  0.44799449441E+01  0.93363599588E+01 -0.10940126293E+02  0.15063993081E+02  0.51100000000E-03 0.  1.
        -12    1    3    3    0    0  0.76555659383E+00  0.18439346886E+02  0.23126865325E+01  0.18599572831E+02  0.00000000000E+00 0.  1.
</event>
<event>
 7    1  0.4236733E-010  0.4778727E+02  0.7816164E-02  0.1312668E+00
        -11   -1    0    0    0    0  0.00000000000E+00  0.00000000000E+00  0.45593999997E+02  0.45594000000E+02  0.51100000000E-03 0.  1.
         11   -1    0    0    0    0 -0.00000000000E+00 -0.00000000000E+00 -0.45593999997E+02  0.45594000000E+02  0.51100000000E-03 0. -1.
    9900012    2    1    2    0    0 -0.20683756539E+02  0.18247665468E+02 -0.33508627437E+02  0.47787271984E+02  0.20000004283E+02 0.  0.
        -12    1    1    2    0    0  0.20683756539E+02 -0.18247665468E+02  0.33508627437E+02  0.43400728016E+02  0.00000000000E+00 0.  1.
         11    1    3    3    0    0 -0.83578020222E+00  0.12767886383E+02 -0.11904080201E+02  0.17476400571E+02  0.51100000000E-03 0. -1.
        -11    1    3    3    0    0 -0.35482936443E+01  0.21841762294E+01 -0.20570002243E+01  0.46467476552E+01  0.51100000000E-03 0.  1.
        -12    1    3    3    0    0 -0.16299682693E+02  0.32956028561E+01 -0.19547547012E+02  0.25664123758E+02  0.00000000000E+00 0.  1.
</event>
<event>
 7    1  0.4236733E-010  0.4778727E+02  0.7816164E-02  0.1312668E+00
        -11   -1    0    0    0    0  0.00000000000E+00  0.00000000000E+00  0.45593999997E+02  0.45594000000E+02  0.51100000000E-03 0. -1.
         11   -1    0    0    0    0 -0.00000000000E+00 -0.00000000000E+00 -0.45593999997E+02  0.45594000000E+02  0.51100000000E-03 0.  1.
    9900012    2    1    2    0    0  0.32614651568E+02 -0.28523710042E+02 -0.25111171742E+01  0.47787271424E+02  0.20000001732E+02 0.  0.
        -12    1    1    2    0    0 -0.32614651568E+02  0.28523710042E+02  0.25111171742E+01  0.43400728576E+02  0.00000000000E+00 0.  1.
         11    1    3    3    0    0  0.77867584475E+00 -0.39890715292E+01  0.19909193387E+01  0.45257914015E+01  0.51100000000E-03 0. -1.
        -11    1    3    3    0    0  0.49925501501E+00 -0.58318601705E+01 -0.33620698909E+01  0.67500639131E+01  0.51100000000E-03 0.  1.
         12    1    3    3    0    0  0.31336720708E+02 -0.18702778342E+02 -0.11399666220E+01  0.36511416110E+02  0.00000000000E+00 0. -1.
</event>
<event>
 7    1  0.4236733E-010  0.4778727E+02  0.7816164E-02  0.1312668E+00
        -11   -1    0    0    0    0  0.00000000000E+00  0.00000000000E+00  0.45593999997E+02  0.45594000000E+02  0.51100000000E-03 0.  1.
         11   -1    0    0    0    0 -0.00000000000E+00 -0.00000000000E+00 -0.45593999997E+02  0.45594000000E+02  0.51100000000E-03 0. -1.
    9900012    2    1    2    0    0  0.18739126981E+02 -0.28544327770E+02 -0.26789737365E+02  0.47787267795E+02  0.19999985186E+02 0.  0.
        -12    1    1    2    0    0 -0.18739126981E+02  0.28544327770E+02  0.26789737365E+02  0.43400732205E+02  0.00000000000E+00 0.  1.
         11    1    3    3    0    0  0.57887896410E+01 -0.63296009176E+01 -0.56057452608E+01  0.10246868472E+02  0.51100000000E-03 0. -1.
        -11    1    3    3    0    0  0.94998735121E+01 -0.16636603529E+02 -0.45941800556E+01  0.19701032064E+02  0.51100000000E-03 0.  1.
         12    1    3    3    0    0  0.34504638277E+01 -0.55781233232E+01 -0.16589812048E+02  0.17839367260E+02  0.00000000000E+00 0. -1.
</event>
<event>
 7    1  0.4236733E-010  0.4778727E+02  0.7816164E-02  0.1312668E+00
        -11   -1    0    0    0    0  0.00000000000E+00  0.00000000000E+00  0.45593999997E+02  0.45594000000E+02  0.51100000000E-03 0.  1.
         11   -1    0    0    0    0 -0.00000000000E+00 -0.00000000000E+00 -0.45593999997E+02  0.45594000000E+02  0.51100000000E-03 0. -1.
    9900012    2    1    2    0    0  0.43396668193E+02  0.20565330701E+00  0.55683084192E+00  0.47787272309E+02  0.20000005766E+02 0.  0.
        -12    1    1    2    0    0 -0.43396668193E+02 -0.20565330701E+00 -0.55683084192E+00  0.43400727691E+02  0.00000000000E+00 0.  1.
         11    1    3    3    0    0  0.15101976325E+02 -0.25811636974E+00 -0.57150483049E+00  0.15114990275E+02  0.51100000000E-03 0. -1.
        -11    1    3    3    0    0  0.87687202014E+01 -0.38386184598E+01  0.69713344201E+01  0.11841661602E+02  0.51100000000E-03 0.  1.
        -12    1    3    3    0    0  0.19525971666E+02  0.43023881365E+01 -0.58429987476E+01  0.20830620431E+02  0.00000000000E+00 0.  1.
</event>
<event>
 7    1  0.4236733E-010  0.4778727E+02  0.7816164E-02  0.1312668E+00
        -11   -1    0    0    0    0  0.00000000000E+00  0.00000000000E+00  0.45593999997E+02  0.45594000000E+02  0.51100000000E-03 0.  1.
         11   -1    0    0    0    0 -0.00000000000E+00 -0.00000000000E+00 -0.45593999997E+02  0.45594000000E+02  0.51100000000E-03 0. -1.
    9900012    2    1    2    0    0 -0.26360063780E+02 -0.30039814042E+02 -0.16922763181E+02  0.47787270700E+02  0.19999998427E+02 0.  0.
        -12    1    1    2    0    0  0.26360063780E+02  0.30039814042E+02  0.16922763181E+02  0.43400729300E+02  0.00000000000E+00 0.  1.
         11    1    3    3    0    0 -0.18362588061E+02 -0.71932694279E+01 -0.37910321362E+01  0.20082322831E+02  0.51100000000E-03 0. -1.
        -11    1    3    3    0    0 -0.28321281715E+01 -0.43615520084E+01 -0.26697636419E+01  0.58456585657E+01  0.51100000000E-03 0.  1.
        -12    1    3    3    0    0 -0.51653475477E+01 -0.18484992605E+02 -0.10461967403E+02  0.21859289303E+02  0.00000000000E+00 0.  1.
</event>
<event>
 7    1  0.4236733E-010  0.4778727E+02  0.7816164E-02  0.1312668E+00
        -11   -1    0    0    0    0  0.00000000000E+00  0.00000000000E+00  0.45593999997E+02  0.45594000000E+02  0.51100000000E-03 0. -1.
         11   -1    0    0    0    0 -0.00000000000E+00 -0.00000000000E+00 -0.45593999997E+02  0.45594000000E+02  0.51100000000E-03 0.  1.
    9900012    2    1    2    0    0  0.18225424592E+02 -0.22933581022E+02  0.32023550557E+02  0.47787273851E+02  0.20000012795E+02 0.  0.
        -12    1    1    2    0    0 -0.18225424592E+02  0.22933581022E+02 -0.32023550557E+02  0.43400726149E+02  0.00000000000E+00 0.  1.
         11    1    3    3    0    0 -0.21657566286E+01 -0.79810609640E+00  0.23441675567E+01  0.32897715590E+01  0.51100000000E-03 0. -1.
        -11    1    3    3    0    0  0.10650815353E+02 -0.21639384291E+01  0.84602083005E+01  0.13773075980E+02  0.51100000000E-03 0.  1.
         12    1    3    3    0    0  0.97403658679E+01 -0.19971536496E+02  0.21219174699E+02  0.30724426311E+02  0.00000000000E+00 0. -1.
</event>
<event>
 7    1  0.4236733E-010  0.4778726E+02  0.7816164E-02  0.1312668E+00
        -11   -1    0    0    0    0  0.00000000000E+00  0.00000000000E+00  0.45593999997E+02  0.45594000000E+02  0.51100000000E-03 0.  1.
         11   -1    0    0    0    0 -0.00000000000E+00 -0.00000000000E+00 -0.45593999997E+02  0.45594000000E+02  0.51100000000E-03 0. -1.
    9900012    2    1    2    0    0  0.15698794786E+02  0.27020341304E+02 -0.30117657367E+02  0.47787259371E+02  0.19999946774E+02 0.  0.
        -12    1    1    2    0    0 -0.15698794786E+02 -0.27020341304E+02  0.30117657367E+02  0.43400740629E+02  0.00000000000E+00 0.  1.
         11    1    3    3    0    0  0.12942127820E+01  0.95330531185E+01 -0.60734313863E+01  0.11377199020E+02  0.51100000000E-03 0. -1.
        -11    1    3    3    0    0  0.24895031407E+01  0.60302388083E+01 -0.17421464627E+02  0.18602925468E+02  0.51100000000E-03 0.  1.
         12    1    3    3    0    0  0.11915078863E+02  0.11457049378E+02 -0.66227613534E+01  0.17807134882E+02  0.00000000000E+00 0. -1.
</event>
<event>
 7    1  0.4236733E-010  0.4778727E+02  0.7816164E-02  0.1312668E+00
        -11   -1    0    0    0    0  0.00000000000E+00  0.00000000000E+00  0.45593999997E+02  0.45594000000E+02  0.51100000000E-03 0. -1.
         11   -1    0    0    0    0 -0.00000000000E+00 -0.00000000000E+00 -0.45593999997E+02  0.45594000000E+02  0.51100000000E-03 0.  1.
    9900012    2    1    2    0    0 -0.40170306283E+02 -0.15912435523E+02  0.40944341154E+01  0.47787268418E+02  0.19999988025E+02 0.  0.
        -12    1    1    2    0    0  0.40170306283E+02  0.15912435523E+02 -0.40944341154E+01  0.43400731582E+02  0.00000000000E+00 0.  1.
         11    1    3    3    0    0 -0.55948323706E+01 -0.26420057675E+01 -0.21935575868E+01  0.65646050055E+01  0.51100000000E-03 0. -1.
        -11    1    3    3    0    0 -0.13850953751E+02 -0.10754942458E+02 -0.39427842382E+01  0.17973960468E+02  0.51100000000E-03 0.  1.
         12    1    3    3    0    0 -0.20724520161E+02 -0.25154872970E+01  0.10230775940E+02  0.23248702945E+02  0.00000000000E+00 0. -1.
</event>
<event>
 7    1  0.4236733E-010  0.4778725E+02  0.7816164E-02  0.1312668E+00
        -11   -1    0    0    0    0  0.00000000000E+00  0.00000000000E+00  0.45593999997E+02  0.45594000000E+02  0.51100000000E-03 0.  1.
         11   -1    0    0    0    0 -0.00000000000E+00 -0.00000000000E+00 -0.45593999997E+02  0.45594000000E+02  0.51100000000E-03 0. -1.
    9900012    2    1    2    0    0  0.89061161287E+01 -0.30858569463E+02 -0.29189978272E+02  0.47787250636E+02  0.19999906950E+02 0.  0.
        -12    1    1    2    0    0 -0.89061161287E+01  0.30858569463E+02  0.29189978272E+02  0.43400749364E+02  0.00000000000E+00 0.  1.
         11    1    3    3    0    0  0.50060725342E+00 -0.18753739376E+01  0.21053661650E+01  0.28635994793E+01  0.51100000000E-03 0. -1.
        -11    1    3    3    0    0  0.51158439645E+01 -0.16563235597E+02 -0.98892277899E+01  0.19957691736E+02  0.51100000000E-03 0.  1.
         12    1    3    3    0    0  0.32896649107E+01 -0.12419959929E+02 -0.21406116647E+02  0.24965959420E+02  0.00000000000E+00 0. -1.
</event>
<event>
 7    1  0.4236733E-010  0.4778727E+02  0.7816164E-02  0.1312668E+00
        -11   -1    0    0    0    0  0.00000000000E+00  0.00000000000E+00  0.45593999997E+02  0.45594000000E+02  0.51100000000E-03 0.  1.
         11   -1    0    0    0    0 -0.00000000000E+00 -0.00000000000E+00 -0.45593999997E+02  0.45594000000E+02  0.51100000000E-03 0. -1.
    9900012    2    1    2    0    0  0.12911995265E+02  0.23876470028E+02 -0.33864698065E+02  0.47787271691E+02  0.20000002948E+02 0.  0.
        -12    1    1    2    0    0 -0.12911995265E+02 -0.23876470028E+02  0.33864698065E+02  0.43400728309E+02  0.00000000000E+00 0.  1.
         11    1    3    3    0    0  0.16287649398E+02  0.15901828840E+02 -0.25321489330E+02  0.34048986850E+02  0.51100000000E-03 0. -1.
        -11    1    3    3    0    0  0.16610503136E+01  0.38571245283E+01 -0.26907345488E+01  0.49876397669E+01  0.51100000000E-03 0.  1.
        -12    1    3    3    0    0 -0.50367044459E+01  0.41175166594E+01 -0.58524741857E+01  0.87506450739E+01  0.00000000000E+00 0.  1.
</event>
<event>
 7    1  0.4236733E-010  0.4778728E+02  0.7816164E-02  0.1312668E+00
        -11   -1    0    0    0    0  0.00000000000E+00  0.00000000000E+00  0.45593999997E+02  0.45594000000E+02  0.51100000000E-03 0.  1.
         11   -1    0    0    0    0 -0.00000000000E+00 -0.00000000000E+00 -0.45593999997E+02  0.45594000000E+02  0.51100000000E-03 0. -1.
    9900012    2    1    2    0    0  0.38159505615E+02  0.14596908012E+02 -0.14642558847E+02  0.47787284316E+02  0.20000060511E+02 0.  0.
        -12    1    1    2    0    0 -0.38159505615E+02 -0.14596908012E+02  0.14642558847E+02  0.43400715684E+02  0.00000000000E+00 0.  1.
         11    1    3    3    0    0  0.12091637987E+02  0.10563862911E+02 -0.58884548611E+01  0.17101953390E+02  0.51100000000E-03 0. -1.
        -11    1    3    3    0    0 -0.14335148046E+01  0.33017642418E+00 -0.12721381795E+01  0.19448179799E+01  0.51100000000E-03 0.  1.
         12    1    3    3    0    0  0.27501382432E+02  0.37028686761E+01 -0.74819658064E+01  0.28740512947E+02  0.00000000000E+00 0. -1.
</event>
<event>
 7    1  0.4236733E-010  0.4778727E+02  0.7816164E-02  0.1312668E+00
        -11   -1    0    0    0    0  0.00000000000E+00  0.00000000000E+00  0.45593999997E+02  0.45594000000E+02  0.51100000000E-03 0. -1.
         11   -1    0    0    0    0 -0.00000000000E+00 -0.00000000000E+00 -0.45593999997E+02  0.45594000000E+02  0.51100000000E-03 0.  1.
    9900012    2    1    2    0    0  0.79967259072E+01  0.42526241919E+02 -0.33458196761E+01  0.47787269749E+02  0.19999994095E+02 0.  0.
        -12    1    1    2    0    0 -0.79967259072E+01 -0.42526241919E+02  0.33458196761E+01  0.43400730251E+02  0.00000000000E+00 0.  1.
         11    1    3    3    0    0  0.27957793411E+01  0.13819734081E+02 -0.31526825069E+01  0.14447866259E+02  0.51100000000E-03 0. -1.
        -11    1    3    3    0    0  0.63281398949E+01  0.23400380819E+02 -0.64243936458E+01  0.25077799165E+02  0.51100000000E-03 0.  1.
        -12    1    3    3    0    0 -0.11271933288E+01  0.53061270191E+01  0.62312564766E+01  0.82616043248E+01  0.00000000000E+00 0.  1.
</event>
<event>
 7    1  0.4236733E-010  0.4778727E+02  0.7816164E-02  0.1312668E+00
        -11   -1    0    0    0    0  0.00000000000E+00  0.00000000000E+00  0.45593999997E+02  0.45594000000E+02  0.51100000000E-03 0.  1.
         11   -1    0    0    0    0 -0.00000000000E+00 -0.00000000000E+00 -0.45593999997E+02  0.45594000000E+02  0.51100000000E-03 0. -1.
    9900012    2    1    2    0    0 -0.86261014402E+01  0.26328325331E+02 -0.33407085686E+02  0.47787265964E+02  0.19999976838E+02 0.  0.
        -12    1    1    2    0    0  0.86261014402E+01 -0.26328325331E+02  0.33407085686E+02  0.43400734036E+02  0.00000000000E+00 0.  1.
         11    1    3    3    0    0 -0.52258130025E+01  0.66454029376E+01 -0.18376163821E+02  0.20227552961E+02  0.51100000000E-03 0. -1.
        -11    1    3    3    0    0 -0.47944310910E+01  0.14663688497E+02 -0.16038318707E+02  0.22253943404E+02  0.51100000000E-03 0.  1.
        -12    1    3    3    0    0  0.13941426533E+01  0.50192338964E+01  0.10073968421E+01  0.53057695994E+01  0.00000000000E+00 0.  1.
</event>
<event>
 7    1  0.4236733E-010  0.4778727E+02  0.7816164E-02  0.1312668E+00
        -11   -1    0    0    0    0  0.00000000000E+00  0.00000000000E+00  0.45593999997E+02  0.45594000000E+02  0.51100000000E-03 0. -1.
         11   -1    0    0    0    0 -0.00000000000E+00 -0.00000000000E+00 -0.45593999997E+02  0.45594000000E+02  0.51100000000E-03 0.  1.
    9900012    2    1    2    0    0  0.15092925757E+02  0.37893064970E+02  0.14830461264E+02  0.47787270028E+02  0.19999995367E+02 0.  0.
        -12    1    1    2    0    0 -0.15092925757E+02 -0.37893064970E+02 -0.14830461264E+02  0.43400729972E+02  0.00000000000E+00 0.  1.
         11    1    3    3    0    0 -0.10660857681E+01  0.43021424868E+01  0.43353197649E+01  0.61999973038E+01  0.51100000000E-03 0. -1.
        -11    1    3    3    0    0 -0.18683587055E+01  0.52574105868E+01  0.51292474073E+01  0.75789385509E+01  0.51100000000E-03 0.  1.
         12    1    3    3    0    0  0.18027370231E+02  0.28333511897E+02  0.53658940921E+01  0.34008334174E+02  0.00000000000E+00 0. -1.
</event>
<event>
 7    1  0.4236733E-010  0.4778727E+02  0.7816164E-02  0.1312668E+00
        -11   -1    0    0    0    0  0.00000000000E+00  0.00000000000E+00  0.45593999997E+02  0.45594000000E+02  0.51100000000E-03 0. -1.
         11   -1    0    0    0    0 -0.00000000000E+00 -0.00000000000E+00 -0.45593999997E+02  0.45594000000E+02  0.51100000000E-03 0.  1.
    9900012    2    1    2    0    0 -0.16970814573E+02 -0.23436691524E+02  0.32347120794E+02  0.47787270968E+02  0.19999999651E+02 0.  0.
        -12    1    1    2    0    0  0.16970814573E+02  0.23436691524E+02 -0.32347120794E+02  0.43400729032E+02  0.00000000000E+00 0.  1.
         11    1    3    3    0    0 -0.48166002770E+01 -0.82258444689E+01  0.12922415278E+02  0.16057800981E+02  0.51100000000E-03 0. -1.
        -11    1    3    3    0    0 -0.14191188618E+02 -0.13630728744E+02  0.10224537706E+02  0.22174935671E+02  0.51100000000E-03 0.  1.
        -12    1    3    3    0    0  0.20369743215E+01 -0.15801183113E+01  0.92001678100E+01  0.95545343161E+01  0.00000000000E+00 0.  1.
</event>
<event>
 7    1  0.4236733E-010  0.4778727E+02  0.7816164E-02  0.1312668E+00
        -11   -1    0    0    0    0  0.00000000000E+00  0.00000000000E+00  0.45593999997E+02  0.45594000000E+02  0.51100000000E-03 0. -1.
         11   -1    0    0    0    0 -0.00000000000E+00 -0.00000000000E+00 -0.45593999997E+02  0.45594000000E+02  0.51100000000E-03 0.  1.
    9900012    2    1    2    0    0 -0.39936593447E+02 -0.11035309880E+02  0.12919526457E+02  0.47787265856E+02  0.19999976346E+02 0.  0.
        -12    1    1    2    0    0  0.39936593447E+02  0.11035309880E+02 -0.12919526457E+02  0.43400734144E+02  0.00000000000E+00 0.  1.
         11    1    3    3    0    0 -0.37276033425E+02 -0.13512786059E+02  0.14913924461E+02  0.42361812970E+02  0.51100000000E-03 0. -1.
        -11    1    3    3    0    0  0.27707783383E+00 -0.66235937838E+00 -0.49350234355E+00  0.87122723577E+00  0.51100000000E-03 0.  1.
        -12    1    3    3    0    0 -0.29376378558E+01  0.31398355572E+01 -0.15008956598E+01  0.45542256510E+01  0.00000000000E+00 0.  1.
</event>
<event>
 7    1  0.4236733E-010  0.4778728E+02  0.7816164E-02  0.1312668E+00
        -11   -1    0    0    0    0  0.00000000000E+00  0.00000000000E+00  0.45593999997E+02  0.45594000000E+02  0.51100000000E-03 0.  1.
         11   -1    0    0    0    0 -0.00000000000E+00 -0.00000000000E+00 -0.45593999997E+02  0.45594000000E+02  0.51100000000E-03 0. -1.
    9900012    2    1    2    0    0  0.32316402763E+02 -0.25718170204E+02 -0.13335977732E+02  0.47787280326E+02  0.20000042316E+02 0.  0.
        -12    1    1    2    0    0 -0.32316402763E+02  0.25718170204E+02  0.13335977732E+02  0.43400719674E+02  0.00000000000E+00 0.  1.
         11    1    3    3    0    0  0.22953849050E+02 -0.74419468135E+01 -0.11624009920E+02  0.26783938573E+02  0.51100000000E-03 0.  1.
        -11    1    3    3    0    0  0.37311305286E+01 -0.57837273545E+01 -0.23834197044E+01  0.72837852028E+01  0.51100000000E-03 0. -1.
        -12    1    3    3    0    0  0.56314231847E+01 -0.12492496036E+02  0.67145189213E+00  0.13719556550E+02  0.00000000000E+00 0.  1.
</event>
<event>
 7    1  0.4236733E-010  0.4778724E+02  0.7816164E-02  0.1312668E+00
        -11   -1    0    0    0    0  0.00000000000E+00  0.00000000000E+00  0.45593999997E+02  0.45594000000E+02  0.51100000000E-03 0. -1.
         11   -1    0    0    0    0 -0.00000000000E+00 -0.00000000000E+00 -0.45593999997E+02  0.45594000000E+02  0.51100000000E-03 0.  1.
    9900012    2    1    2    0    0 -0.23180064252E+02 -0.36594591138E+02  0.26732612689E+01  0.47787241883E+02  0.19999867042E+02 0.  0.
        -12    1    1    2    0    0  0.23180064252E+02  0.36594591138E+02 -0.26732612689E+01  0.43400758117E+02  0.00000000000E+00 0.  1.
         11    1    3    3    0    0 -0.14893772956E+02 -0.31599910753E+02  0.31159202574E+01  0.35072607428E+02  0.51100000000E-03 0. -1.
        -11    1    3    3    0    0 -0.76462418900E+01 -0.54827414169E+01  0.24413809063E+01  0.97203811384E+01  0.51100000000E-03 0.  1.
         12    1    3    3    0    0 -0.64004940570E+00  0.48806103178E+00 -0.28840398948E+01  0.29942533171E+01  0.00000000000E+00 0. -1.
</event>
<event>
 7    1  0.4236733E-010  0.4778729E+02  0.7816164E-02  0.1312668E+00
        -11   -1    0    0    0    0  0.00000000000E+00  0.00000000000E+00  0.45593999997E+02  0.45594000000E+02  0.51100000000E-03 0. -1.
         11   -1    0    0    0    0 -0.00000000000E+00 -0.00000000000E+00 -0.45593999997E+02  0.45594000000E+02  0.51100000000E-03 0.  1.
    9900012    2    1    2    0    0 -0.40538944041E+02  0.15492038474E+02 -0.46118849006E+00  0.47787286471E+02  0.20000070335E+02 0.  0.
        -12    1    1    2    0    0  0.40538944041E+02 -0.15492038474E+02  0.46118849006E+00  0.43400713529E+02  0.00000000000E+00 0.  1.
         11    1    3    3    0    0 -0.16572458953E+01  0.28651717751E+01  0.60963293306E+00  0.33656092810E+01  0.51100000000E-03 0. -1.
        -11    1    3    3    0    0 -0.73334382873E+00  0.36234413846E+01  0.33344094309E+01  0.49784944665E+01  0.51100000000E-03 0.  1.
         12    1    3    3    0    0 -0.38148354317E+02  0.90034253141E+01 -0.44052308540E+01  0.39443182723E+02  0.00000000000E+00 0. -1.
</event>
<event>
 7    1  0.4236733E-010  0.4778727E+02  0.7816164E-02  0.1312668E+00
        -11   -1    0    0    0    0  0.00000000000E+00  0.00000000000E+00  0.45593999997E+02  0.45594000000E+02  0.51100000000E-03 0.  1.
         11   -1    0    0    0    0 -0.00000000000E+00 -0.00000000000E+00 -0.45593999997E+02  0.45594000000E+02  0.51100000000E-03 0. -1.
    9900012    2    1    2    0    0  0.32565272933E+02 -0.10352492269E+02 -0.26757291225E+02  0.47787265777E+02  0.19999975984E+02 0.  0.
        -12    1    1    2    0    0 -0.32565272933E+02  0.10352492269E+02  0.26757291225E+02  0.43400734223E+02  0.00000000000E+00 0.  1.
         11    1    3    3    0    0  0.46354219447E+01  0.82079480726E-01 -0.30703745015E+00  0.46463045427E+01  0.51100000000E-03 0.  1.
        -11    1    3    3    0    0  0.22933315825E+02 -0.83180954121E+00 -0.15183483343E+02  0.27516668558E+02  0.51100000000E-03 0. -1.
         12    1    3    3    0    0  0.49965351634E+01 -0.96027622085E+01 -0.11266770432E+02  0.15624292676E+02  0.00000000000E+00 0. -1.
</event>
<event>
 7    1  0.4236733E-010  0.4778727E+02  0.7816164E-02  0.1312668E+00
        -11   -1    0    0    0    0  0.00000000000E+00  0.00000000000E+00  0.45593999997E+02  0.45594000000E+02  0.51100000000E-03 0.  1.
         11   -1    0    0    0    0 -0.00000000000E+00 -0.00000000000E+00 -0.45593999997E+02  0.45594000000E+02  0.51100000000E-03 0. -1.
    9900012    2    1    2    0    0 -0.21317461159E+02 -0.37574137097E+02 -0.41681015841E+01  0.47787274203E+02  0.20000014403E+02 0.  0.
        -12    1    1    2    0    0  0.21317461159E+02  0.37574137097E+02  0.41681015841E+01  0.43400725797E+02  0.00000000000E+00 0.  1.
         11    1    3    3    0    0  0.14530554042E+01 -0.27918021724E+01 -0.24242988373E+01  0.39727515013E+01  0.51100000000E-03 0. -1.
        -11    1    3    3    0    0 -0.15305015000E+01 -0.11214494484E+02  0.30635069036E+01  0.11725715167E+02  0.51100000000E-03 0.  1.
         12    1    3    3    0    0 -0.21240015063E+02 -0.23567840441E+02 -0.48073096504E+01  0.32088807535E+02  0.00000000000E+00 0. -1.
</event>
<event>
 7    1  0.4236733E-010  0.4778727E+02  0.7816164E-02  0.1312668E+00
        -11   -1    0    0    0    0  0.00000000000E+00  0.00000000000E+00  0.45593999997E+02  0.45594000000E+02  0.51100000000E-03 0.  1.
         11   -1    0    0    0    0 -0.00000000000E+00 -0.00000000000E+00 -0.45593999997E+02  0.45594000000E+02  0.51100000000E-03 0. -1.
    9900012    2    1    2    0    0 -0.41357342513E+02 -0.69877212680E+01 -0.11151917481E+02  0.47787270839E+02  0.19999999062E+02 0.  0.
        -12    1    1    2    0    0  0.41357342513E+02  0.69877212680E+01  0.11151917481E+02  0.43400729161E+02  0.00000000000E+00 0.  1.
         11    1    3    3    0    0 -0.12744819098E+01 -0.15137169277E+00 -0.18582043331E+01  0.22583492052E+01  0.51100000000E-03 0. -1.
        -11    1    3    3    0    0 -0.27655517674E+02 -0.18527304683E+01  0.23066010174E+01  0.27813318330E+02  0.51100000000E-03 0.  1.
        -12    1    3    3    0    0 -0.12427342929E+02 -0.49836191070E+01 -0.11600314165E+02  0.17715603303E+02  0.00000000000E+00 0.  1.
</event>
<event>
 7    1  0.4236733E-010  0.4778727E+02  0.7816164E-02  0.1312668E+00
        -11   -1    0    0    0    0  0.00000000000E+00  0.00000000000E+00  0.45593999997E+02  0.45594000000E+02  0.51100000000E-03 0. -1.
         11   -1    0    0    0    0 -0.00000000000E+00 -0.00000000000E+00 -0.45593999997E+02  0.45594000000E+02  0.51100000000E-03 0.  1.
    9900012    2    1    2    0    0  0.35521074091E+01  0.37802379292E+02  0.21023464837E+02  0.47787269351E+02  0.19999992277E+02 0.  0.
        -12    1    1    2    0    0 -0.35521074091E+01 -0.37802379292E+02 -0.21023464837E+02  0.43400730649E+02  0.00000000000E+00 0.  1.
         11    1    3    3    0    0  0.23864132721E+01  0.83964783188E+01  0.13584435115E+02  0.16147219393E+02  0.51100000000E-03 0. -1.
        -11    1    3    3    0    0  0.18287560035E+00  0.58808534873E+00 -0.13598968047E+01  0.14928521170E+01  0.51100000000E-03 0.  1.
        -12    1    3    3    0    0  0.98281853665E+00  0.28817815624E+02  0.87989265264E+01  0.30147197840E+02  0.00000000000E+00 0.  1.
</event>
<event>
 7    1  0.4236733E-010  0.4778727E+02  0.7816164E-02  0.1312668E+00
        -11   -1    0    0    0    0  0.00000000000E+00  0.00000000000E+00  0.45593999997E+02  0.45594000000E+02  0.51100000000E-03 0.  1.
         11   -1    0    0    0    0 -0.00000000000E+00 -0.00000000000E+00 -0.45593999997E+02  0.45594000000E+02  0.51100000000E-03 0. -1.
    9900012    2    1    2    0    0 -0.30687873015E+02 -0.35753823675E+01 -0.30481048128E+02  0.47787271847E+02  0.20000003659E+02 0.  0.
        -12    1    1    2    0    0  0.30687873015E+02  0.35753823675E+01  0.30481048128E+02  0.43400728153E+02  0.00000000000E+00 0.  1.
         11    1    3    3    0    0 -0.10073286455E+02  0.36707497822E+01 -0.16898570027E+02  0.20012675313E+02  0.51100000000E-03 0. -1.
        -11    1    3    3    0    0 -0.75285818644E+01  0.19765401257E+01 -0.20658772001E+01  0.80532046183E+01  0.51100000000E-03 0.  1.
         12    1    3    3    0    0 -0.13086004696E+02 -0.92226722753E+01 -0.11516600901E+02  0.19721391916E+02  0.00000000000E+00 0. -1.
</event>
<event>
 7    1  0.4236733E-010  0.4778727E+02  0.7816164E-02  0.1312668E+00
        -11   -1    0    0    0    0  0.00000000000E+00  0.00000000000E+00  0.45593999997E+02  0.45594000000E+02  0.51100000000E-03 0.  1.
         11   -1    0    0    0    0 -0.00000000000E+00 -0.00000000000E+00 -0.45593999997E+02  0.45594000000E+02  0.51100000000E-03 0. -1.
    9900012    2    1    2    0    0 -0.31828400788E+02  0.95537808962E+01 -0.27915971566E+02  0.47787270805E+02  0.19999998908E+02 0.  0.
        -12    1    1    2    0    0  0.31828400788E+02 -0.95537808962E+01  0.27915971566E+02  0.43400729195E+02  0.00000000000E+00 0.  1.
         11    1    3    3    0    0 -0.15426147684E+02  0.43664002302E+01 -0.15975154857E+02  0.22632654646E+02  0.51100000000E-03 0. -1.
        -11    1    3    3    0    0 -0.12565283157E+02  0.98758692807E+01 -0.75692638029E+01  0.17683689933E+02  0.51100000000E-03 0.  1.
         12    1    3    3    0    0 -0.38369699472E+01 -0.46884886147E+01 -0.43715529069E+01  0.74709262266E+01  0.00000000000E+00 0. -1.
</event>
<event>
 7    1  0.4236733E-010  0.4778727E+02  0.7816164E-02  0.1312668E+00
        -11   -1    0    0    0    0  0.00000000000E+00  0.00000000000E+00  0.45593999997E+02  0.45594000000E+02  0.51100000000E-03 0.  1.
         11   -1    0    0    0    0 -0.00000000000E+00 -0.00000000000E+00 -0.45593999997E+02  0.45594000000E+02  0.51100000000E-03 0. -1.
    9900012    2    1    2    0    0  0.34596762318E+02 -0.43286865046E+01 -0.25844724596E+02  0.47787270983E+02  0.19999999721E+02 0.  0.
        -12    1    1    2    0    0 -0.34596762318E+02  0.43286865046E+01  0.25844724596E+02  0.43400729017E+02  0.00000000000E+00 0.  1.
         11    1    3    3    0    0  0.46901735032E+01 -0.51450480801E+01 -0.62311298305E+01  0.93432449643E+01  0.51100000000E-03 0. -1.
        -11    1    3    3    0    0  0.12435545815E+02 -0.65165096369E+01 -0.96536604809E+01  0.17038217586E+02  0.51100000000E-03 0.  1.
        -12    1    3    3    0    0  0.17471043000E+02  0.73328712124E+01 -0.99599342844E+01  0.21405808433E+02  0.00000000000E+00 0.  1.
</event>
<event>
 7    1  0.4236733E-010  0.4778727E+02  0.7816164E-02  0.1312668E+00
        -11   -1    0    0    0    0  0.00000000000E+00  0.00000000000E+00  0.45593999997E+02  0.45594000000E+02  0.51100000000E-03 0.  1.
         11   -1    0    0    0    0 -0.00000000000E+00 -0.00000000000E+00 -0.45593999997E+02  0.45594000000E+02  0.51100000000E-03 0. -1.
    9900012    2    1    2    0    0  0.30207387303E+02 -0.38317123129E+01 -0.30926608445E+02  0.47787269858E+02  0.19999994591E+02 0.  0.
        -12    1    1    2    0    0 -0.30207387303E+02  0.38317123129E+01  0.30926608445E+02  0.43400730142E+02  0.00000000000E+00 0.  1.
         11    1    3    3    0    0  0.11127230868E+02  0.30576505296E+01 -0.87978171673E+01  0.14510895242E+02  0.51100000000E-03 0. -1.
        -11    1    3    3    0    0  0.58121012825E+01  0.39496120895E+01 -0.31271927520E+01  0.76915077680E+01  0.51100000000E-03 0.  1.
         12    1    3    3    0    0  0.13268055153E+02 -0.10838974932E+02 -0.19001598526E+02  0.25584866849E+02  0.00000000000E+00 0. -1.
</event>
<event>
 7    1  0.4236733E-010  0.4778724E+02  0.7816164E-02  0.1312668E+00
        -11   -1    0    0    0    0  0.00000000000E+00  0.00000000000E+00  0.45593999997E+02  0.45594000000E+02  0.51100000000E-03 0.  1.
         11   -1    0    0    0    0 -0.00000000000E+00 -0.00000000000E+00 -0.45593999997E+02  0.45594000000E+02  0.51100000000E-03 0. -1.
    9900012    2    1    2    0    0  0.30123614957E+01 -0.12687531387E+02 -0.41395386047E+02  0.47787242397E+02  0.19999869385E+02 0.  0.
        -12    1    1    2    0    0 -0.30123614957E+01  0.12687531387E+02  0.41395386047E+02  0.43400757603E+02  0.00000000000E+00 0.  1.
         11    1    3    3    0    0  0.74190318789E+01 -0.52747101743E+01 -0.29611427633E+02  0.30979045307E+02  0.51100000000E-03 0. -1.
        -11    1    3    3    0    0  0.24200286866E+01 -0.99829851044E+00 -0.26164450985E+01  0.37012057460E+01  0.51100000000E-03 0.  1.
        -12    1    3    3    0    0 -0.68266990698E+01 -0.64145227023E+01 -0.91675133164E+01  0.13106991344E+02  0.00000000000E+00 0.  1.
</event>
<event>
 7    1  0.4236733E-010  0.4778726E+02  0.7816164E-02  0.1312668E+00
        -11   -1    0    0    0    0  0.00000000000E+00  0.00000000000E+00  0.45593999997E+02  0.45594000000E+02  0.51100000000E-03 0.  1.
         11   -1    0    0    0    0 -0.00000000000E+00 -0.00000000000E+00 -0.45593999997E+02  0.45594000000E+02  0.51100000000E-03 0. -1.
    9900012    2    1    2    0    0 -0.70938865823E+01 -0.29417117236E+02 -0.31111642227E+02  0.47787259276E+02  0.19999946343E+02 0.  0.
        -12    1    1    2    0    0  0.70938865823E+01  0.29417117236E+02  0.31111642227E+02  0.43400740724E+02  0.00000000000E+00 0.  1.
         11    1    3    3    0    0 -0.21028396899E+00 -0.52466465216E+01 -0.18397482700E+01  0.55638289898E+01  0.51100000000E-03 0.  1.
        -11    1    3    3    0    0 -0.44283244829E+01 -0.69272155896E+01 -0.21748791590E+02  0.23250942120E+02  0.51100000000E-03 0. -1.
         12    1    3    3    0    0 -0.24552781305E+01 -0.17243255125E+02 -0.75231023666E+01  0.18972488167E+02  0.00000000000E+00 0. -1.
</event>
<event>
 7    1  0.4236733E-010  0.4778727E+02  0.7816164E-02  0.1312668E+00
        -11   -1    0    0    0    0  0.00000000000E+00  0.00000000000E+00  0.45593999997E+02  0.45594000000E+02  0.51100000000E-03 0.  1.
         11   -1    0    0    0    0 -0.00000000000E+00 -0.00000000000E+00 -0.45593999997E+02  0.45594000000E+02  0.51100000000E-03 0. -1.
    9900012    2    1    2    0    0 -0.32603316382E+01  0.16505626532E+02 -0.40006972745E+02  0.47787270307E+02  0.19999996639E+02 0.  0.
        -12    1    1    2    0    0  0.32603316382E+01 -0.16505626532E+02  0.40006972745E+02  0.43400729693E+02  0.00000000000E+00 0.  1.
         11    1    3    3    0    0  0.10227956451E+01  0.73775392292E+01 -0.20018087950E+02  0.21358793070E+02  0.51100000000E-03 0. -1.
        -11    1    3    3    0    0  0.96374525451E+00 -0.20249600396E+01 -0.10863292586E+02  0.11092357465E+02  0.51100000000E-03 0.  1.
         12    1    3    3    0    0 -0.52468725378E+01  0.11153047343E+02 -0.91255922100E+01  0.15336119771E+02  0.00000000000E+00 0. -1.
</event>
<event>
 7    1  0.4236733E-010  0.4778726E+02  0.7816164E-02  0.1312668E+00
        -11   -1    0    0    0    0  0.00000000000E+00  0.00000000000E+00  0.45593999997E+02  0.45594000000E+02  0.51100000000E-03 0. -1.
         11   -1    0    0    0    0 -0.00000000000E+00 -0.00000000000E+00 -0.45593999997E+02  0.45594000000E+02  0.51100000000E-03 0.  1.
    9900012    2    1    2    0    0 -0.21678015201E+02 -0.37330268073E+02 -0.44876185195E+01  0.47787262939E+02  0.19999963044E+02 0.  0.
        -12    1    1    2    0    0  0.21678015201E+02  0.37330268073E+02  0.44876185195E+01  0.43400737061E+02  0.00000000000E+00 0.  1.
         11    1    3    3    0    0 -0.39283444313E+01 -0.10433979002E+02  0.36669240119E+01  0.11736530142E+02  0.51100000000E-03 0. -1.
        -11    1    3    3    0    0 -0.16897858324E+02 -0.18400663659E+02 -0.11532752413E+01  0.25009040026E+02  0.51100000000E-03 0.  1.
        -12    1    3    3    0    0 -0.85181244609E+00 -0.84956254120E+01 -0.70012672901E+01  0.11041692771E+02  0.00000000000E+00 0.  1.
</event>
<event>
 7    1  0.4236733E-010  0.4778727E+02  0.7816164E-02  0.1312668E+00
        -11   -1    0    0    0    0  0.00000000000E+00  0.00000000000E+00  0.45593999997E+02  0.45594000000E+02  0.51100000000E-03 0.  1.
         11   -1    0    0    0    0 -0.00000000000E+00 -0.00000000000E+00 -0.45593999997E+02  0.45594000000E+02  0.51100000000E-03 0. -1.
    9900012    2    1    2    0    0 -0.97138784805E+01  0.23965067625E+02 -0.34855978074E+02  0.47787272945E+02  0.20000008666E+02 0.  0.
        -12    1    1    2    0    0  0.97138784805E+01 -0.23965067625E+02  0.34855978074E+02  0.43400727055E+02  0.00000000000E+00 0.  1.
         11    1    3    3    0    0 -0.24085080941E+01  0.39699454864E+01 -0.57848506690E-01  0.46437834914E+01  0.51100000000E-03 0. -1.
        -11    1    3    3    0    0  0.32931265741E+01  0.20552117959E+01 -0.22201246833E+01  0.44718600191E+01  0.51100000000E-03 0.  1.
         12    1    3    3    0    0 -0.10598496961E+02  0.17939910343E+02 -0.32578004884E+02  0.38671629435E+02  0.00000000000E+00 0. -1.
</event>
<event>
 7    1  0.4236733E-010  0.4778727E+02  0.7816164E-02  0.1312668E+00
        -11   -1    0    0    0    0  0.00000000000E+00  0.00000000000E+00  0.45593999997E+02  0.45594000000E+02  0.51100000000E-03 0.  1.
         11   -1    0    0    0    0 -0.00000000000E+00 -0.00000000000E+00 -0.45593999997E+02  0.45594000000E+02  0.51100000000E-03 0. -1.
    9900012    2    1    2    0    0 -0.17147822467E+02  0.13481405182E+01 -0.39846684210E+02  0.47787267970E+02  0.19999985983E+02 0.  0.
        -12    1    1    2    0    0  0.17147822467E+02 -0.13481405182E+01  0.39846684210E+02  0.43400732030E+02  0.00000000000E+00 0.  1.
         11    1    3    3    0    0 -0.65582977114E+01  0.83624848204E+00 -0.25421443804E+02  0.26267097017E+02  0.51100000000E-03 0. -1.
        -11    1    3    3    0    0  0.92612843474E+00  0.36741021664E+01 -0.51791475372E+01  0.64171886431E+01  0.51100000000E-03 0.  1.
         12    1    3    3    0    0 -0.11515653190E+02 -0.31622101303E+01 -0.92460928687E+01  0.15102982310E+02  0.00000000000E+00 0. -1.
</event>
<event>
 7    1  0.4236733E-010  0.4778727E+02  0.7816164E-02  0.1312668E+00
        -11   -1    0    0    0    0  0.00000000000E+00  0.00000000000E+00  0.45593999997E+02  0.45594000000E+02  0.51100000000E-03 0.  1.
         11   -1    0    0    0    0 -0.00000000000E+00 -0.00000000000E+00 -0.45593999997E+02  0.45594000000E+02  0.51100000000E-03 0. -1.
    9900012    2    1    2    0    0  0.25256917875E+02  0.30013947189E+02  0.18570788427E+02  0.47787272942E+02  0.20000008649E+02 0.  0.
        -12    1    1    2    0    0 -0.25256917875E+02 -0.30013947189E+02 -0.18570788427E+02  0.43400727058E+02  0.00000000000E+00 0.  1.
         11    1    3    3    0    0 -0.12075278754E+01  0.28813066384E+00  0.99331099232E+00  0.15899087514E+01  0.51100000000E-03 0. -1.
        -11    1    3    3    0    0 -0.45183322097E+00  0.46079361476E+01 -0.13205112476E+01  0.48146629182E+01  0.51100000000E-03 0.  1.
         12    1    3    3    0    0  0.26916278971E+02  0.25117880377E+02  0.18897988683E+02  0.41382701272E+02  0.00000000000E+00 0. -1.
</event>
<event>
 7    1  0.4236733E-010  0.4778727E+02  0.7816164E-02  0.1312668E+00
        -11   -1    0    0    0    0  0.00000000000E+00  0.00000000000E+00  0.45593999997E+02  0.45594000000E+02  0.51100000000E-03 0.  1.
         11   -1    0    0    0    0 -0.00000000000E+00 -0.00000000000E+00 -0.45593999997E+02  0.45594000000E+02  0.51100000000E-03 0. -1.
    9900012    2    1    2    0    0  0.66021166931E+01  0.41925356212E+02 -0.90719212197E+01  0.47787271977E+02  0.20000004252E+02 0.  0.
        -12    1    1    2    0    0 -0.66021166931E+01 -0.41925356212E+02  0.90719212197E+01  0.43400728023E+02  0.00000000000E+00 0.  1.
         11    1    3    3    0    0  0.23766969923E+01  0.38003818938E+01 -0.11076363341E+01  0.46171906655E+01  0.51100000000E-03 0. -1.
        -11    1    3    3    0    0  0.11901264014E+01  0.37719442709E+02 -0.36985905096E+01  0.37919023341E+02  0.51100000000E-03 0.  1.
        -12    1    3    3    0    0  0.30352932994E+01  0.40553160902E+00 -0.42656943759E+01  0.52510579704E+01  0.00000000000E+00 0.  1.
</event>
<event>
 7    1  0.4236733E-010  0.4778728E+02  0.7816164E-02  0.1312668E+00
        -11   -1    0    0    0    0  0.00000000000E+00  0.00000000000E+00  0.45593999997E+02  0.45594000000E+02  0.51100000000E-03 0.  1.
         11   -1    0    0    0    0 -0.00000000000E+00 -0.00000000000E+00 -0.45593999997E+02  0.45594000000E+02  0.51100000000E-03 0. -1.
    9900012    2    1    2    0    0  0.26290691622E+02  0.14442442803E+02 -0.31366196166E+02  0.47787275559E+02  0.20000020582E+02 0.  0.
        -12    1    1    2    0    0 -0.26290691622E+02 -0.14442442803E+02  0.31366196166E+02  0.43400724441E+02  0.00000000000E+00 0.  1.
         11    1    3    3    0    0  0.22713616829E+02  0.83503628472E+01 -0.21185300890E+02  0.32162927777E+02  0.51100000000E-03 0. -1.
        -11    1    3    3    0    0  0.38182903522E+01  0.42535363835E+01 -0.11832745352E+02  0.13140995997E+02  0.51100000000E-03 0.  1.
         12    1    3    3    0    0 -0.24121555886E+00  0.18385435719E+01  0.16518500755E+01  0.24833517841E+01  0.00000000000E+00 0. -1.
</event>
<event>
 7    1  0.4236733E-010  0.4778727E+02  0.7816164E-02  0.1312668E+00
        -11   -1    0    0    0    0  0.00000000000E+00  0.00000000000E+00  0.45593999997E+02  0.45594000000E+02  0.51100000000E-03 0. -1.
         11   -1    0    0    0    0 -0.00000000000E+00 -0.00000000000E+00 -0.45593999997E+02  0.45594000000E+02  0.51100000000E-03 0.  1.
    9900012    2    1    2    0    0  0.27907407656E+02  0.22536512833E+02  0.24431649500E+02  0.47787270628E+02  0.19999998102E+02 0.  0.
        -12    1    1    2    0    0 -0.27907407656E+02 -0.22536512833E+02 -0.24431649500E+02  0.43400729372E+02  0.00000000000E+00 0.  1.
         11    1    3    3    0    0  0.81121503371E+01  0.96452198252E+01  0.63873157094E+01  0.14129226830E+02  0.51100000000E-03 0. -1.
        -11    1    3    3    0    0  0.28037324407E+00  0.51229442905E+01 -0.10898732882E+01  0.52450921255E+01  0.51100000000E-03 0.  1.
        -12    1    3    3    0    0  0.19514884074E+02  0.77683487169E+01  0.19134207079E+02  0.28412951673E+02  0.00000000000E+00 0.  1.
</event>
<event>
 7    1  0.4236733E-010  0.4778727E+02  0.7816164E-02  0.1312668E+00
        -11   -1    0    0    0    0  0.00000000000E+00  0.00000000000E+00  0.45593999997E+02  0.45594000000E+02  0.51100000000E-03 0.  1.
         11   -1    0    0    0    0 -0.00000000000E+00 -0.00000000000E+00 -0.45593999997E+02  0.45594000000E+02  0.51100000000E-03 0. -1.
    9900012    2    1    2    0    0 -0.27315340015E+01 -0.21210905691E+02 -0.37765847840E+02  0.47787273493E+02  0.20000011166E+02 0.  0.
        -12    1    1    2    0    0  0.27315340015E+01  0.21210905691E+02  0.37765847840E+02  0.43400726507E+02  0.00000000000E+00 0.  1.
         11    1    3    3    0    0  0.17090591656E+01 -0.10602569805E+02 -0.22434565445E+02  0.24872577202E+02  0.51100000000E-03 0. -1.
        -11    1    3    3    0    0  0.40682214635E+01 -0.18985796703E+01 -0.63845675015E+01  0.78049812994E+01  0.51100000000E-03 0.  1.
        -12    1    3    3    0    0 -0.85088146306E+01 -0.87097562160E+01 -0.89467148929E+01  0.15109714992E+02  0.00000000000E+00 0.  1.
</event>
<event>
 7    1  0.4236733E-010  0.4778727E+02  0.7816164E-02  0.1312668E+00
        -11   -1    0    0    0    0  0.00000000000E+00  0.00000000000E+00  0.45593999997E+02  0.45594000000E+02  0.51100000000E-03 0.  1.
         11   -1    0    0    0    0 -0.00000000000E+00 -0.00000000000E+00 -0.45593999997E+02  0.45594000000E+02  0.51100000000E-03 0. -1.
    9900012    2    1    2    0    0 -0.24200004857E+02  0.33094184161E+02 -0.14239313991E+02  0.47787270475E+02  0.19999997404E+02 0.  0.
        -12    1    1    2    0    0  0.24200004857E+02 -0.33094184161E+02  0.14239313991E+02  0.43400729525E+02  0.00000000000E+00 0.  1.
         11    1    3    3    0    0 -0.10242405256E+02  0.10381228365E+02 -0.10444011554E+02  0.17937506666E+02  0.51100000000E-03 0. -1.
        -11    1    3    3    0    0 -0.92787427747E+01  0.21417969659E+02 -0.65823973760E+01  0.24251854512E+02  0.51100000000E-03 0.  1.
         12    1    3    3    0    0 -0.46788568263E+01  0.12949861371E+01  0.27870949395E+01  0.55979092971E+01  0.00000000000E+00 0. -1.
</event>
<event>
 7    1  0.4236733E-010  0.4778727E+02  0.7816164E-02  0.1312668E+00
        -11   -1    0    0    0    0  0.00000000000E+00  0.00000000000E+00  0.45593999997E+02  0.45594000000E+02  0.51100000000E-03 0.  1.
         11   -1    0    0    0    0 -0.00000000000E+00 -0.00000000000E+00 -0.45593999997E+02  0.45594000000E+02  0.51100000000E-03 0. -1.
    9900012    2    1    2    0    0  0.66072526660E+01 -0.38529743318E+02 -0.18852762643E+02  0.47787267665E+02  0.19999984594E+02 0.  0.
        -12    1    1    2    0    0 -0.66072526660E+01  0.38529743318E+02  0.18852762643E+02  0.43400732335E+02  0.00000000000E+00 0.  1.
         11    1    3    3    0    0  0.14426956005E+01 -0.56202598740E+01 -0.10262253835E+02  0.11789085871E+02  0.51100000000E-03 0. -1.
        -11    1    3    3    0    0 -0.94174765343E+00 -0.19192843687E+01  0.17497667296E+01  0.27626481861E+01  0.51100000000E-03 0.  1.
         12    1    3    3    0    0  0.61063047190E+01 -0.30990199075E+02 -0.10340275538E+02  0.33235533608E+02  0.00000000000E+00 0. -1.
</event>
<event>
 7    1  0.4236733E-010  0.4778727E+02  0.7816164E-02  0.1312668E+00
        -11   -1    0    0    0    0  0.00000000000E+00  0.00000000000E+00  0.45593999997E+02  0.45594000000E+02  0.51100000000E-03 0.  1.
         11   -1    0    0    0    0 -0.00000000000E+00 -0.00000000000E+00 -0.45593999997E+02  0.45594000000E+02  0.51100000000E-03 0. -1.
    9900012    2    1    2    0    0 -0.23119170788E+02 -0.44179594566E+01 -0.36463800112E+02  0.47787272561E+02  0.20000006914E+02 0.  0.
        -12    1    1    2    0    0  0.23119170788E+02  0.44179594566E+01  0.36463800112E+02  0.43400727439E+02  0.00000000000E+00 0.  1.
         11    1    3    3    0    0 -0.29558859371E+01  0.42473148166E-01 -0.98245677559E+01  0.10259687982E+02  0.51100000000E-03 0. -1.
        -11    1    3    3    0    0 -0.21508918358E+02 -0.75817138716E+01 -0.21347762795E+02  0.31238484771E+02  0.51100000000E-03 0.  1.
        -12    1    3    3    0    0  0.13456335073E+01  0.31212812668E+01 -0.52914695607E+01  0.62890998080E+01  0.00000000000E+00 0.  1.
</event>
<event>
 7    1  0.4236733E-010  0.4778726E+02  0.7816164E-02  0.1312668E+00
        -11   -1    0    0    0    0  0.00000000000E+00  0.00000000000E+00  0.45593999997E+02  0.45594000000E+02  0.51100000000E-03 0. -1.
         11   -1    0    0    0    0 -0.00000000000E+00 -0.00000000000E+00 -0.45593999997E+02  0.45594000000E+02  0.51100000000E-03 0.  1.
    9900012    2    1    2    0    0 -0.22140264561E+02 -0.34489347569E+02  0.14279975398E+02  0.47787261436E+02  0.19999956191E+02 0.  0.
        -12    1    1    2    0    0  0.22140264561E+02  0.34489347569E+02 -0.14279975398E+02  0.43400738564E+02  0.00000000000E+00 0.  1.
         11    1    3    3    0    0 -0.93405608505E+01 -0.14558470973E+02  0.10344089191E+02  0.20154288266E+02  0.51100000000E-03 0. -1.
        -11    1    3    3    0    0 -0.15051140431E+02 -0.17723326536E+02  0.58074676655E+01  0.23966222329E+02  0.51100000000E-03 0.  1.
        -12    1    3    3    0    0  0.22514367207E+01 -0.22075500592E+01 -0.18715814579E+01  0.36667508403E+01  0.00000000000E+00 0.  1.
</event>
<event>
 7    1  0.4236733E-010  0.4778727E+02  0.7816164E-02  0.1312668E+00
        -11   -1    0    0    0    0  0.00000000000E+00  0.00000000000E+00  0.45593999997E+02  0.45594000000E+02  0.51100000000E-03 0.  1.
         11   -1    0    0    0    0 -0.00000000000E+00 -0.00000000000E+00 -0.45593999997E+02  0.45594000000E+02  0.51100000000E-03 0. -1.
    9900012    2    1    2    0    0 -0.31939843839E+02  0.23899827336E+02 -0.17095851829E+02  0.47787268199E+02  0.19999987026E+02 0.  0.
        -12    1    1    2    0    0  0.31939843839E+02 -0.23899827336E+02  0.17095851829E+02  0.43400731801E+02  0.00000000000E+00 0.  1.
         11    1    3    3    0    0 -0.15494030770E+02  0.20865739912E+02 -0.95621810760E+01  0.27692587433E+02  0.51100000000E-03 0. -1.
        -11    1    3    3    0    0 -0.95582824088E+01  0.57657057452E+01 -0.37545084227E+01  0.11777115908E+02  0.51100000000E-03 0.  1.
        -12    1    3    3    0    0 -0.68875306599E+01 -0.27316183211E+01 -0.37791623305E+01  0.83175648578E+01  0.00000000000E+00 0.  1.
</event>
<event>
 7    1  0.4236733E-010  0.4778727E+02  0.7816164E-02  0.1312668E+00
        -11   -1    0    0    0    0  0.00000000000E+00  0.00000000000E+00  0.45593999997E+02  0.45594000000E+02  0.51100000000E-03 0. -1.
         11   -1    0    0    0    0 -0.00000000000E+00 -0.00000000000E+00 -0.45593999997E+02  0.45594000000E+02  0.51100000000E-03 0.  1.
    9900012    2    1    2    0    0 -0.42248468493E+02 -0.51874144526E+01  0.84723521929E+01  0.47787272927E+02  0.20000008586E+02 0.  0.
        -12    1    1    2    0    0  0.42248468493E+02  0.51874144526E+01 -0.84723521929E+01  0.43400727073E+02  0.00000000000E+00 0.  1.
         11    1    3    3    0    0 -0.10569894182E+02  0.73407601933E+01  0.13274315700E+01  0.12937213690E+02  0.51100000000E-03 0.  1.
        -11    1    3    3    0    0 -0.76445982067E+01 -0.23349135432E+01  0.20393244470E+01  0.82492755717E+01  0.51100000000E-03 0. -1.
        -12    1    3    3    0    0 -0.24033976105E+02 -0.10193261103E+02  0.51055961759E+01  0.26600783665E+02  0.00000000000E+00 0.  1.
</event>
<event>
 7    1  0.4236733E-010  0.4778727E+02  0.7816164E-02  0.1312668E+00
        -11   -1    0    0    0    0  0.00000000000E+00  0.00000000000E+00  0.45593999997E+02  0.45594000000E+02  0.51100000000E-03 0. -1.
         11   -1    0    0    0    0 -0.00000000000E+00 -0.00000000000E+00 -0.45593999997E+02  0.45594000000E+02  0.51100000000E-03 0.  1.
    9900012    2    1    2    0    0  0.11109586251E+01  0.39606055157E+02 -0.17712975451E+02  0.47787270358E+02  0.19999996870E+02 0.  0.
        -12    1    1    2    0    0 -0.11109586251E+01 -0.39606055157E+02  0.17712975451E+02  0.43400729642E+02  0.00000000000E+00 0.  1.
         11    1    3    3    0    0 -0.20465508369E+01  0.66003836112E+01 -0.10184173420E+00  0.69111363858E+01  0.51100000000E-03 0. -1.
        -11    1    3    3    0    0 -0.83012780015E+00  0.25595405866E+02 -0.19576811323E+02  0.32234538238E+02  0.51100000000E-03 0.  1.
        -12    1    3    3    0    0  0.39876372622E+01  0.74102656799E+01  0.19656776059E+01  0.86415957341E+01  0.00000000000E+00 0.  1.
</event>
<event>
 7    1  0.4236733E-010  0.4778727E+02  0.7816164E-02  0.1312668E+00
        -11   -1    0    0    0    0  0.00000000000E+00  0.00000000000E+00  0.45593999997E+02  0.45594000000E+02  0.51100000000E-03 0. -1.
         11   -1    0    0    0    0 -0.00000000000E+00 -0.00000000000E+00 -0.45593999997E+02  0.45594000000E+02  0.51100000000E-03 0.  1.
    9900012    2    1    2    0    0  0.33639821688E+02 -0.58742737929E+01  0.26785792241E+02  0.47787270032E+02  0.19999995383E+02 0.  0.
        -12    1    1    2    0    0 -0.33639821688E+02  0.58742737929E+01 -0.26785792241E+02  0.43400729968E+02  0.00000000000E+00 0.  1.
         11    1    3    3    0    0  0.18117853061E+02  0.23314473301E+01  0.12866788507E+02  0.22343824492E+02  0.51100000000E-03 0. -1.
        -11    1    3    3    0    0  0.13119276119E+02 -0.61183038960E+00  0.10320399899E+02  0.16703304961E+02  0.51100000000E-03 0.  1.
        -12    1    3    3    0    0  0.24026925083E+01 -0.75938907335E+01  0.35986038356E+01  0.87401405782E+01  0.00000000000E+00 0.  1.
</event>
<event>
 7    1  0.4236733E-010  0.4778727E+02  0.7816164E-02  0.1312668E+00
        -11   -1    0    0    0    0  0.00000000000E+00  0.00000000000E+00  0.45593999997E+02  0.45594000000E+02  0.51100000000E-03 0.  1.
         11   -1    0    0    0    0 -0.00000000000E+00 -0.00000000000E+00 -0.45593999997E+02  0.45594000000E+02  0.51100000000E-03 0. -1.
    9900012    2    1    2    0    0  0.12079257219E+02  0.32684968514E+02 -0.25872910866E+02  0.47787272605E+02  0.20000007117E+02 0.  0.
        -12    1    1    2    0    0 -0.12079257219E+02 -0.32684968514E+02  0.25872910866E+02  0.43400727395E+02  0.00000000000E+00 0.  1.
         11    1    3    3    0    0  0.49447291211E+01  0.17069264798E+02 -0.47130187842E+01  0.18385393473E+02  0.51100000000E-03 0. -1.
        -11    1    3    3    0    0 -0.12545467451E+01  0.29030525455E+00  0.66179287223E+00  0.14478034202E+01  0.51100000000E-03 0.  1.
        -12    1    3    3    0    0  0.83890748427E+01  0.15325398462E+02 -0.21821684954E+02  0.27954075713E+02  0.00000000000E+00 0.  1.
</event>
<event>
 7    1  0.4236733E-010  0.4778727E+02  0.7816164E-02  0.1312668E+00
        -11   -1    0    0    0    0  0.00000000000E+00  0.00000000000E+00  0.45593999997E+02  0.45594000000E+02  0.51100000000E-03 0. -1.
         11   -1    0    0    0    0 -0.00000000000E+00 -0.00000000000E+00 -0.45593999997E+02  0.45594000000E+02  0.51100000000E-03 0.  1.
    9900012    2    1    2    0    0  0.40171647184E+02  0.22097085051E+01  0.16278176606E+02  0.47787273246E+02  0.20000010037E+02 0.  0.
        -12    1    1    2    0    0 -0.40171647184E+02 -0.22097085051E+01 -0.16278176606E+02  0.43400726754E+02  0.00000000000E+00 0.  1.
         11    1    3    3    0    0  0.11519833356E+02  0.93447715007E+01  0.48396837755E+01  0.15603007860E+02  0.51100000000E-03 0. -1.
        -11    1    3    3    0    0  0.22664895363E+02 -0.51502834304E+01  0.63894197226E+01  0.24104928664E+02  0.51100000000E-03 0.  1.
         12    1    3    3    0    0  0.59869184646E+01 -0.19847795652E+01  0.50490731075E+01  0.80793367221E+01  0.00000000000E+00 0. -1.
</event>
<event>
 7    1  0.4236733E-010  0.4778727E+02  0.7816164E-02  0.1312668E+00
        -11   -1    0    0    0    0  0.00000000000E+00  0.00000000000E+00  0.45593999997E+02  0.45594000000E+02  0.51100000000E-03 0. -1.
         11   -1    0    0    0    0 -0.00000000000E+00 -0.00000000000E+00 -0.45593999997E+02  0.45594000000E+02  0.51100000000E-03 0.  1.
    9900012    2    1    2    0    0 -0.40928684186E+02 -0.10392295255E+02  0.10023284732E+02  0.47787271588E+02  0.20000002478E+02 0.  0.
        -12    1    1    2    0    0  0.40928684186E+02  0.10392295255E+02 -0.10023284732E+02  0.43400728412E+02  0.00000000000E+00 0.  1.
         11    1    3    3    0    0 -0.11250709573E+02  0.27388993378E+01  0.50084667722E+01  0.12616052281E+02  0.51100000000E-03 0. -1.
        -11    1    3    3    0    0 -0.28484276493E+02 -0.10009124794E+02  0.13655302688E+01  0.30222529008E+02  0.51100000000E-03 0.  1.
         12    1    3    3    0    0 -0.11936981204E+01 -0.31220697983E+01  0.36492876907E+01  0.49486902992E+01  0.00000000000E+00 0. -1.
</event>
<event>
 7    1  0.4236733E-010  0.4778727E+02  0.7816164E-02  0.1312668E+00
        -11   -1    0    0    0    0  0.00000000000E+00  0.00000000000E+00  0.45593999997E+02  0.45594000000E+02  0.51100000000E-03 0. -1.
         11   -1    0    0    0    0 -0.00000000000E+00 -0.00000000000E+00 -0.45593999997E+02  0.45594000000E+02  0.51100000000E-03 0.  1.
    9900012    2    1    2    0    0  0.34476262756E+01  0.16370775431E+02  0.40046657018E+02  0.47787272432E+02  0.20000006327E+02 0.  0.
        -12    1    1    2    0    0 -0.34476262756E+01 -0.16370775431E+02 -0.40046657018E+02  0.43400727568E+02  0.00000000000E+00 0.  1.
         11    1    3    3    0    0 -0.50218184514E+00  0.45956521918E+00  0.63496307540E+01  0.63860157978E+01  0.51100000000E-03 0. -1.
        -11    1    3    3    0    0 -0.39454205959E+01 -0.19961669745E+01  0.74116735981E+01  0.86304074096E+01  0.51100000000E-03 0.  1.
         12    1    3    3    0    0  0.78952287167E+01  0.17907377186E+02  0.26285352665E+02  0.32770849225E+02  0.00000000000E+00 0. -1.
</event>
<event>
 7    1  0.4236733E-010  0.4778727E+02  0.7816164E-02  0.1312668E+00
        -11   -1    0    0    0    0  0.00000000000E+00  0.00000000000E+00  0.45593999997E+02  0.45594000000E+02  0.51100000000E-03 0. -1.
         11   -1    0    0    0    0 -0.00000000000E+00 -0.00000000000E+00 -0.45593999997E+02  0.45594000000E+02  0.51100000000E-03 0.  1.
    9900012    2    1    2    0    0  0.41280760205E+02  0.63532292288E+01  0.11796551757E+02  0.47787270535E+02  0.19999997678E+02 0.  0.
        -12    1    1    2    0    0 -0.41280760205E+02 -0.63532292288E+01 -0.11796551757E+02  0.43400729465E+02  0.00000000000E+00 0.  1.
         11    1    3    3    0    0  0.35079848201E+02  0.39803125930E+01  0.91717852389E+01  0.36476845846E+02  0.51100000000E-03 0. -1.
        -11    1    3    3    0    0  0.29784119113E+01  0.32151748550E+01 -0.26135676490E+01  0.51028445968E+01  0.51100000000E-03 0.  1.
        -12    1    3    3    0    0  0.32225000922E+01 -0.84225821919E+00  0.52383341670E+01  0.62075800919E+01  0.00000000000E+00 0.  1.
</event>
<event>
 7    1  0.4236733E-010  0.4778727E+02  0.7816164E-02  0.1312668E+00
        -11   -1    0    0    0    0  0.00000000000E+00  0.00000000000E+00  0.45593999997E+02  0.45594000000E+02  0.51100000000E-03 0.  1.
         11   -1    0    0    0    0 -0.00000000000E+00 -0.00000000000E+00 -0.45593999997E+02  0.45594000000E+02  0.51100000000E-03 0. -1.
    9900012    2    1    2    0    0 -0.34147072418E+02  0.61161513232E+01 -0.26080512480E+02  0.47787274281E+02  0.20000014758E+02 0.  0.
        -12    1    1    2    0    0  0.34147072418E+02 -0.61161513232E+01  0.26080512480E+02  0.43400725719E+02  0.00000000000E+00 0.  1.
         11    1    3    3    0    0 -0.89973888485E+01  0.27242711893E+01 -0.36351877367E+00  0.94078055764E+01  0.51100000000E-03 0. -1.
        -11    1    3    3    0    0 -0.10193987059E+02  0.54062064596E+01 -0.45941010127E+01  0.12419750594E+02  0.51100000000E-03 0.  1.
         12    1    3    3    0    0 -0.14955696511E+02 -0.20143263257E+01 -0.21122892693E+02  0.25959718111E+02  0.00000000000E+00 0. -1.
</event>
<event>
 7    1  0.4236733E-010  0.4778728E+02  0.7816164E-02  0.1312668E+00
        -11   -1    0    0    0    0  0.00000000000E+00  0.00000000000E+00  0.45593999997E+02  0.45594000000E+02  0.51100000000E-03 0.  1.
         11   -1    0    0    0    0 -0.00000000000E+00 -0.00000000000E+00 -0.45593999997E+02  0.45594000000E+02  0.51100000000E-03 0. -1.
    9900012    2    1    2    0    0 -0.20195059374E+02 -0.14458093346E+02 -0.35591375083E+02  0.47787275736E+02  0.20000021392E+02 0.  0.
        -12    1    1    2    0    0  0.20195059374E+02  0.14458093346E+02  0.35591375083E+02  0.43400724264E+02  0.00000000000E+00 0.  1.
         11    1    3    3    0    0 -0.16082292565E+02 -0.51276205017E+01 -0.15560016084E+02  0.22957498273E+02  0.51100000000E-03 0. -1.
        -11    1    3    3    0    0 -0.44668053630E+01 -0.13326951955E+01 -0.19450780713E+01  0.50509163128E+01  0.51100000000E-03 0.  1.
        -12    1    3    3    0    0  0.35403855397E+00 -0.79977776486E+01 -0.18086280928E+02  0.19778861151E+02  0.00000000000E+00 0.  1.
</event>
<event>
 7    1  0.4236733E-010  0.4778727E+02  0.7816164E-02  0.1312668E+00
        -11   -1    0    0    0    0  0.00000000000E+00  0.00000000000E+00  0.45593999997E+02  0.45594000000E+02  0.51100000000E-03 0.  1.
         11   -1    0    0    0    0 -0.00000000000E+00 -0.00000000000E+00 -0.45593999997E+02  0.45594000000E+02  0.51100000000E-03 0. -1.
    9900012    2    1    2    0    0  0.31064844526E+02  0.29928171639E+02 -0.47857629849E+01  0.47787267859E+02  0.19999985474E+02 0.  0.
        -12    1    1    2    0    0 -0.31064844526E+02 -0.29928171639E+02  0.47857629849E+01  0.43400732141E+02  0.00000000000E+00 0.  1.
         11    1    3    3    0    0  0.32067921177E+01  0.72616021758E+01 -0.75394279118E+00  0.79738831092E+01  0.51100000000E-03 0. -1.
        -11    1    3    3    0    0  0.18896443254E+02  0.89984568960E+01 -0.89242434969E+01  0.22752800189E+02  0.51100000000E-03 0.  1.
         12    1    3    3    0    0  0.89616091538E+01  0.13668112567E+02  0.48924233032E+01  0.17060584561E+02  0.00000000000E+00 0. -1.
</event>
<event>
 7    1  0.4236733E-010  0.4778727E+02  0.7816164E-02  0.1312668E+00
        -11   -1    0    0    0    0  0.00000000000E+00  0.00000000000E+00  0.45593999997E+02  0.45594000000E+02  0.51100000000E-03 0. -1.
         11   -1    0    0    0    0 -0.00000000000E+00 -0.00000000000E+00 -0.45593999997E+02  0.45594000000E+02  0.51100000000E-03 0.  1.
    9900012    2    1    2    0    0  0.36886941397E+02 -0.22868653969E+02  0.37956046404E-01  0.47787271658E+02  0.20000002798E+02 0.  0.
        -12    1    1    2    0    0 -0.36886941397E+02  0.22868653969E+02 -0.37956046404E-01  0.43400728342E+02  0.00000000000E+00 0.  1.
         11    1    3    3    0    0  0.21840375315E+02 -0.63982650963E+01 -0.32453659758E+01  0.22988523022E+02  0.51100000000E-03 0. -1.
        -11    1    3    3    0    0  0.15066505616E+02 -0.99473167713E+01  0.25906132199E+01  0.18238968708E+02  0.51100000000E-03 0.  1.
        -12    1    3    3    0    0 -0.19939534332E-01 -0.65230721011E+01  0.69270880225E+00  0.65597799282E+01  0.00000000000E+00 0.  1.
</event>
<event>
 7    1  0.4236733E-010  0.4778727E+02  0.7816164E-02  0.1312668E+00
        -11   -1    0    0    0    0  0.00000000000E+00  0.00000000000E+00  0.45593999997E+02  0.45594000000E+02  0.51100000000E-03 0.  1.
         11   -1    0    0    0    0 -0.00000000000E+00 -0.00000000000E+00 -0.45593999997E+02  0.45594000000E+02  0.51100000000E-03 0. -1.
    9900012    2    1    2    0    0  0.37699117895E+02 -0.20943833626E+02 -0.48739396780E+01  0.47787274833E+02  0.20000017275E+02 0.  0.
        -12    1    1    2    0    0 -0.37699117895E+02  0.20943833626E+02  0.48739396780E+01  0.43400725167E+02  0.00000000000E+00 0.  1.
         11    1    3    3    0    0  0.18538815656E+02 -0.63296019381E+01 -0.41521880737E+01  0.20024789954E+02  0.51100000000E-03 0. -1.
        -11    1    3    3    0    0  0.97485593716E+01 -0.11616699906E+02 -0.62965001648E+01  0.16420354476E+02  0.51100000000E-03 0.  1.
         12    1    3    3    0    0  0.94117428672E+01 -0.29975317819E+01  0.55747485605E+01  0.11342130404E+02  0.00000000000E+00 0. -1.
</event>
<event>
 7    1  0.4236733E-010  0.4778727E+02  0.7816164E-02  0.1312668E+00
        -11   -1    0    0    0    0  0.00000000000E+00  0.00000000000E+00  0.45593999997E+02  0.45594000000E+02  0.51100000000E-03 0.  1.
         11   -1    0    0    0    0 -0.00000000000E+00 -0.00000000000E+00 -0.45593999997E+02  0.45594000000E+02  0.51100000000E-03 0. -1.
    9900012    2    1    2    0    0 -0.25245765925E+02 -0.15749814948E+02 -0.31594587789E+02  0.47787270218E+02  0.19999996230E+02 0.  0.
        -12    1    1    2    0    0  0.25245765925E+02  0.15749814948E+02  0.31594587789E+02  0.43400729782E+02  0.00000000000E+00 0.  1.
         11    1    3    3    0    0 -0.75251163725E+01 -0.12170877195E+01 -0.22420248987E+01  0.79457759120E+01  0.51100000000E-03 0. -1.
        -11    1    3    3    0    0  0.10545753431E+01 -0.24770273476E+01  0.32519806907E+00  0.27117425542E+01  0.51100000000E-03 0.  1.
         12    1    3    3    0    0 -0.18775224896E+02 -0.12055699881E+02 -0.29677760960E+02  0.37129751751E+02  0.00000000000E+00 0. -1.
</event>
<event>
 7    1  0.4236733E-010  0.4778727E+02  0.7816164E-02  0.1312668E+00
        -11   -1    0    0    0    0  0.00000000000E+00  0.00000000000E+00  0.45593999997E+02  0.45594000000E+02  0.51100000000E-03 0.  1.
         11   -1    0    0    0    0 -0.00000000000E+00 -0.00000000000E+00 -0.45593999997E+02  0.45594000000E+02  0.51100000000E-03 0. -1.
    9900012    2    1    2    0    0 -0.27226497335E+02  0.30746493381E+01 -0.33658396487E+02  0.47787270977E+02  0.19999999693E+02 0.  0.
        -12    1    1    2    0    0  0.27226497335E+02 -0.30746493381E+01  0.33658396487E+02  0.43400729023E+02  0.00000000000E+00 0.  1.
         11    1    3    3    0    0 -0.17673385722E+02 -0.40615274272E+01 -0.28418703623E+02  0.33711530428E+02  0.51100000000E-03 0. -1.
        -11    1    3    3    0    0 -0.66818095555E+01  0.30086812882E+01 -0.53061530520E+01  0.90473201834E+01  0.51100000000E-03 0.  1.
         12    1    3    3    0    0 -0.28713020568E+01  0.41274954771E+01  0.66460188609E-01  0.50284203654E+01  0.00000000000E+00 0. -1.
</event>
<event>
 7    1  0.4236733E-010  0.4778727E+02  0.7816164E-02  0.1312668E+00
        -11   -1    0    0    0    0  0.00000000000E+00  0.00000000000E+00  0.45593999997E+02  0.45594000000E+02  0.51100000000E-03 0.  1.
         11   -1    0    0    0    0 -0.00000000000E+00 -0.00000000000E+00 -0.45593999997E+02  0.45594000000E+02  0.51100000000E-03 0. -1.
    9900012    2    1    2    0    0  0.28406659214E+02  0.32612325325E+02 -0.36222876663E+01  0.47787273984E+02  0.20000013401E+02 0.  0.
        -12    1    1    2    0    0 -0.28406659214E+02 -0.32612325325E+02  0.36222876663E+01  0.43400726016E+02  0.00000000000E+00 0.  1.
         11    1    3    3    0    0  0.36597438362E+01 -0.54965483998E+00  0.17229986696E+01  0.40822261165E+01  0.51100000000E-03 0.  1.
        -11    1    3    3    0    0  0.23560435994E+01  0.25765718570E+01 -0.46223916032E+01  0.57927686275E+01  0.51100000000E-03 0. -1.
         12    1    3    3    0    0  0.22390871778E+02  0.30585408308E+02 -0.72289473262E+00  0.37912279240E+02  0.00000000000E+00 0. -1.
</event>
<event>
 7    1  0.4236733E-010  0.4778727E+02  0.7816164E-02  0.1312668E+00
        -11   -1    0    0    0    0  0.00000000000E+00  0.00000000000E+00  0.45593999997E+02  0.45594000000E+02  0.51100000000E-03 0. -1.
         11   -1    0    0    0    0 -0.00000000000E+00 -0.00000000000E+00 -0.45593999997E+02  0.45594000000E+02  0.51100000000E-03 0.  1.
    9900012    2    1    2    0    0  0.24501958295E+01 -0.27657398361E+02  0.33356982599E+02  0.47787269225E+02  0.19999991706E+02 0.  0.
        -12    1    1    2    0    0 -0.24501958295E+01  0.27657398361E+02 -0.33356982599E+02  0.43400730775E+02  0.00000000000E+00 0.  1.
         11    1    3    3    0    0 -0.82279313318E+00 -0.88501912771E+01  0.94404367701E+01  0.12966291716E+02  0.51100000000E-03 0. -1.
        -11    1    3    3    0    0  0.60941732537E+01 -0.61076789318E+01  0.19083112376E+02  0.20942967025E+02  0.51100000000E-03 0.  1.
        -12    1    3    3    0    0 -0.28211842910E+01 -0.12699528152E+02  0.48334334528E+01  0.13878010485E+02  0.00000000000E+00 0.  1.
</event>
<event>
 7    1  0.4236733E-010  0.4778727E+02  0.7816164E-02  0.1312668E+00
        -11   -1    0    0    0    0  0.00000000000E+00  0.00000000000E+00  0.45593999997E+02  0.45594000000E+02  0.51100000000E-03 0. -1.
         11   -1    0    0    0    0 -0.00000000000E+00 -0.00000000000E+00 -0.45593999997E+02  0.45594000000E+02  0.51100000000E-03 0.  1.
    9900012    2    1    2    0    0  0.31935291147E+02 -0.22439516394E+02  0.18979693130E+02  0.47787268809E+02  0.19999989806E+02 0.  0.
        -12    1    1    2    0    0 -0.31935291147E+02  0.22439516394E+02 -0.18979693130E+02  0.43400731191E+02  0.00000000000E+00 0.  1.
         11    1    3    3    0    0  0.16282672701E+02 -0.11744843961E+02  0.93392753067E+01  0.22142467195E+02  0.51100000000E-03 0. -1.
        -11    1    3    3    0    0  0.48986631706E+01  0.14076816191E+01 -0.22360589552E+01  0.55658268310E+01  0.51100000000E-03 0.  1.
        -12    1    3    3    0    0  0.10753955275E+02 -0.12102354052E+02  0.11876476778E+02  0.20078974783E+02  0.00000000000E+00 0.  1.
</event>
<event>
 7    1  0.4236733E-010  0.4778727E+02  0.7816164E-02  0.1312668E+00
        -11   -1    0    0    0    0  0.00000000000E+00  0.00000000000E+00  0.45593999997E+02  0.45594000000E+02  0.51100000000E-03 0. -1.
         11   -1    0    0    0    0 -0.00000000000E+00 -0.00000000000E+00 -0.45593999997E+02  0.45594000000E+02  0.51100000000E-03 0.  1.
    9900012    2    1    2    0    0 -0.51487078022E+01  0.42679238502E+02  0.59662873083E+01  0.47787272179E+02  0.20000005175E+02 0.  0.
        -12    1    1    2    0    0  0.51487078022E+01 -0.42679238502E+02 -0.59662873083E+01  0.43400727821E+02  0.00000000000E+00 0.  1.
         11    1    3    3    0    0  0.15739566092E+01  0.22130308640E+02  0.27834564746E+01  0.22360132605E+02  0.51100000000E-03 0.  1.
        -11    1    3    3    0    0 -0.19711103013E+01  0.20006801035E+02  0.42001879824E+01  0.20537744346E+02  0.51100000000E-03 0. -1.
        -12    1    3    3    0    0 -0.47515541101E+01  0.54212882620E+00 -0.10173571486E+01  0.48893952278E+01  0.00000000000E+00 0.  1.
</event>
<event>
 7    1  0.4236733E-010  0.4778727E+02  0.7816164E-02  0.1312668E+00
        -11   -1    0    0    0    0  0.00000000000E+00  0.00000000000E+00  0.45593999997E+02  0.45594000000E+02  0.51100000000E-03 0.  1.
         11   -1    0    0    0    0 -0.00000000000E+00 -0.00000000000E+00 -0.45593999997E+02  0.45594000000E+02  0.51100000000E-03 0. -1.
    9900012    2    1    2    0    0  0.19503206588E+02  0.26680300983E+01 -0.38679837744E+02  0.47787270746E+02  0.19999998642E+02 0.  0.
        -12    1    1    2    0    0 -0.19503206588E+02 -0.26680300983E+01  0.38679837744E+02  0.43400729254E+02  0.00000000000E+00 0.  1.
         11    1    3    3    0    0 -0.15377293779E+01 -0.14642773409E+01 -0.45663978298E+01  0.50359417363E+01  0.51100000000E-03 0.  1.
        -11    1    3    3    0    0  0.59721245085E+01  0.74914137957E+01 -0.18270476488E+02  0.20630023344E+02  0.51100000000E-03 0. -1.
         12    1    3    3    0    0  0.15068811457E+02 -0.33591063565E+01 -0.15842963426E+02  0.22121305666E+02  0.00000000000E+00 0. -1.
</event>
<event>
 7    1  0.4236733E-010  0.4778727E+02  0.7816164E-02  0.1312668E+00
        -11   -1    0    0    0    0  0.00000000000E+00  0.00000000000E+00  0.45593999997E+02  0.45594000000E+02  0.51100000000E-03 0.  1.
         11   -1    0    0    0    0 -0.00000000000E+00 -0.00000000000E+00 -0.45593999997E+02  0.45594000000E+02  0.51100000000E-03 0. -1.
    9900012    2    1    2    0    0 -0.88850304900E+01 -0.86197604270E+01 -0.41597828126E+02  0.47787270267E+02  0.19999996454E+02 0.  0.
        -12    1    1    2    0    0  0.88850304900E+01  0.86197604270E+01  0.41597828126E+02  0.43400729733E+02  0.00000000000E+00 0.  1.
         11    1    3    3    0    0 -0.93535936018E+01 -0.74800820045E+01 -0.21116793469E+02  0.24276744154E+02  0.51100000000E-03 0. -1.
        -11    1    3    3    0    0 -0.50994906750E+01 -0.16391835124E+00 -0.14052534971E+02  0.14950097449E+02  0.51100000000E-03 0.  1.
        -12    1    3    3    0    0  0.55680537868E+01 -0.97576007122E+00 -0.64284996855E+01  0.85604286631E+01  0.00000000000E+00 0.  1.
</event>
<event>
 7    1  0.4236733E-010  0.4778727E+02  0.7816164E-02  0.1312668E+00
        -11   -1    0    0    0    0  0.00000000000E+00  0.00000000000E+00  0.45593999997E+02  0.45594000000E+02  0.51100000000E-03 0.  1.
         11   -1    0    0    0    0 -0.00000000000E+00 -0.00000000000E+00 -0.45593999997E+02  0.45594000000E+02  0.51100000000E-03 0. -1.
    9900012    2    1    2    0    0  0.27840101955E+02  0.32136570976E+02  0.87059072197E+01  0.47787270842E+02  0.19999999075E+02 0.  0.
        -12    1    1    2    0    0 -0.27840101955E+02 -0.32136570976E+02 -0.87059072197E+01  0.43400729158E+02  0.00000000000E+00 0.  1.
         11    1    3    3    0    0  0.15421216748E+01 -0.49318025524E+00  0.16789728954E+00  0.16277456143E+01  0.51100000000E-03 0. -1.
        -11    1    3    3    0    0  0.10918284764E+02  0.10328416262E+02 -0.50464073255E+01  0.15854064205E+02  0.51100000000E-03 0.  1.
         12    1    3    3    0    0  0.15379695516E+02  0.22301334969E+02  0.13584417256E+02  0.30305461022E+02  0.00000000000E+00 0. -1.
</event>
<event>
 7    1  0.4236733E-010  0.4778727E+02  0.7816164E-02  0.1312668E+00
        -11   -1    0    0    0    0  0.00000000000E+00  0.00000000000E+00  0.45593999997E+02  0.45594000000E+02  0.51100000000E-03 0.  1.
         11   -1    0    0    0    0 -0.00000000000E+00 -0.00000000000E+00 -0.45593999997E+02  0.45594000000E+02  0.51100000000E-03 0. -1.
    9900012    2    1    2    0    0 -0.63429280332E+01 -0.46011573345E+01 -0.42687468272E+02  0.47787270371E+02  0.19999996931E+02 0.  0.
        -12    1    1    2    0    0  0.63429280332E+01  0.46011573345E+01  0.42687468272E+02  0.43400729629E+02  0.00000000000E+00 0.  1.
         11    1    3    3    0    0 -0.93867881623E+01  0.58469024559E+00 -0.31402641172E+02  0.32780779849E+02  0.51100000000E-03 0. -1.
        -11    1    3    3    0    0  0.68174344744E+00 -0.55290224654E+01 -0.11323034048E+02  0.12619269545E+02  0.51100000000E-03 0.  1.
        -12    1    3    3    0    0  0.23621166817E+01  0.34317488535E+00  0.38206948364E-01  0.23872209765E+01  0.00000000000E+00 0.  1.
</event>
<event>
 7    1  0.4236733E-010  0.4778727E+02  0.7816164E-02  0.1312668E+00
        -11   -1    0    0    0    0  0.00000000000E+00  0.00000000000E+00  0.45593999997E+02  0.45594000000E+02  0.51100000000E-03 0.  1.
         11   -1    0    0    0    0 -0.00000000000E+00 -0.00000000000E+00 -0.45593999997E+02  0.45594000000E+02  0.51100000000E-03 0. -1.
    9900012    2    1    2    0    0 -0.98226666733E+01  0.10432709536E+02 -0.40967022056E+02  0.47787272990E+02  0.20000008872E+02 0.  0.
        -12    1    1    2    0    0  0.98226666733E+01 -0.10432709536E+02  0.40967022056E+02  0.43400727010E+02  0.00000000000E+00 0.  1.
         11    1    3    3    0    0 -0.96858619694E+00  0.41586468978E+01 -0.46605395816E+01  0.63208490485E+01  0.51100000000E-03 0. -1.
        -11    1    3    3    0    0 -0.69755976980E+01 -0.17214866774E+01 -0.41921384743E+01  0.83184436570E+01  0.51100000000E-03 0.  1.
         12    1    3    3    0    0 -0.18784827784E+01  0.79955493156E+01 -0.32114344000E+02  0.33147980285E+02  0.00000000000E+00 0. -1.
</event>
<event>
 7    1  0.4236733E-010  0.4778727E+02  0.7816164E-02  0.1312668E+00
        -11   -1    0    0    0    0  0.00000000000E+00  0.00000000000E+00  0.45593999997E+02  0.45594000000E+02  0.51100000000E-03 0.  1.
         11   -1    0    0    0    0 -0.00000000000E+00 -0.00000000000E+00 -0.45593999997E+02  0.45594000000E+02  0.51100000000E-03 0. -1.
    9900012    2    1    2    0    0 -0.37920164936E+02 -0.79226580542E+01 -0.19568231970E+02  0.47787272796E+02  0.20000007985E+02 0.  0.
        -12    1    1    2    0    0  0.37920164936E+02  0.79226580542E+01  0.19568231970E+02  0.43400727204E+02  0.00000000000E+00 0.  1.
         11    1    3    3    0    0 -0.36113345486E+02 -0.61745446452E+01 -0.20755436973E+02  0.42108038282E+02  0.51100000000E-03 0. -1.
        -11    1    3    3    0    0 -0.34869838502E+01 -0.70737228094E+00  0.98918279546E+00  0.36929547492E+01  0.51100000000E-03 0.  1.
         12    1    3    3    0    0  0.16801644005E+01 -0.10407411280E+01  0.19802220698E+00  0.19862797644E+01  0.00000000000E+00 0. -1.
</event>
<event>
 7    1  0.4236733E-010  0.4778727E+02  0.7816164E-02  0.1312668E+00
        -11   -1    0    0    0    0  0.00000000000E+00  0.00000000000E+00  0.45593999997E+02  0.45594000000E+02  0.51100000000E-03 0.  1.
         11   -1    0    0    0    0 -0.00000000000E+00 -0.00000000000E+00 -0.45593999997E+02  0.45594000000E+02  0.51100000000E-03 0. -1.
    9900012    2    1    2    0    0 -0.45187519222E+01  0.12824344665E+02 -0.41215774123E+02  0.47787274527E+02  0.20000015878E+02 0.  0.
        -12    1    1    2    0    0  0.45187519222E+01 -0.12824344665E+02  0.41215774123E+02  0.43400725473E+02  0.00000000000E+00 0.  1.
         11    1    3    3    0    0 -0.36995111677E+01  0.10440096127E+01 -0.39862136305E+01  0.55377105667E+01  0.51100000000E-03 0. -1.
        -11    1    3    3    0    0 -0.80444402073E+00 -0.40519630397E+01 -0.82913296654E+01  0.92634595340E+01  0.51100000000E-03 0.  1.
         12    1    3    3    0    0 -0.14796733850E-01  0.15832298092E+02 -0.28938230827E+02  0.32986104426E+02  0.00000000000E+00 0. -1.
</event>
<event>
 7    1  0.4236733E-010  0.4778727E+02  0.7816164E-02  0.1312668E+00
        -11   -1    0    0    0    0  0.00000000000E+00  0.00000000000E+00  0.45593999997E+02  0.45594000000E+02  0.51100000000E-03 0.  1.
         11   -1    0    0    0    0 -0.00000000000E+00 -0.00000000000E+00 -0.45593999997E+02  0.45594000000E+02  0.51100000000E-03 0. -1.
    9900012    2    1    2    0    0 -0.20188314760E+02  0.36818017886E+02 -0.10976742951E+02  0.47787269825E+02  0.19999994438E+02 0.  0.
        -12    1    1    2    0    0  0.20188314760E+02 -0.36818017886E+02  0.10976742951E+02  0.43400730175E+02  0.00000000000E+00 0.  1.
         11    1    3    3    0    0 -0.85416680547E+01  0.21858827924E+02 -0.25458754492E+01  0.23606141859E+02  0.51100000000E-03 0. -1.
        -11    1    3    3    0    0 -0.64444986626E+01  0.13699710249E+02 -0.12034419634E+01  0.15187557300E+02  0.51100000000E-03 0.  1.
         12    1    3    3    0    0 -0.52021480429E+01  0.12594797130E+01 -0.72274255388E+01  0.89935706661E+01  0.00000000000E+00 0. -1.
</event>
<event>
 7    1  0.4236733E-010  0.4778727E+02  0.7816164E-02  0.1312668E+00
        -11   -1    0    0    0    0  0.00000000000E+00  0.00000000000E+00  0.45593999997E+02  0.45594000000E+02  0.51100000000E-03 0. -1.
         11   -1    0    0    0    0 -0.00000000000E+00 -0.00000000000E+00 -0.45593999997E+02  0.45594000000E+02  0.51100000000E-03 0.  1.
    9900012    2    1    2    0    0 -0.23774195458E+02 -0.35249758774E+02 -0.87100664884E+01  0.47787272799E+02  0.20000008001E+02 0.  0.
        -12    1    1    2    0    0  0.23774195458E+02  0.35249758774E+02  0.87100664884E+01  0.43400727201E+02  0.00000000000E+00 0.  1.
         11    1    3    3    0    0 -0.19350243454E+02 -0.16407950705E+02 -0.48131250030E+01  0.25822837579E+02  0.51100000000E-03 0. -1.
        -11    1    3    3    0    0 -0.33427872514E+01 -0.26002518978E+01 -0.37950026085E+01  0.56866142475E+01  0.51100000000E-03 0.  1.
        -12    1    3    3    0    0 -0.10811647528E+01 -0.16241556172E+02 -0.10193887692E+00  0.16277820973E+02  0.00000000000E+00 0.  1.
</event>
<event>
 7    1  0.4236733E-010  0.4778728E+02  0.7816164E-02  0.1312668E+00
        -11   -1    0    0    0    0  0.00000000000E+00  0.00000000000E+00  0.45593999997E+02  0.45594000000E+02  0.51100000000E-03 0. -1.
         11   -1    0    0    0    0 -0.00000000000E+00 -0.00000000000E+00 -0.45593999997E+02  0.45594000000E+02  0.51100000000E-03 0.  1.
    9900012    2    1    2    0    0  0.32956006228E+02 -0.12828906690E+02  0.25158359174E+02  0.47787283073E+02  0.20000054844E+02 0.  0.
        -12    1    1    2    0    0 -0.32956006228E+02  0.12828906690E+02 -0.25158359174E+02  0.43400716927E+02  0.00000000000E+00 0.  1.
         11    1    3    3    0    0  0.15868954542E+02 -0.69341745741E+01  0.22186519257E+02  0.28145126261E+02  0.51100000000E-03 0.  1.
        -11    1    3    3    0    0  0.11130583628E+02 -0.20039858404E+01  0.48162759998E+01  0.12292370232E+02  0.51100000000E-03 0. -1.
        -12    1    3    3    0    0  0.59564680582E+01 -0.38907462759E+01 -0.18444360819E+01  0.73497865800E+01  0.00000000000E+00 0.  1.
</event>
<event>
 7    1  0.4236733E-010  0.4778727E+02  0.7816164E-02  0.1312668E+00
        -11   -1    0    0    0    0  0.00000000000E+00  0.00000000000E+00  0.45593999997E+02  0.45594000000E+02  0.51100000000E-03 0. -1.
         11   -1    0    0    0    0 -0.00000000000E+00 -0.00000000000E+00 -0.45593999997E+02  0.45594000000E+02  0.51100000000E-03 0.  1.
    9900012    2    1    2    0    0 -0.39946351580E+02  0.70945020325E+01  0.15413647737E+02  0.47787268437E+02  0.19999988113E+02 0.  0.
        -12    1    1    2    0    0  0.39946351580E+02 -0.70945020325E+01 -0.15413647737E+02  0.43400731563E+02  0.00000000000E+00 0.  1.
         11    1    3    3    0    0 -0.23854909283E+01  0.28694239877E+01  0.50122447319E+01  0.62487405534E+01  0.51100000000E-03 0. -1.
        -11    1    3    3    0    0 -0.84255393176E+01  0.58321444892E+01  0.64109011169E+01  0.12087318790E+02  0.51100000000E-03 0.  1.
         12    1    3    3    0    0 -0.29135321334E+02 -0.16070664443E+01  0.39905018885E+01  0.29451209094E+02  0.00000000000E+00 0. -1.
</event>
<event>
 7    1  0.4236733E-010  0.4778727E+02  0.7816164E-02  0.1312668E+00
        -11   -1    0    0    0    0  0.00000000000E+00  0.00000000000E+00  0.45593999997E+02  0.45594000000E+02  0.51100000000E-03 0. -1.
         11   -1    0    0    0    0 -0.00000000000E+00 -0.00000000000E+00 -0.45593999997E+02  0.45594000000E+02  0.51100000000E-03 0.  1.
    9900012    2    1    2    0    0  0.35980244190E+02 -0.11477010218E+02  0.21385124490E+02  0.47787270916E+02  0.19999999416E+02 0.  0.
        -12    1    1    2    0    0 -0.35980244190E+02  0.11477010218E+02 -0.21385124490E+02  0.43400729084E+02  0.00000000000E+00 0.  1.
         11    1    3    3    0    0  0.25005866714E+02 -0.47945923495E+01  0.13423028170E+02  0.28782966689E+02  0.51100000000E-03 0. -1.
        -11    1    3    3    0    0  0.11671794068E+02 -0.87877409655E+01  0.53054339065E+01  0.15543577363E+02  0.51100000000E-03 0.  1.
        -12    1    3    3    0    0 -0.69741659212E+00  0.21053230971E+01  0.26566624137E+01  0.34607268640E+01  0.00000000000E+00 0.  1.
</event>
<event>
 7    1  0.4236733E-010  0.4778727E+02  0.7816164E-02  0.1312668E+00
        -11   -1    0    0    0    0  0.00000000000E+00  0.00000000000E+00  0.45593999997E+02  0.45594000000E+02  0.51100000000E-03 0.  1.
         11   -1    0    0    0    0 -0.00000000000E+00 -0.00000000000E+00 -0.45593999997E+02  0.45594000000E+02  0.51100000000E-03 0. -1.
    9900012    2    1    2    0    0 -0.11728946858E+02  0.14883622951E+01 -0.41759309472E+02  0.47787270233E+02  0.19999996299E+02 0.  0.
        -12    1    1    2    0    0  0.11728946858E+02 -0.14883622951E+01  0.41759309472E+02  0.43400729767E+02  0.00000000000E+00 0.  1.
         11    1    3    3    0    0  0.26114083261E+00 -0.19325515983E+01 -0.45925315366E+01  0.49894184421E+01  0.51100000000E-03 0. -1.
        -11    1    3    3    0    0 -0.13337014726E+02  0.27186723088E+01 -0.13804943120E+02  0.19386686043E+02  0.51100000000E-03 0.  1.
         12    1    3    3    0    0  0.13469270353E+01  0.70224158463E+00 -0.23361834816E+02  0.23411165748E+02  0.00000000000E+00 0. -1.
</event>
<event>
 7    1  0.4236733E-010  0.4778728E+02  0.7816164E-02  0.1312668E+00
        -11   -1    0    0    0    0  0.00000000000E+00  0.00000000000E+00  0.45593999997E+02  0.45594000000E+02  0.51100000000E-03 0. -1.
         11   -1    0    0    0    0 -0.00000000000E+00 -0.00000000000E+00 -0.45593999997E+02  0.45594000000E+02  0.51100000000E-03 0.  1.
    9900012    2    1    2    0    0  0.15359384684E+02  0.14014210944E+02  0.38096116106E+02  0.47787275713E+02  0.20000021286E+02 0.  0.
        -12    1    1    2    0    0 -0.15359384684E+02 -0.14014210944E+02 -0.38096116106E+02  0.43400724287E+02  0.00000000000E+00 0.  1.
         11    1    3    3    0    0  0.84823584176E+01  0.31233299326E+01  0.88362706196E+01  0.12640619958E+02  0.51100000000E-03 0. -1.
        -11    1    3    3    0    0  0.45374299542E+01 -0.20248707869E+01  0.30403605753E+01  0.58251321858E+01  0.51100000000E-03 0.  1.
         12    1    3    3    0    0  0.23395963124E+01  0.12915751798E+02  0.26219484911E+02  0.29321523569E+02  0.00000000000E+00 0. -1.
</event>
<event>
 7    1  0.4236733E-010  0.4778727E+02  0.7816164E-02  0.1312668E+00
        -11   -1    0    0    0    0  0.00000000000E+00  0.00000000000E+00  0.45593999997E+02  0.45594000000E+02  0.51100000000E-03 0. -1.
         11   -1    0    0    0    0 -0.00000000000E+00 -0.00000000000E+00 -0.45593999997E+02  0.45594000000E+02  0.51100000000E-03 0.  1.
    9900012    2    1    2    0    0 -0.50947759210E+01  0.28763738903E+02  0.32098502332E+02  0.47787271097E+02  0.20000000240E+02 0.  0.
        -12    1    1    2    0    0  0.50947759210E+01 -0.28763738903E+02 -0.32098502332E+02  0.43400728903E+02  0.00000000000E+00 0.  1.
         11    1    3    3    0    0 -0.17346478089E+01  0.58472254181E+01  0.15559594035E+02  0.16712271387E+02  0.51100000000E-03 0. -1.
        -11    1    3    3    0    0  0.15479589076E+01  0.89674259335E+00  0.58374158261E+01  0.61053867892E+01  0.51100000000E-03 0.  1.
         12    1    3    3    0    0 -0.49080870197E+01  0.22019770892E+02  0.10701492470E+02  0.24969612921E+02  0.00000000000E+00 0. -1.
</event>
<event>
 7    1  0.4236733E-010  0.4778727E+02  0.7816164E-02  0.1312668E+00
        -11   -1    0    0    0    0  0.00000000000E+00  0.00000000000E+00  0.45593999997E+02  0.45594000000E+02  0.51100000000E-03 0.  1.
         11   -1    0    0    0    0 -0.00000000000E+00 -0.00000000000E+00 -0.45593999997E+02  0.45594000000E+02  0.51100000000E-03 0. -1.
    9900012    2    1    2    0    0 -0.12195769203E+02 -0.40392224068E+02 -0.10166350276E+02  0.47787271555E+02  0.20000002326E+02 0.  0.
        -12    1    1    2    0    0  0.12195769203E+02  0.40392224068E+02  0.10166350276E+02  0.43400728445E+02  0.00000000000E+00 0.  1.
         11    1    3    3    0    0 -0.58853798034E+01 -0.52571822216E+01 -0.18126522167E+01  0.80969975091E+01  0.51100000000E-03 0. -1.
        -11    1    3    3    0    0 -0.21780020984E+00 -0.65151187113E+01 -0.81396808597E+01  0.10428260330E+02  0.51100000000E-03 0.  1.
         12    1    3    3    0    0 -0.60925891901E+01 -0.28619923136E+02 -0.21401719977E+00  0.29262013715E+02  0.00000000000E+00 0. -1.
</event>
<event>
 7    1  0.4236733E-010  0.4778727E+02  0.7816164E-02  0.1312668E+00
        -11   -1    0    0    0    0  0.00000000000E+00  0.00000000000E+00  0.45593999997E+02  0.45594000000E+02  0.51100000000E-03 0.  1.
         11   -1    0    0    0    0 -0.00000000000E+00 -0.00000000000E+00 -0.45593999997E+02  0.45594000000E+02  0.51100000000E-03 0. -1.
    9900012    2    1    2    0    0  0.57638292906E+01 -0.86645038438E+01 -0.42134637856E+02  0.47787273483E+02  0.20000011117E+02 0.  0.
        -12    1    1    2    0    0 -0.57638292906E+01  0.86645038438E+01  0.42134637856E+02  0.43400726517E+02  0.00000000000E+00 0.  1.
         11    1    3    3    0    0  0.91623580386E+00  0.18837460829E+00  0.78502995061E+00  0.12211655604E+01  0.51100000000E-03 0.  1.
        -11    1    3    3    0    0 -0.20715211749E+01  0.32695040000E+01 -0.12739830002E+02  0.13314808490E+02  0.51100000000E-03 0. -1.
         12    1    3    3    0    0  0.69191146616E+01 -0.12122382452E+02 -0.30179837805E+02  0.33251299432E+02  0.00000000000E+00 0. -1.
</event>
<event>
 7    1  0.4236733E-010  0.4778727E+02  0.7816164E-02  0.1312668E+00
        -11   -1    0    0    0    0  0.00000000000E+00  0.00000000000E+00  0.45593999997E+02  0.45594000000E+02  0.51100000000E-03 0. -1.
         11   -1    0    0    0    0 -0.00000000000E+00 -0.00000000000E+00 -0.45593999997E+02  0.45594000000E+02  0.51100000000E-03 0.  1.
    9900012    2    1    2    0    0  0.13104989938E+02 -0.21846825040E+02  0.35136859187E+02  0.47787269602E+02  0.19999993422E+02 0.  0.
        -12    1    1    2    0    0 -0.13104989938E+02  0.21846825040E+02 -0.35136859187E+02  0.43400730398E+02  0.00000000000E+00 0.  1.
         11    1    3    3    0    0  0.69966379213E+01 -0.99614102371E+01  0.26970753805E+02  0.29590609950E+02  0.51100000000E-03 0. -1.
        -11    1    3    3    0    0 -0.21345639663E+01 -0.12613170933E+01  0.27429175355E+01  0.36974154492E+01  0.51100000000E-03 0.  1.
        -12    1    3    3    0    0  0.82429159831E+01 -0.10624097709E+02  0.54231878462E+01  0.14499244203E+02  0.00000000000E+00 0.  1.
</event>
<event>
 7    1  0.4236733E-010  0.4778727E+02  0.7816164E-02  0.1312668E+00
        -11   -1    0    0    0    0  0.00000000000E+00  0.00000000000E+00  0.45593999997E+02  0.45594000000E+02  0.51100000000E-03 0.  1.
         11   -1    0    0    0    0 -0.00000000000E+00 -0.00000000000E+00 -0.45593999997E+02  0.45594000000E+02  0.51100000000E-03 0. -1.
    9900012    2    1    2    0    0 -0.31833569125E+02  0.20644658354E+02 -0.21072387789E+02  0.47787267645E+02  0.19999984502E+02 0.  0.
        -12    1    1    2    0    0  0.31833569125E+02 -0.20644658354E+02  0.21072387789E+02  0.43400732355E+02  0.00000000000E+00 0.  1.
         11    1    3    3    0    0 -0.10359615909E+02  0.36383521574E+01 -0.13525824629E+02  0.17421457470E+02  0.51100000000E-03 0. -1.
        -11    1    3    3    0    0 -0.77836287060E+01  0.32455552442E+00 -0.12860158805E+01  0.78958247972E+01  0.51100000000E-03 0.  1.
        -12    1    3    3    0    0 -0.13690324510E+02  0.16681750672E+02 -0.62605472791E+01  0.22469985378E+02  0.00000000000E+00 0.  1.
</event>
<event>
 7    1  0.4236733E-010  0.4778727E+02  0.7816164E-02  0.1312668E+00
        -11   -1    0    0    0    0  0.00000000000E+00  0.00000000000E+00  0.45593999997E+02  0.45594000000E+02  0.51100000000E-03 0. -1.
         11   -1    0    0    0    0 -0.00000000000E+00 -0.00000000000E+00 -0.45593999997E+02  0.45594000000E+02  0.51100000000E-03 0.  1.
    9900012    2    1    2    0    0 -0.28036836405E+02  0.11229940690E+02  0.31168056603E+02  0.47787268256E+02  0.19999987286E+02 0.  0.
        -12    1    1    2    0    0  0.28036836405E+02 -0.11229940690E+02 -0.31168056603E+02  0.43400731744E+02  0.00000000000E+00 0.  1.
         11    1    3    3    0    0 -0.11580638522E+02  0.82403377921E+01  0.22418589237E+02  0.26544443847E+02  0.51100000000E-03 0.  1.
        -11    1    3    3    0    0 -0.52623134109E+01 -0.26769997357E+01  0.59615188627E+01  0.83903502568E+01  0.51100000000E-03 0. -1.
        -12    1    3    3    0    0 -0.11193884472E+02  0.56666026341E+01  0.27879485037E+01  0.12852474153E+02  0.00000000000E+00 0.  1.
</event>
<event>
 7    1  0.4236733E-010  0.4778728E+02  0.7816164E-02  0.1312668E+00
        -11   -1    0    0    0    0  0.00000000000E+00  0.00000000000E+00  0.45593999997E+02  0.45594000000E+02  0.51100000000E-03 0.  1.
         11   -1    0    0    0    0 -0.00000000000E+00 -0.00000000000E+00 -0.45593999997E+02  0.45594000000E+02  0.51100000000E-03 0. -1.
    9900012    2    1    2    0    0 -0.59356621051E+01 -0.98440968342E+01 -0.41850739606E+02  0.47787277280E+02  0.20000028429E+02 0.  0.
        -12    1    1    2    0    0  0.59356621051E+01  0.98440968342E+01  0.41850739606E+02  0.43400722720E+02  0.00000000000E+00 0.  1.
         11    1    3    3    0    0 -0.62346932463E+01 -0.20129830655E+01 -0.23351712911E+02  0.24253370835E+02  0.51100000000E-03 0. -1.
        -11    1    3    3    0    0  0.16991612909E+01 -0.85512422779E+01 -0.19707017761E+02  0.21549418621E+02  0.51100000000E-03 0.  1.
        -12    1    3    3    0    0 -0.14001301497E+01  0.72012850914E+00  0.12079910671E+01  0.19844878241E+01  0.00000000000E+00 0.  1.
</event>
<event>
 7    1  0.4236733E-010  0.4778727E+02  0.7816164E-02  0.1312668E+00
        -11   -1    0    0    0    0  0.00000000000E+00  0.00000000000E+00  0.45593999997E+02  0.45594000000E+02  0.51100000000E-03 0. -1.
         11   -1    0    0    0    0 -0.00000000000E+00 -0.00000000000E+00 -0.45593999997E+02  0.45594000000E+02  0.51100000000E-03 0.  1.
    9900012    2    1    2    0    0 -0.41285086861E+02  0.36361826486E+01  0.12881897299E+02  0.47787268446E+02  0.19999988154E+02 0.  0.
        -12    1    1    2    0    0  0.41285086861E+02 -0.36361826486E+01 -0.12881897299E+02  0.43400731554E+02  0.00000000000E+00 0.  1.
         11    1    3    3    0    0 -0.92071322075E+01  0.64225606757E+01  0.29490202676E+01  0.11606777758E+02  0.51100000000E-03 0. -1.
        -11    1    3    3    0    0 -0.18695469094E+02  0.34415065520E+01  0.12393095743E+01  0.19049945420E+02  0.51100000000E-03 0.  1.
        -12    1    3    3    0    0 -0.13382485559E+02 -0.62278845791E+01  0.86935674576E+01  0.17130545269E+02  0.00000000000E+00 0.  1.
</event>
<event>
 7    1  0.4236733E-010  0.4778727E+02  0.7816164E-02  0.1312668E+00
        -11   -1    0    0    0    0  0.00000000000E+00  0.00000000000E+00  0.45593999997E+02  0.45594000000E+02  0.51100000000E-03 0.  1.
         11   -1    0    0    0    0 -0.00000000000E+00 -0.00000000000E+00 -0.45593999997E+02  0.45594000000E+02  0.51100000000E-03 0. -1.
    9900012    2    1    2    0    0  0.24764130599E+02  0.29526724621E+02 -0.19963312913E+02  0.47787268513E+02  0.19999988458E+02 0.  0.
        -12    1    1    2    0    0 -0.24764130599E+02 -0.29526724621E+02  0.19963312913E+02  0.43400731487E+02  0.00000000000E+00 0.  1.
         11    1    3    3    0    0 -0.23050220389E+01  0.54421988236E+01 -0.19810242590E+01  0.62333868813E+01  0.51100000000E-03 0. -1.
        -11    1    3    3    0    0 -0.20042028147E+00  0.28460743800E+01 -0.85365561980E+00  0.29780926520E+01  0.51100000000E-03 0.  1.
        -12    1    3    3    0    0  0.27269572919E+02  0.21238451417E+02 -0.17128633034E+02  0.38575788980E+02  0.00000000000E+00 0.  1.
</event>
<event>
 7    1  0.4236733E-010  0.4778727E+02  0.7816164E-02  0.1312668E+00
        -11   -1    0    0    0    0  0.00000000000E+00  0.00000000000E+00  0.45593999997E+02  0.45594000000E+02  0.51100000000E-03 0.  1.
         11   -1    0    0    0    0 -0.00000000000E+00 -0.00000000000E+00 -0.45593999997E+02  0.45594000000E+02  0.51100000000E-03 0. -1.
    9900012    2    1    2    0    0 -0.20841244115E+02 -0.20133384930E+01 -0.38015947912E+02  0.47787270931E+02  0.19999999481E+02 0.  0.
        -12    1    1    2    0    0  0.20841244115E+02  0.20133384930E+01  0.38015947912E+02  0.43400729069E+02  0.00000000000E+00 0.  1.
         11    1    3    3    0    0 -0.39677394065E+00 -0.39643425474E+01 -0.11228551407E+02  0.11914436972E+02  0.51100000000E-03 0. -1.
        -11    1    3    3    0    0 -0.27735560876E+01 -0.17561428960E+01 -0.12279477554E+02  0.12710712824E+02  0.51100000000E-03 0.  1.
         12    1    3    3    0    0 -0.17670914086E+02  0.37071469503E+01 -0.14507918950E+02  0.23162121134E+02  0.00000000000E+00 0. -1.
</event>
<event>
 7    1  0.4236733E-010  0.4778728E+02  0.7816164E-02  0.1312668E+00
        -11   -1    0    0    0    0  0.00000000000E+00  0.00000000000E+00  0.45593999997E+02  0.45594000000E+02  0.51100000000E-03 0.  1.
         11   -1    0    0    0    0 -0.00000000000E+00 -0.00000000000E+00 -0.45593999997E+02  0.45594000000E+02  0.51100000000E-03 0. -1.
    9900012    2    1    2    0    0  0.26198588139E+02 -0.30093923867E+02 -0.17076647255E+02  0.47787283927E+02  0.20000058736E+02 0.  0.
        -12    1    1    2    0    0 -0.26198588139E+02  0.30093923867E+02  0.17076647255E+02  0.43400716073E+02  0.00000000000E+00 0.  1.
         11    1    3    3    0    0  0.11091978265E+02 -0.12401906200E+02  0.10018616624E+01  0.16668622807E+02  0.51100000000E-03 0. -1.
        -11    1    3    3    0    0  0.38638021623E+01 -0.99946207611E+01 -0.37669559032E+01  0.11358317144E+02  0.51100000000E-03 0.  1.
        -12    1    3    3    0    0  0.11242807711E+02 -0.76973969066E+01 -0.14311553014E+02  0.19760343976E+02  0.00000000000E+00 0.  1.
</event>
<event>
 7    1  0.4236733E-010  0.4778727E+02  0.7816164E-02  0.1312668E+00
        -11   -1    0    0    0    0  0.00000000000E+00  0.00000000000E+00  0.45593999997E+02  0.45594000000E+02  0.51100000000E-03 0.  1.
         11   -1    0    0    0    0 -0.00000000000E+00 -0.00000000000E+00 -0.45593999997E+02  0.45594000000E+02  0.51100000000E-03 0. -1.
    9900012    2    1    2    0    0  0.21268983147E+02 -0.34592220044E+02 -0.15317695033E+02  0.47787272900E+02  0.20000008460E+02 0.  0.
        -12    1    1    2    0    0 -0.21268983147E+02  0.34592220044E+02  0.15317695033E+02  0.43400727100E+02  0.00000000000E+00 0.  1.
         11    1    3    3    0    0  0.45501380507E+01 -0.14799485779E+02 -0.10041485422E+02  0.18454266860E+02  0.51100000000E-03 0.  1.
        -11    1    3    3    0    0  0.63082654315E+01 -0.14379776793E+02 -0.74815366246E+01  0.17393837527E+02  0.51100000000E-03 0. -1.
        -12    1    3    3    0    0  0.10410579665E+02 -0.54129574712E+01  0.22053270132E+01  0.11939168513E+02  0.00000000000E+00 0.  1.
</event>
<event>
 7    1  0.4236733E-010  0.4778727E+02  0.7816164E-02  0.1312668E+00
        -11   -1    0    0    0    0  0.00000000000E+00  0.00000000000E+00  0.45593999997E+02  0.45594000000E+02  0.51100000000E-03 0.  1.
         11   -1    0    0    0    0 -0.00000000000E+00 -0.00000000000E+00 -0.45593999997E+02  0.45594000000E+02  0.51100000000E-03 0. -1.
    9900012    2    1    2    0    0 -0.26189252102E+02  0.77696000795E+01 -0.33725058971E+02  0.47787271738E+02  0.20000003164E+02 0.  0.
        -12    1    1    2    0    0  0.26189252102E+02 -0.77696000795E+01  0.33725058971E+02  0.43400728262E+02  0.00000000000E+00 0.  1.
         11    1    3    3    0    0 -0.14600690060E+02  0.86070786948E+01 -0.15012721166E+02  0.22641637550E+02  0.51100000000E-03 0. -1.
        -11    1    3    3    0    0 -0.13208659158E+02  0.20543047466E+01 -0.13739406847E+02  0.19169249998E+02  0.51100000000E-03 0.  1.
        -12    1    3    3    0    0  0.16200971152E+01 -0.28917833619E+01 -0.49729309577E+01  0.59763841899E+01  0.00000000000E+00 0.  1.
</event>
<event>
 7    1  0.4236733E-010  0.4778727E+02  0.7816164E-02  0.1312668E+00
        -11   -1    0    0    0    0  0.00000000000E+00  0.00000000000E+00  0.45593999997E+02  0.45594000000E+02  0.51100000000E-03 0. -1.
         11   -1    0    0    0    0 -0.00000000000E+00 -0.00000000000E+00 -0.45593999997E+02  0.45594000000E+02  0.51100000000E-03 0.  1.
    9900012    2    1    2    0    0 -0.37330106221E+02  0.12944702152E+02  0.17958868079E+02  0.47787273198E+02  0.20000009818E+02 0.  0.
        -12    1    1    2    0    0  0.37330106221E+02 -0.12944702152E+02 -0.17958868079E+02  0.43400726802E+02  0.00000000000E+00 0.  1.
         11    1    3    3    0    0 -0.31314742923E+02  0.13019756267E+02  0.72229429570E+01  0.34674170254E+02  0.51100000000E-03 0. -1.
        -11    1    3    3    0    0 -0.23125317666E+01 -0.11151092455E+01  0.12063384868E+01  0.28366396681E+01  0.51100000000E-03 0.  1.
         12    1    3    3    0    0 -0.37028315315E+01  0.10400551308E+01  0.95295866351E+01  0.10276463276E+02  0.00000000000E+00 0. -1.
</event>
<event>
 7    1  0.4236733E-010  0.4778728E+02  0.7816164E-02  0.1312668E+00
        -11   -1    0    0    0    0  0.00000000000E+00  0.00000000000E+00  0.45593999997E+02  0.45594000000E+02  0.51100000000E-03 0.  1.
         11   -1    0    0    0    0 -0.00000000000E+00 -0.00000000000E+00 -0.45593999997E+02  0.45594000000E+02  0.51100000000E-03 0. -1.
    9900012    2    1    2    0    0 -0.46661752730E+01 -0.20751431551E+02 -0.37831569381E+02  0.47787277138E+02  0.20000027782E+02 0.  0.
        -12    1    1    2    0    0  0.46661752730E+01  0.20751431551E+02  0.37831569381E+02  0.43400722862E+02  0.00000000000E+00 0.  1.
         11    1    3    3    0    0  0.36534870710E+01 -0.50911942537E+01 -0.93991402084E+01  0.11296550961E+02  0.51100000000E-03 0. -1.
        -11    1    3    3    0    0 -0.11378580916E+02 -0.14199829496E+02 -0.18302394568E+02  0.25808620819E+02  0.51100000000E-03 0.  1.
        -12    1    3    3    0    0  0.30589185719E+01 -0.14604078014E+01 -0.10130034605E+02  0.10682105358E+02  0.00000000000E+00 0.  1.
</event>
<event>
 7    1  0.4236733E-010  0.4778728E+02  0.7816164E-02  0.1312668E+00
        -11   -1    0    0    0    0  0.00000000000E+00  0.00000000000E+00  0.45593999997E+02  0.45594000000E+02  0.51100000000E-03 0. -1.
         11   -1    0    0    0    0 -0.00000000000E+00 -0.00000000000E+00 -0.45593999997E+02  0.45594000000E+02  0.51100000000E-03 0.  1.
    9900012    2    1    2    0    0 -0.32640101458E+02  0.27326514745E+02  0.84562289374E+01  0.47787280661E+02  0.20000043848E+02 0.  0.
        -12    1    1    2    0    0  0.32640101458E+02 -0.27326514745E+02 -0.84562289374E+01  0.43400719339E+02  0.00000000000E+00 0.  1.
         11    1    3    3    0    0 -0.40401433964E+01  0.11735029879E+02  0.15787931200E+01  0.12511046035E+02  0.51100000000E-03 0. -1.
        -11    1    3    3    0    0 -0.56136760548E+01  0.82628658221E+01  0.47356191050E+01  0.11055062144E+02  0.51100000000E-03 0.  1.
        -12    1    3    3    0    0 -0.22986282006E+02  0.73286190439E+01  0.21418167124E+01  0.24221172482E+02  0.00000000000E+00 0.  1.
</event>
<event>
 7    1  0.4236733E-010  0.4778727E+02  0.7816164E-02  0.1312668E+00
        -11   -1    0    0    0    0  0.00000000000E+00  0.00000000000E+00  0.45593999997E+02  0.45594000000E+02  0.51100000000E-03 0. -1.
         11   -1    0    0    0    0 -0.00000000000E+00 -0.00000000000E+00 -0.45593999997E+02  0.45594000000E+02  0.51100000000E-03 0.  1.
    9900012    2    1    2    0    0  0.24282564453E+02 -0.35806159769E+02 -0.34495107589E+01  0.47787272606E+02  0.20000007122E+02 0.  0.
        -12    1    1    2    0    0 -0.24282564453E+02  0.35806159769E+02  0.34495107589E+01  0.43400727394E+02  0.00000000000E+00 0.  1.
         11    1    3    3    0    0  0.61653439149E+01 -0.10992074223E+01  0.20249282827E+01  0.65817974260E+01  0.51100000000E-03 0. -1.
        -11    1    3    3    0    0  0.30704317704E+00 -0.35250989792E+00 -0.23353940153E+01  0.23817229496E+01  0.51100000000E-03 0.  1.
         12    1    3    3    0    0  0.17810177361E+02 -0.34354442449E+02 -0.31390450263E+01  0.38823752231E+02  0.00000000000E+00 0. -1.
</event>
<event>
 7    1  0.4236733E-010  0.4778727E+02  0.7816164E-02  0.1312668E+00
        -11   -1    0    0    0    0  0.00000000000E+00  0.00000000000E+00  0.45593999997E+02  0.45594000000E+02  0.51100000000E-03 0. -1.
         11   -1    0    0    0    0 -0.00000000000E+00 -0.00000000000E+00 -0.45593999997E+02  0.45594000000E+02  0.51100000000E-03 0.  1.
    9900012    2    1    2    0    0  0.16597627162E+02  0.17657901875E+02  0.36004729891E+02  0.47787270737E+02  0.19999998599E+02 0.  0.
        -12    1    1    2    0    0 -0.16597627162E+02 -0.17657901875E+02 -0.36004729891E+02  0.43400729263E+02  0.00000000000E+00 0.  1.
         11    1    3    3    0    0 -0.13619608056E+01 -0.17528468178E+01  0.14321540431E+01  0.26416802734E+01  0.51100000000E-03 0. -1.
        -11    1    3    3    0    0  0.47099548714E+01  0.17791243734E+00  0.21333814396E+01  0.51736490366E+01  0.51100000000E-03 0.  1.
         12    1    3    3    0    0  0.13249633096E+02  0.19232836255E+02  0.32439194409E+02  0.39971941427E+02  0.00000000000E+00 0. -1.
</event>
<event>
 7    1  0.4236733E-010  0.4778727E+02  0.7816164E-02  0.1312668E+00
        -11   -1    0    0    0    0  0.00000000000E+00  0.00000000000E+00  0.45593999997E+02  0.45594000000E+02  0.51100000000E-03 0.  1.
         11   -1    0    0    0    0 -0.00000000000E+00 -0.00000000000E+00 -0.45593999997E+02  0.45594000000E+02  0.51100000000E-03 0. -1.
    9900012    2    1    2    0    0  0.34607056493E+02 -0.26076695898E+02  0.24455813770E+01  0.47787270786E+02  0.19999998822E+02 0.  0.
        -12    1    1    2    0    0 -0.34607056493E+02  0.26076695898E+02 -0.24455813770E+01  0.43400729214E+02  0.00000000000E+00 0.  1.
         11    1    3    3    0    0  0.15499355904E+02 -0.78282101191E+01  0.21233490234E+01  0.17493413573E+02  0.51100000000E-03 0. -1.
        -11    1    3    3    0    0  0.20391119632E+02 -0.14416912980E+02 -0.28795060652E+01  0.25138351083E+02  0.51100000000E-03 0.  1.
        -12    1    3    3    0    0 -0.12834190434E+01 -0.38315727987E+01  0.32017384188E+01  0.51555061298E+01  0.00000000000E+00 0.  1.
</event>
<event>
 7    1  0.4236733E-010  0.4778727E+02  0.7816164E-02  0.1312668E+00
        -11   -1    0    0    0    0  0.00000000000E+00  0.00000000000E+00  0.45593999997E+02  0.45594000000E+02  0.51100000000E-03 0. -1.
         11   -1    0    0    0    0 -0.00000000000E+00 -0.00000000000E+00 -0.45593999997E+02  0.45594000000E+02  0.51100000000E-03 0.  1.
    9900012    2    1    2    0    0 -0.10137903750E+02 -0.20059597470E+02  0.37127597932E+02  0.47787273378E+02  0.20000010641E+02 0.  0.
        -12    1    1    2    0    0  0.10137903750E+02  0.20059597470E+02 -0.37127597932E+02  0.43400726622E+02  0.00000000000E+00 0.  1.
         11    1    3    3    0    0  0.46115735953E+01 -0.37816722809E+01  0.11799774299E+02  0.13221283222E+02  0.51100000000E-03 0. -1.
        -11    1    3    3    0    0 -0.30492622121E+01 -0.14216056503E+01  0.57008538375E+00  0.34123247602E+01  0.51100000000E-03 0.  1.
        -12    1    3    3    0    0 -0.11700215133E+02 -0.14856319539E+02  0.24757738249E+02  0.31153665396E+02  0.00000000000E+00 0.  1.
</event>
<event>
 7    1  0.4236733E-010  0.4778727E+02  0.7816164E-02  0.1312668E+00
        -11   -1    0    0    0    0  0.00000000000E+00  0.00000000000E+00  0.45593999997E+02  0.45594000000E+02  0.51100000000E-03 0.  1.
         11   -1    0    0    0    0 -0.00000000000E+00 -0.00000000000E+00 -0.45593999997E+02  0.45594000000E+02  0.51100000000E-03 0. -1.
    9900012    2    1    2    0    0  0.38035943550E+02 -0.92294190154E+01 -0.18753879795E+02  0.47787272074E+02  0.20000004695E+02 0.  0.
        -12    1    1    2    0    0 -0.38035943550E+02  0.92294190154E+01  0.18753879795E+02  0.43400727926E+02  0.00000000000E+00 0.  1.
         11    1    3    3    0    0  0.21177018570E+02  0.11658569898E+01 -0.42741320628E+01  0.21635469562E+02  0.51100000000E-03 0. -1.
        -11    1    3    3    0    0  0.13802927178E+01 -0.19696001777E+01  0.10856593061E+01  0.26387855610E+01  0.51100000000E-03 0.  1.
        -12    1    3    3    0    0  0.15478632263E+02 -0.84256758275E+01 -0.15565407038E+02  0.23513016951E+02  0.00000000000E+00 0.  1.
</event>
<event>
 7    1  0.4236733E-010  0.4778727E+02  0.7816164E-02  0.1312668E+00
        -11   -1    0    0    0    0  0.00000000000E+00  0.00000000000E+00  0.45593999997E+02  0.45594000000E+02  0.51100000000E-03 0.  1.
         11   -1    0    0    0    0 -0.00000000000E+00 -0.00000000000E+00 -0.45593999997E+02  0.45594000000E+02  0.51100000000E-03 0. -1.
    9900012    2    1    2    0    0  0.13353434070E+02 -0.40945730283E+02  0.53625243243E+01  0.47787266170E+02  0.19999977773E+02 0.  0.
        -12    1    1    2    0    0 -0.13353434070E+02  0.40945730283E+02 -0.53625243243E+01  0.43400733830E+02  0.00000000000E+00 0.  1.
         11    1    3    3    0    0 -0.54643916075E+00 -0.17842974804E+02  0.31447268169E+01  0.18126214515E+02  0.51100000000E-03 0. -1.
        -11    1    3    3    0    0 -0.42998218677E+00  0.68969375470E+00 -0.14331577540E+01  0.16475750560E+01  0.51100000000E-03 0.  1.
        -12    1    3    3    0    0  0.14329855417E+02 -0.23792449234E+02  0.36509552615E+01  0.28013476599E+02  0.00000000000E+00 0.  1.
</event>
<event>
 7    1  0.4236733E-010  0.4778727E+02  0.7816164E-02  0.1312668E+00
        -11   -1    0    0    0    0  0.00000000000E+00  0.00000000000E+00  0.45593999997E+02  0.45594000000E+02  0.51100000000E-03 0.  1.
         11   -1    0    0    0    0 -0.00000000000E+00 -0.00000000000E+00 -0.45593999997E+02  0.45594000000E+02  0.51100000000E-03 0. -1.
    9900012    2    1    2    0    0 -0.70576010108E+01 -0.38773666675E+01 -0.42647152777E+02  0.47787270233E+02  0.19999996302E+02 0.  0.
        -12    1    1    2    0    0  0.70576010108E+01  0.38773666675E+01  0.42647152777E+02  0.43400729767E+02  0.00000000000E+00 0.  1.
         11    1    3    3    0    0 -0.37630485591E+01  0.35508172852E+01 -0.25064807010E+02  0.25593229350E+02  0.51100000000E-03 0. -1.
        -11    1    3    3    0    0 -0.59320931595E+01 -0.41609059960E+01 -0.16244156221E+02  0.17786946887E+02  0.51100000000E-03 0.  1.
        -12    1    3    3    0    0  0.26375407078E+01 -0.32672779567E+01 -0.13381895457E+01  0.44070939963E+01  0.00000000000E+00 0.  1.
</event>
<event>
 7    1  0.4236733E-010  0.4778727E+02  0.7816164E-02  0.1312668E+00
        -11   -1    0    0    0    0  0.00000000000E+00  0.00000000000E+00  0.45593999997E+02  0.45594000000E+02  0.51100000000E-03 0.  1.
         11   -1    0    0    0    0 -0.00000000000E+00 -0.00000000000E+00 -0.45593999997E+02  0.45594000000E+02  0.51100000000E-03 0. -1.
    9900012    2    1    2    0    0  0.28900330047E+01 -0.25009099597E+02 -0.35352735855E+02  0.47787270906E+02  0.19999999369E+02 0.  0.
        -12    1    1    2    0    0 -0.28900330047E+01  0.25009099597E+02  0.35352735855E+02  0.43400729094E+02  0.00000000000E+00 0.  1.
         11    1    3    3    0    0 -0.31789099402E+00 -0.24253391158E+00 -0.28457236196E+01  0.28736771848E+01  0.51100000000E-03 0. -1.
        -11    1    3    3    0    0  0.36803645483E+00 -0.65629894338E+01 -0.23507606333E+02  0.24409339133E+02  0.51100000000E-03 0.  1.
         12    1    3    3    0    0  0.28398875439E+01 -0.18203576252E+02 -0.89994059024E+01  0.20504254588E+02  0.00000000000E+00 0. -1.
</event>
<event>
 7    1  0.4236733E-010  0.4778724E+02  0.7816164E-02  0.1312668E+00
        -11   -1    0    0    0    0  0.00000000000E+00  0.00000000000E+00  0.45593999997E+02  0.45594000000E+02  0.51100000000E-03 0.  1.
         11   -1    0    0    0    0 -0.00000000000E+00 -0.00000000000E+00 -0.45593999997E+02  0.45594000000E+02  0.51100000000E-03 0. -1.
    9900012    2    1    2    0    0  0.21636353131E+02 -0.25750443805E+02 -0.27430077881E+02  0.47787236118E+02  0.19999840756E+02 0.  0.
        -12    1    1    2    0    0 -0.21636353131E+02  0.25750443805E+02  0.27430077881E+02  0.43400763882E+02  0.00000000000E+00 0.  1.
         11    1    3    3    0    0  0.19140770682E+02 -0.10732623842E+02 -0.17622278468E+02  0.28144324748E+02  0.51100000000E-03 0. -1.
        -11    1    3    3    0    0  0.29675040522E+01 -0.25741131936E+01 -0.23390524237E+00  0.39353336525E+01  0.51100000000E-03 0.  1.
         12    1    3    3    0    0 -0.47192160364E+00 -0.12443706769E+02 -0.95738941709E+01  0.15707577718E+02  0.00000000000E+00 0. -1.
</event>
<event>
 7    1  0.4236733E-010  0.4778727E+02  0.7816164E-02  0.1312668E+00
        -11   -1    0    0    0    0  0.00000000000E+00  0.00000000000E+00  0.45593999997E+02  0.45594000000E+02  0.51100000000E-03 0.  1.
         11   -1    0    0    0    0 -0.00000000000E+00 -0.00000000000E+00 -0.45593999997E+02  0.45594000000E+02  0.51100000000E-03 0. -1.
    9900012    2    1    2    0    0  0.42777632304E+01 -0.32123428099E+02 -0.28868835546E+02  0.47787267784E+02  0.19999985135E+02 0.  0.
        -12    1    1    2    0    0 -0.42777632304E+01  0.32123428099E+02  0.28868835546E+02  0.43400732216E+02  0.00000000000E+00 0.  1.
         11    1    3    3    0    0  0.70013093625E+01 -0.55141708809E+01 -0.72173104327E+01  0.11467954632E+02  0.51100000000E-03 0. -1.
        -11    1    3    3    0    0  0.22224546550E+01 -0.77449810144E+01 -0.13526778441E+01  0.81702982331E+01  0.51100000000E-03 0.  1.
        -12    1    3    3    0    0 -0.49460007871E+01 -0.18864276204E+02 -0.20298847269E+02  0.28149014919E+02  0.00000000000E+00 0.  1.
</event>
<event>
 7    1  0.4236733E-010  0.4778727E+02  0.7816164E-02  0.1312668E+00
        -11   -1    0    0    0    0  0.00000000000E+00  0.00000000000E+00  0.45593999997E+02  0.45594000000E+02  0.51100000000E-03 0.  1.
         11   -1    0    0    0    0 -0.00000000000E+00 -0.00000000000E+00 -0.45593999997E+02  0.45594000000E+02  0.51100000000E-03 0. -1.
    9900012    2    1    2    0    0  0.21530613698E+02 -0.22854021540E+02 -0.29962473926E+02  0.47787268779E+02  0.19999989671E+02 0.  0.
        -12    1    1    2    0    0 -0.21530613698E+02  0.22854021540E+02  0.29962473926E+02  0.43400731221E+02  0.00000000000E+00 0.  1.
         11    1    3    3    0    0 -0.94115459901E+00  0.17934946077E+00  0.51805129822E+00  0.10891811681E+01  0.51100000000E-03 0. -1.
        -11    1    3    3    0    0  0.53232043778E+01 -0.15489741007E+02 -0.17080883863E+02  0.23664851048E+02  0.51100000000E-03 0.  1.
        -12    1    3    3    0    0  0.17148563919E+02 -0.75436299936E+01 -0.13399641361E+02  0.23033236563E+02  0.00000000000E+00 0.  1.
</event>
<event>
 7    1  0.4236733E-010  0.4778727E+02  0.7816164E-02  0.1312668E+00
        -11   -1    0    0    0    0  0.00000000000E+00  0.00000000000E+00  0.45593999997E+02  0.45594000000E+02  0.51100000000E-03 0.  1.
         11   -1    0    0    0    0 -0.00000000000E+00 -0.00000000000E+00 -0.45593999997E+02  0.45594000000E+02  0.51100000000E-03 0. -1.
    9900012    2    1    2    0    0 -0.27294268826E+01 -0.26141145511E+02 -0.34537144630E+02  0.47787267069E+02  0.19999981875E+02 0.  0.
        -12    1    1    2    0    0  0.27294268826E+01  0.26141145511E+02  0.34537144630E+02  0.43400732931E+02  0.00000000000E+00 0.  1.
         11    1    3    3    0    0 -0.31630738522E+01 -0.22203913834E+02 -0.18811783122E+02  0.29272888655E+02  0.51100000000E-03 0. -1.
        -11    1    3    3    0    0  0.13294550700E+01 -0.13958108734E+01  0.56020681539E+00  0.20073790660E+01  0.51100000000E-03 0.  1.
        -12    1    3    3    0    0 -0.89580810038E+00 -0.25414208040E+01 -0.16285568323E+02  0.16506999348E+02  0.00000000000E+00 0.  1.
</event>
<event>
 7    1  0.4236733E-010  0.4778728E+02  0.7816164E-02  0.1312668E+00
        -11   -1    0    0    0    0  0.00000000000E+00  0.00000000000E+00  0.45593999997E+02  0.45594000000E+02  0.51100000000E-03 0. -1.
         11   -1    0    0    0    0 -0.00000000000E+00 -0.00000000000E+00 -0.45593999997E+02  0.45594000000E+02  0.51100000000E-03 0.  1.
    9900012    2    1    2    0    0  0.26581523432E+02  0.33625498805E+02  0.68096118726E+01  0.47787281438E+02  0.20000047390E+02 0.  0.
        -12    1    1    2    0    0 -0.26581523432E+02 -0.33625498805E+02 -0.68096118726E+01  0.43400718562E+02  0.00000000000E+00 0.  1.
         11    1    3    3    0    0  0.62258556590E+01  0.11451745116E+02 -0.34075741862E+01  0.13472761669E+02  0.51100000000E-03 0. -1.
        -11    1    3    3    0    0  0.11096012274E+01  0.42804207123E+00 -0.23799264255E+01  0.26605422286E+01  0.51100000000E-03 0.  1.
        -12    1    3    3    0    0  0.19246066546E+02  0.21745711617E+02  0.12597112484E+02  0.31653977541E+02  0.00000000000E+00 0.  1.
</event>
<event>
 7    1  0.4236733E-010  0.4778726E+02  0.7816164E-02  0.1312668E+00
        -11   -1    0    0    0    0  0.00000000000E+00  0.00000000000E+00  0.45593999997E+02  0.45594000000E+02  0.51100000000E-03 0.  1.
         11   -1    0    0    0    0 -0.00000000000E+00 -0.00000000000E+00 -0.45593999997E+02  0.45594000000E+02  0.51100000000E-03 0. -1.
    9900012    2    1    2    0    0 -0.25299934028E+02 -0.22695222526E+02 -0.26990082838E+02  0.47787258545E+02  0.19999943008E+02 0.  0.
        -12    1    1    2    0    0  0.25299934028E+02  0.22695222526E+02  0.26990082838E+02  0.43400741455E+02  0.00000000000E+00 0.  1.
         11    1    3    3    0    0 -0.10727943723E+02 -0.50223628240E+01 -0.95311448211E+01  0.15203803035E+02  0.51100000000E-03 0.  1.
        -11    1    3    3    0    0 -0.14160940531E+02 -0.15021703470E+02 -0.20104068439E+02  0.28815922333E+02  0.51100000000E-03 0. -1.
        -12    1    3    3    0    0 -0.41104977398E+00 -0.26511562317E+01  0.26451304226E+01  0.37675331762E+01  0.00000000000E+00 0.  1.
</event>
<event>
 7    1  0.4236733E-010  0.4778726E+02  0.7816164E-02  0.1312668E+00
        -11   -1    0    0    0    0  0.00000000000E+00  0.00000000000E+00  0.45593999997E+02  0.45594000000E+02  0.51100000000E-03 0. -1.
         11   -1    0    0    0    0 -0.00000000000E+00 -0.00000000000E+00 -0.45593999997E+02  0.45594000000E+02  0.51100000000E-03 0.  1.
    9900012    2    1    2    0    0 -0.42144493140E+02  0.24812279515E+01  0.10065249881E+02  0.47787262111E+02  0.19999959269E+02 0.  0.
        -12    1    1    2    0    0  0.42144493140E+02 -0.24812279515E+01 -0.10065249881E+02  0.43400737889E+02  0.00000000000E+00 0.  1.
         11    1    3    3    0    0 -0.26615027931E+02 -0.12152841733E+01  0.13972775319E+01  0.26679374284E+02  0.51100000000E-03 0. -1.
        -11    1    3    3    0    0 -0.11627307082E+02 -0.41795291972E+00  0.11505641413E+01  0.11691567590E+02  0.51100000000E-03 0.  1.
        -12    1    3    3    0    0 -0.39021581269E+01  0.41144650446E+01  0.75174082075E+01  0.94163202371E+01  0.00000000000E+00 0.  1.
</event>
<event>
 7    1  0.4236733E-010  0.4778727E+02  0.7816164E-02  0.1312668E+00
        -11   -1    0    0    0    0  0.00000000000E+00  0.00000000000E+00  0.45593999997E+02  0.45594000000E+02  0.51100000000E-03 0. -1.
         11   -1    0    0    0    0 -0.00000000000E+00 -0.00000000000E+00 -0.45593999997E+02  0.45594000000E+02  0.51100000000E-03 0.  1.
    9900012    2    1    2    0    0 -0.32218196558E+02  0.27320076779E+02  0.99611396684E+01  0.47787273184E+02  0.20000009756E+02 0.  0.
        -12    1    1    2    0    0  0.32218196558E+02 -0.27320076779E+02 -0.99611396684E+01  0.43400726816E+02  0.00000000000E+00 0.  1.
         11    1    3    3    0    0 -0.15064297241E+02  0.80803900409E+01  0.80771670941E+01  0.18906781406E+02  0.51100000000E-03 0. -1.
        -11    1    3    3    0    0 -0.92199803393E+01  0.14439184821E+01  0.43736928644E+00  0.93426029667E+01  0.51100000000E-03 0.  1.
         12    1    3    3    0    0 -0.79339189771E+01  0.17795768256E+02  0.14466032878E+01  0.19537888812E+02  0.00000000000E+00 0. -1.
</event>
<event>
 7    1  0.4236733E-010  0.4778727E+02  0.7816164E-02  0.1312668E+00
        -11   -1    0    0    0    0  0.00000000000E+00  0.00000000000E+00  0.45593999997E+02  0.45594000000E+02  0.51100000000E-03 0.  1.
         11   -1    0    0    0    0 -0.00000000000E+00 -0.00000000000E+00 -0.45593999997E+02  0.45594000000E+02  0.51100000000E-03 0. -1.
    9900012    2    1    2    0    0  0.16960257419E+02  0.31798534488E+02 -0.24183177501E+02  0.47787271880E+02  0.20000003810E+02 0.  0.
        -12    1    1    2    0    0 -0.16960257419E+02 -0.31798534488E+02  0.24183177501E+02  0.43400728120E+02  0.00000000000E+00 0.  1.
         11    1    3    3    0    0  0.10855452131E+02  0.27850105776E+02 -0.24319941029E+02  0.38534773447E+02  0.51100000000E-03 0. -1.
        -11    1    3    3    0    0  0.11439526393E+01  0.41316820619E+01  0.87678089076E-01  0.42880195907E+01  0.51100000000E-03 0.  1.
        -12    1    3    3    0    0  0.49608526491E+01 -0.18325334977E+00  0.49085439343E-01  0.49644788424E+01  0.00000000000E+00 0.  1.
</event>
<event>
 7    1  0.4236733E-010  0.4778727E+02  0.7816164E-02  0.1312668E+00
        -11   -1    0    0    0    0  0.00000000000E+00  0.00000000000E+00  0.45593999997E+02  0.45594000000E+02  0.51100000000E-03 0. -1.
         11   -1    0    0    0    0 -0.00000000000E+00 -0.00000000000E+00 -0.45593999997E+02  0.45594000000E+02  0.51100000000E-03 0.  1.
    9900012    2    1    2    0    0  0.43972868196E+01 -0.13956619223E+01  0.43154832820E+02  0.47787267295E+02  0.19999982905E+02 0.  0.
        -12    1    1    2    0    0 -0.43972868196E+01  0.13956619223E+01 -0.43154832820E+02  0.43400732705E+02  0.00000000000E+00 0.  1.
         11    1    3    3    0    0  0.84245113204E+00  0.51432899415E+01  0.11350155607E+02  0.12489563159E+02  0.51100000000E-03 0. -1.
        -11    1    3    3    0    0  0.12924568089E+01 -0.10918897427E+01  0.28473676622E+02  0.28523901004E+02  0.51100000000E-03 0.  1.
        -12    1    3    3    0    0  0.22623788786E+01 -0.54470621211E+01  0.33310005909E+01  0.67738031325E+01  0.00000000000E+00 0.  1.
</event>
<event>
 7    1  0.4236733E-010  0.4778727E+02  0.7816164E-02  0.1312668E+00
        -11   -1    0    0    0    0  0.00000000000E+00  0.00000000000E+00  0.45593999997E+02  0.45594000000E+02  0.51100000000E-03 0.  1.
         11   -1    0    0    0    0 -0.00000000000E+00 -0.00000000000E+00 -0.45593999997E+02  0.45594000000E+02  0.51100000000E-03 0. -1.
    9900012    2    1    2    0    0 -0.24056985223E+02 -0.32499604386E+02 -0.15768966864E+02  0.47787272596E+02  0.20000007073E+02 0.  0.
        -12    1    1    2    0    0  0.24056985223E+02  0.32499604386E+02  0.15768966864E+02  0.43400727404E+02  0.00000000000E+00 0.  1.
         11    1    3    3    0    0  0.16221691990E+01  0.91979902805E+00 -0.24875439745E+01  0.31089127438E+01  0.51100000000E-03 0. -1.
        -11    1    3    3    0    0 -0.57699214080E+01 -0.10187015071E+02 -0.11462096905E+01  0.11763548190E+02  0.51100000000E-03 0.  1.
         12    1    3    3    0    0 -0.19909233014E+02 -0.23232388343E+02 -0.12135213199E+02  0.32914811662E+02  0.00000000000E+00 0. -1.
</event>
<event>
 7    1  0.4236733E-010  0.4778727E+02  0.7816164E-02  0.1312668E+00
        -11   -1    0    0    0    0  0.00000000000E+00  0.00000000000E+00  0.45593999997E+02  0.45594000000E+02  0.51100000000E-03 0.  1.
         11   -1    0    0    0    0 -0.00000000000E+00 -0.00000000000E+00 -0.45593999997E+02  0.45594000000E+02  0.51100000000E-03 0. -1.
    9900012    2    1    2    0    0  0.22686639027E+02  0.27946232915E+02 -0.24247629920E+02  0.47787273264E+02  0.20000010120E+02 0.  0.
        -12    1    1    2    0    0 -0.22686639027E+02 -0.27946232915E+02  0.24247629920E+02  0.43400726736E+02  0.00000000000E+00 0.  1.
         11    1    3    3    0    0  0.76256010706E+01  0.19884324453E+01 -0.86989986914E+01  0.11737812137E+02  0.51100000000E-03 0. -1.
        -11    1    3    3    0    0  0.11586020971E+02  0.98654917838E+01 -0.34089330965E+01  0.15594378320E+02  0.51100000000E-03 0.  1.
        -12    1    3    3    0    0  0.34750169857E+01  0.16092308686E+02 -0.12139698132E+02  0.20455082807E+02  0.00000000000E+00 0.  1.
</event>
<event>
 7    1  0.4236733E-010  0.4778728E+02  0.7816164E-02  0.1312668E+00
        -11   -1    0    0    0    0  0.00000000000E+00  0.00000000000E+00  0.45593999997E+02  0.45594000000E+02  0.51100000000E-03 0.  1.
         11   -1    0    0    0    0 -0.00000000000E+00 -0.00000000000E+00 -0.45593999997E+02  0.45594000000E+02  0.51100000000E-03 0. -1.
    9900012    2    1    2    0    0 -0.18301045515E+02 -0.11762487537E+02 -0.37554473724E+02  0.47787275620E+02  0.20000020863E+02 0.  0.
        -12    1    1    2    0    0  0.18301045515E+02  0.11762487537E+02  0.37554473724E+02  0.43400724380E+02  0.00000000000E+00 0.  1.
         11    1    3    3    0    0 -0.10597622818E+02 -0.34615648159E+00 -0.15799574538E+02  0.19027768906E+02  0.51100000000E-03 0. -1.
        -11    1    3    3    0    0 -0.23692766501E+01  0.89632005933E+00  0.67565643329E+00  0.26217119160E+01  0.51100000000E-03 0.  1.
         12    1    3    3    0    0 -0.53341460477E+01 -0.12312651115E+02 -0.22430555619E+02  0.26137794798E+02  0.00000000000E+00 0. -1.
</event>
<event>
 7    1  0.4236733E-010  0.4778727E+02  0.7816164E-02  0.1312668E+00
        -11   -1    0    0    0    0  0.00000000000E+00  0.00000000000E+00  0.45593999997E+02  0.45594000000E+02  0.51100000000E-03 0.  1.
         11   -1    0    0    0    0 -0.00000000000E+00 -0.00000000000E+00 -0.45593999997E+02  0.45594000000E+02  0.51100000000E-03 0. -1.
    9900012    2    1    2    0    0  0.95661830873E+00  0.58551165434E+01 -0.42993326475E+02  0.47787266945E+02  0.19999981308E+02 0.  0.
        -12    1    1    2    0    0 -0.95661830873E+00 -0.58551165434E+01  0.42993326475E+02  0.43400733055E+02  0.00000000000E+00 0.  1.
         11    1    3    3    0    0  0.88515106336E+00  0.57751677923E+01 -0.19203214462E+02  0.20072356647E+02  0.51100000000E-03 0. -1.
        -11    1    3    3    0    0  0.26887095728E+01  0.66049928054E+01 -0.13209841376E+02  0.15011828622E+02  0.51100000000E-03 0.  1.
        -12    1    3    3    0    0 -0.26172423275E+01 -0.65250440544E+01 -0.10580270637E+02  0.12703081676E+02  0.00000000000E+00 0.  1.
</event>
<event>
 7    1  0.4236733E-010  0.4778727E+02  0.7816164E-02  0.1312668E+00
        -11   -1    0    0    0    0  0.00000000000E+00  0.00000000000E+00  0.45593999997E+02  0.45594000000E+02  0.51100000000E-03 0. -1.
         11   -1    0    0    0    0 -0.00000000000E+00 -0.00000000000E+00 -0.45593999997E+02  0.45594000000E+02  0.51100000000E-03 0.  1.
    9900012    2    1    2    0    0  0.40098575898E+02  0.11185219072E+02 -0.12272676694E+02  0.47787268347E+02  0.19999987703E+02 0.  0.
        -12    1    1    2    0    0 -0.40098575898E+02 -0.11185219072E+02  0.12272676694E+02  0.43400731653E+02  0.00000000000E+00 0.  1.
         11    1    3    3    0    0  0.74152393723E+01  0.72226568292E+01  0.10665638291E+01  0.10406253182E+02  0.51100000000E-03 0. -1.
        -11    1    3    3    0    0  0.19640580821E+02  0.36884603440E+01 -0.19777800163E+01  0.20081552946E+02  0.51100000000E-03 0.  1.
        -12    1    3    3    0    0  0.13042755705E+02  0.27410189916E+00 -0.11361460507E+02  0.17299462219E+02  0.00000000000E+00 0.  1.
</event>
<event>
 7    1  0.4236733E-010  0.4778723E+02  0.7816164E-02  0.1312668E+00
        -11   -1    0    0    0    0  0.00000000000E+00  0.00000000000E+00  0.45593999997E+02  0.45594000000E+02  0.51100000000E-03 0. -1.
         11   -1    0    0    0    0 -0.00000000000E+00 -0.00000000000E+00 -0.45593999997E+02  0.45594000000E+02  0.51100000000E-03 0.  1.
    9900012    2    1    2    0    0  0.26320340797E+02 -0.92225201174E+01  0.33253751135E+02  0.47787226026E+02  0.19999794743E+02 0.  0.
        -12    1    1    2    0    0 -0.26320340797E+02  0.92225201174E+01 -0.33253751135E+02  0.43400773974E+02  0.00000000000E+00 0.  1.
         11    1    3    3    0    0  0.87297276280E+01  0.10411245090E+01  0.48289148867E+01  0.10030478750E+02  0.51100000000E-03 0. -1.
        -11    1    3    3    0    0  0.46116818557E+01 -0.83843898348E+01  0.47285057091E+01  0.10673535916E+02  0.51100000000E-03 0.  1.
         12    1    3    3    0    0  0.12978931313E+02 -0.18792547915E+01  0.23696330539E+02  0.27083211361E+02  0.00000000000E+00 0. -1.
</event>
<event>
 7    1  0.4236733E-010  0.4778727E+02  0.7816164E-02  0.1312668E+00
        -11   -1    0    0    0    0  0.00000000000E+00  0.00000000000E+00  0.45593999997E+02  0.45594000000E+02  0.51100000000E-03 0. -1.
         11   -1    0    0    0    0 -0.00000000000E+00 -0.00000000000E+00 -0.45593999997E+02  0.45594000000E+02  0.51100000000E-03 0.  1.
    9900012    2    1    2    0    0  0.35682921417E+02  0.65689475896E+01  0.23815990277E+02  0.47787270212E+02  0.19999996204E+02 0.  0.
        -12    1    1    2    0    0 -0.35682921417E+02 -0.65689475896E+01 -0.23815990277E+02  0.43400729788E+02  0.00000000000E+00 0.  1.
         11    1    3    3    0    0  0.81803121632E+01 -0.32821083600E+01  0.19616912792E+01  0.90298380556E+01  0.51100000000E-03 0. -1.
        -11    1    3    3    0    0  0.12670966839E+02  0.73375055914E+01  0.35529688868E+01  0.15067049383E+02  0.51100000000E-03 0.  1.
         12    1    3    3    0    0  0.14831642414E+02  0.25135503582E+01  0.18301330111E+02  0.23690382773E+02  0.00000000000E+00 0. -1.
</event>
<event>
 7    1  0.4236733E-010  0.4778727E+02  0.7816164E-02  0.1312668E+00
        -11   -1    0    0    0    0  0.00000000000E+00  0.00000000000E+00  0.45593999997E+02  0.45594000000E+02  0.51100000000E-03 0.  1.
         11   -1    0    0    0    0 -0.00000000000E+00 -0.00000000000E+00 -0.45593999997E+02  0.45594000000E+02  0.51100000000E-03 0. -1.
    9900012    2    1    2    0    0 -0.28542821842E+02  0.32675365119E+02 -0.11185253322E+01  0.47787271167E+02  0.20000000558E+02 0.  0.
        -12    1    1    2    0    0  0.28542821842E+02 -0.32675365119E+02  0.11185253322E+01  0.43400728833E+02  0.00000000000E+00 0.  1.
         11    1    3    3    0    0 -0.59944252984E+01  0.10823960961E+01 -0.25828180041E+01  0.66163180902E+01  0.51100000000E-03 0. -1.
        -11    1    3    3    0    0 -0.19138107903E+02  0.15322441688E+02  0.56995594585E+00  0.24522831065E+02  0.51100000000E-03 0.  1.
        -12    1    3    3    0    0 -0.34102886408E+01  0.16270527334E+02  0.89433672603E+00  0.16648122012E+02  0.00000000000E+00 0.  1.
</event>
<event>
 7    1  0.4236733E-010  0.4778727E+02  0.7816164E-02  0.1312668E+00
        -11   -1    0    0    0    0  0.00000000000E+00  0.00000000000E+00  0.45593999997E+02  0.45594000000E+02  0.51100000000E-03 0.  1.
         11   -1    0    0    0    0 -0.00000000000E+00 -0.00000000000E+00 -0.45593999997E+02  0.45594000000E+02  0.51100000000E-03 0. -1.
    9900012    2    1    2    0    0  0.91293995372E+01  0.19134937174E+01 -0.42386503686E+02  0.47787273176E+02  0.20000009718E+02 0.  0.
        -12    1    1    2    0    0 -0.91293995372E+01 -0.19134937174E+01  0.42386503686E+02  0.43400726824E+02  0.00000000000E+00 0.  1.
         11    1    3    3    0    0 -0.90106072017E+00 -0.25501209573E+01 -0.42160841718E+01  0.50090311761E+01  0.51100000000E-03 0.  1.
        -11    1    3    3    0    0  0.11730257712E+02  0.96459708941E+00 -0.13970105853E+02  0.18267272685E+02  0.51100000000E-03 0. -1.
         12    1    3    3    0    0 -0.16997974546E+01  0.34990175853E+01 -0.24200313661E+02  0.24510969315E+02  0.00000000000E+00 0. -1.
</event>
<event>
 7    1  0.4236733E-010  0.4778723E+02  0.7816164E-02  0.1312668E+00
        -11   -1    0    0    0    0  0.00000000000E+00  0.00000000000E+00  0.45593999997E+02  0.45594000000E+02  0.51100000000E-03 0. -1.
         11   -1    0    0    0    0 -0.00000000000E+00 -0.00000000000E+00 -0.45593999997E+02  0.45594000000E+02  0.51100000000E-03 0.  1.
    9900012    2    1    2    0    0  0.38534291011E+02 -0.38706493888E+01  0.19589626591E+02  0.47787228344E+02  0.19999805310E+02 0.  0.
        -12    1    1    2    0    0 -0.38534291011E+02  0.38706493888E+01 -0.19589626591E+02  0.43400771656E+02  0.00000000000E+00 0.  1.
         11    1    3    3    0    0 -0.39906107534E+00 -0.14070165174E+01 -0.14452401618E+00  0.14696369192E+01  0.51100000000E-03 0. -1.
        -11    1    3    3    0    0  0.20920907943E+02  0.18853741007E+01  0.27563078214E+01  0.21185756010E+02  0.51100000000E-03 0.  1.
         12    1    3    3    0    0  0.18012444143E+02 -0.43490069721E+01  0.16977842785E+02  0.25131835414E+02  0.00000000000E+00 0. -1.
</event>
<event>
 7    1  0.4236733E-010  0.4778727E+02  0.7816164E-02  0.1312668E+00
        -11   -1    0    0    0    0  0.00000000000E+00  0.00000000000E+00  0.45593999997E+02  0.45594000000E+02  0.51100000000E-03 0.  1.
         11   -1    0    0    0    0 -0.00000000000E+00 -0.00000000000E+00 -0.45593999997E+02  0.45594000000E+02  0.51100000000E-03 0. -1.
    9900012    2    1    2    0    0 -0.13220827003E+02 -0.41296940305E+02  0.18427689383E+01  0.47787270254E+02  0.19999996394E+02 0.  0.
        -12    1    1    2    0    0  0.13220827003E+02  0.41296940305E+02 -0.18427689383E+01  0.43400729746E+02  0.00000000000E+00 0.  1.
         11    1    3    3    0    0 -0.39252912170E+01 -0.52215056724E+01  0.14444678527E+01  0.66901808842E+01  0.51100000000E-03 0. -1.
        -11    1    3    3    0    0  0.40782964325E+01 -0.75534420148E+01 -0.36660508760E+01  0.93341800577E+01  0.51100000000E-03 0.  1.
        -12    1    3    3    0    0 -0.13373832218E+02 -0.28521992617E+02  0.40643519617E+01  0.31762909312E+02  0.00000000000E+00 0.  1.
</event>
<event>
 7    1  0.4236733E-010  0.4778726E+02  0.7816164E-02  0.1312668E+00
        -11   -1    0    0    0    0  0.00000000000E+00  0.00000000000E+00  0.45593999997E+02  0.45594000000E+02  0.51100000000E-03 0. -1.
         11   -1    0    0    0    0 -0.00000000000E+00 -0.00000000000E+00 -0.45593999997E+02  0.45594000000E+02  0.51100000000E-03 0.  1.
    9900012    2    1    2    0    0  0.22188309736E+02  0.34432108613E+02  0.14343411203E+02  0.47787255336E+02  0.19999928379E+02 0.  0.
        -12    1    1    2    0    0 -0.22188309736E+02 -0.34432108613E+02 -0.14343411203E+02  0.43400744664E+02  0.00000000000E+00 0.  1.
         11    1    3    3    0    0 -0.69248774013E+00  0.40791464574E+00 -0.28297743628E+00  0.85206227414E+00  0.51100000000E-03 0. -1.
        -11    1    3    3    0    0  0.12336543299E+02  0.55643698001E+01  0.72527691457E+00  0.13552805566E+02  0.51100000000E-03 0.  1.
         12    1    3    3    0    0  0.10544254177E+02  0.28459824167E+02  0.13901111725E+02  0.33382387496E+02  0.00000000000E+00 0. -1.
</event>
<event>
 7    1  0.4236733E-010  0.4778727E+02  0.7816164E-02  0.1312668E+00
        -11   -1    0    0    0    0  0.00000000000E+00  0.00000000000E+00  0.45593999997E+02  0.45594000000E+02  0.51100000000E-03 0. -1.
         11   -1    0    0    0    0 -0.00000000000E+00 -0.00000000000E+00 -0.45593999997E+02  0.45594000000E+02  0.51100000000E-03 0.  1.
    9900012    2    1    2    0    0  0.30341776490E+02 -0.23618684965E+02  0.20128527425E+02  0.47787270786E+02  0.19999998822E+02 0.  0.
        -12    1    1    2    0    0 -0.30341776490E+02  0.23618684965E+02 -0.20128527425E+02  0.43400729214E+02  0.00000000000E+00 0.  1.
         11    1    3    3    0    0  0.16570239683E+02 -0.16300594258E+02  0.11494355106E+02  0.25930723396E+02  0.51100000000E-03 0. -1.
        -11    1    3    3    0    0 -0.26964693652E+00 -0.42325426960E+01  0.58299402895E+01  0.72093918734E+01  0.51100000000E-03 0.  1.
         12    1    3    3    0    0  0.14041183743E+02 -0.30855480111E+01  0.28042320298E+01  0.14647155516E+02  0.00000000000E+00 0. -1.
</event>
<event>
 7    1  0.4236733E-010  0.4778728E+02  0.7816164E-02  0.1312668E+00
        -11   -1    0    0    0    0  0.00000000000E+00  0.00000000000E+00  0.45593999997E+02  0.45594000000E+02  0.51100000000E-03 0.  1.
         11   -1    0    0    0    0 -0.00000000000E+00 -0.00000000000E+00 -0.45593999997E+02  0.45594000000E+02  0.51100000000E-03 0. -1.
    9900012    2    1    2    0    0  0.16109417567E+02  0.44458823914E+01 -0.40054256905E+02  0.47787277647E+02  0.20000030103E+02 0.  0.
        -12    1    1    2    0    0 -0.16109417567E+02 -0.44458823914E+01  0.40054256905E+02  0.43400722353E+02  0.00000000000E+00 0.  1.
         11    1    3    3    0    0 -0.27393703384E+01  0.19707485005E+01 -0.15856120815E+02  0.16211248165E+02  0.51100000000E-03 0. -1.
        -11    1    3    3    0    0  0.25691771044E+01  0.69321202175E+00 -0.84376612179E+01  0.88473352480E+01  0.51100000000E-03 0.  1.
        -12    1    3    3    0    0  0.16279610801E+02  0.17819218691E+01 -0.15760474872E+02  0.22728694234E+02  0.00000000000E+00 0.  1.
</event>
<event>
 7    1  0.4236733E-010  0.4778727E+02  0.7816164E-02  0.1312668E+00
        -11   -1    0    0    0    0  0.00000000000E+00  0.00000000000E+00  0.45593999997E+02  0.45594000000E+02  0.51100000000E-03 0.  1.
         11   -1    0    0    0    0 -0.00000000000E+00 -0.00000000000E+00 -0.45593999997E+02  0.45594000000E+02  0.51100000000E-03 0. -1.
    9900012    2    1    2    0    0  0.58944996767E+01 -0.78181436859E+01 -0.42281850139E+02  0.47787270187E+02  0.19999996090E+02 0.  0.
        -12    1    1    2    0    0 -0.58944996767E+01  0.78181436859E+01  0.42281850139E+02  0.43400729813E+02  0.00000000000E+00 0.  1.
         11    1    3    3    0    0 -0.30058668747E+01 -0.99127762370E+00 -0.10128198648E+02  0.10611233440E+02  0.51100000000E-03 0. -1.
        -11    1    3    3    0    0  0.67131564843E+01 -0.11330867360E+01 -0.29913161669E+02  0.30678128966E+02  0.51100000000E-03 0.  1.
        -12    1    3    3    0    0  0.21872100671E+01 -0.56937793262E+01 -0.22404898215E+01  0.64979077812E+01  0.00000000000E+00 0.  1.
</event>
<event>
 7    1  0.4236733E-010  0.4778728E+02  0.7816164E-02  0.1312668E+00
        -11   -1    0    0    0    0  0.00000000000E+00  0.00000000000E+00  0.45593999997E+02  0.45594000000E+02  0.51100000000E-03 0. -1.
         11   -1    0    0    0    0 -0.00000000000E+00 -0.00000000000E+00 -0.45593999997E+02  0.45594000000E+02  0.51100000000E-03 0.  1.
    9900012    2    1    2    0    0  0.36393201358E+00  0.41753316916E+02 -0.11838524665E+02  0.47787278966E+02  0.20000036120E+02 0.  0.
        -12    1    1    2    0    0 -0.36393201358E+00 -0.41753316916E+02  0.11838524665E+02  0.43400721034E+02  0.00000000000E+00 0.  1.
         11    1    3    3    0    0  0.33539958152E-01  0.19712847875E+02 -0.16293488517E+00  0.19713549765E+02  0.51100000000E-03 0. -1.
        -11    1    3    3    0    0  0.60322789859E+01  0.14037573150E+02 -0.45706701368E+01  0.15947817263E+02  0.51100000000E-03 0.  1.
        -12    1    3    3    0    0 -0.57018869305E+01  0.80028958905E+01 -0.71049196432E+01  0.12125911938E+02  0.00000000000E+00 0.  1.
</event>
<event>
 7    1  0.4236733E-010  0.4778727E+02  0.7816164E-02  0.1312668E+00
        -11   -1    0    0    0    0  0.00000000000E+00  0.00000000000E+00  0.45593999997E+02  0.45594000000E+02  0.51100000000E-03 0.  1.
         11   -1    0    0    0    0 -0.00000000000E+00 -0.00000000000E+00 -0.45593999997E+02  0.45594000000E+02  0.51100000000E-03 0. -1.
    9900012    2    1    2    0    0 -0.24501079796E+01 -0.25597475128E+02 -0.34962683211E+02  0.47787274437E+02  0.20000015469E+02 0.  0.
        -12    1    1    2    0    0  0.24501079796E+01  0.25597475128E+02  0.34962683211E+02  0.43400725563E+02  0.00000000000E+00 0.  1.
         11    1    3    3    0    0 -0.66672328723E+01 -0.33890238889E+01 -0.79309659758E+01  0.10901270507E+02  0.51100000000E-03 0. -1.
        -11    1    3    3    0    0 -0.26257152546E+01 -0.11871094543E+02 -0.95776257683E+01  0.15477344147E+02  0.51100000000E-03 0.  1.
         12    1    3    3    0    0  0.68428401474E+01 -0.10337356697E+02 -0.17454091467E+02  0.21408659783E+02  0.00000000000E+00 0. -1.
</event>
<event>
 7    1  0.4236733E-010  0.4778727E+02  0.7816164E-02  0.1312668E+00
        -11   -1    0    0    0    0  0.00000000000E+00  0.00000000000E+00  0.45593999997E+02  0.45594000000E+02  0.51100000000E-03 0.  1.
         11   -1    0    0    0    0 -0.00000000000E+00 -0.00000000000E+00 -0.45593999997E+02  0.45594000000E+02  0.51100000000E-03 0. -1.
    9900012    2    1    2    0    0  0.77107477810E+00  0.42483110520E+02 -0.88438719818E+01  0.47787270659E+02  0.19999998241E+02 0.  0.
        -12    1    1    2    0    0 -0.77107477810E+00 -0.42483110520E+02  0.88438719818E+01  0.43400729341E+02  0.00000000000E+00 0.  1.
         11    1    3    3    0    0 -0.61044312272E+00  0.56065714106E+00  0.15559888173E+01  0.17629743891E+01  0.51100000000E-03 0.  1.
        -11    1    3    3    0    0 -0.25255680342E+00  0.15179191278E+02  0.38717582293E+01  0.15667231563E+02  0.51100000000E-03 0. -1.
         12    1    3    3    0    0  0.16340747042E+01  0.26743262100E+02 -0.14271619028E+02  0.30357064707E+02  0.00000000000E+00 0. -1.
</event>
<event>
 7    1  0.4236733E-010  0.4778729E+02  0.7816164E-02  0.1312668E+00
        -11   -1    0    0    0    0  0.00000000000E+00  0.00000000000E+00  0.45593999997E+02  0.45594000000E+02  0.51100000000E-03 0.  1.
         11   -1    0    0    0    0 -0.00000000000E+00 -0.00000000000E+00 -0.45593999997E+02  0.45594000000E+02  0.51100000000E-03 0. -1.
    9900012    2    1    2    0    0 -0.24442465187E+02  0.99701543058E+01 -0.34449728002E+02  0.47787287555E+02  0.20000075279E+02 0.  0.
        -12    1    1    2    0    0  0.24442465187E+02 -0.99701543058E+01  0.34449728002E+02  0.43400712445E+02  0.00000000000E+00 0.  1.
         11    1    3    3    0    0 -0.33741769363E+00 -0.10794843113E+01 -0.67395013079E+00  0.13165660326E+01  0.51100000000E-03 0. -1.
        -11    1    3    3    0    0 -0.95380392142E+01 -0.41865894472E+01 -0.77724027435E+01  0.12996613710E+02  0.51100000000E-03 0.  1.
         12    1    3    3    0    0 -0.14567008279E+02  0.15236228064E+02 -0.26003375128E+02  0.33474107813E+02  0.00000000000E+00 0. -1.
</event>
<event>
 7    1  0.4236733E-010  0.4778728E+02  0.7816164E-02  0.1312668E+00
        -11   -1    0    0    0    0  0.00000000000E+00  0.00000000000E+00  0.45593999997E+02  0.45594000000E+02  0.51100000000E-03 0. -1.
         11   -1    0    0    0    0 -0.00000000000E+00 -0.00000000000E+00 -0.45593999997E+02  0.45594000000E+02  0.51100000000E-03 0.  1.
    9900012    2    1    2    0    0 -0.86076478540E+01 -0.30213336054E+02  0.29944708369E+02  0.47787276084E+02  0.20000022977E+02 0.  0.
        -12    1    1    2    0    0  0.86076478540E+01  0.30213336054E+02 -0.29944708369E+02  0.43400723916E+02  0.00000000000E+00 0.  1.
         11    1    3    3    0    0  0.16842338966E+01 -0.64817090914E+01  0.12069515777E+02  0.13802985471E+02  0.51100000000E-03 0. -1.
        -11    1    3    3    0    0  0.10188714873E+01 -0.56412820616E+01 -0.59686621442E+00  0.57635416147E+01  0.51100000000E-03 0.  1.
        -12    1    3    3    0    0 -0.11310753238E+02 -0.18090344901E+02  0.18472058807E+02  0.28220748998E+02  0.00000000000E+00 0.  1.
</event>
<event>
 7    1  0.4236733E-010  0.4778727E+02  0.7816164E-02  0.1312668E+00
        -11   -1    0    0    0    0  0.00000000000E+00  0.00000000000E+00  0.45593999997E+02  0.45594000000E+02  0.51100000000E-03 0. -1.
         11   -1    0    0    0    0 -0.00000000000E+00 -0.00000000000E+00 -0.45593999997E+02  0.45594000000E+02  0.51100000000E-03 0.  1.
    9900012    2    1    2    0    0 -0.26269618525E+02  0.31298017874E+02  0.14627515111E+02  0.47787274446E+02  0.20000015509E+02 0.  0.
        -12    1    1    2    0    0  0.26269618525E+02 -0.31298017874E+02 -0.14627515111E+02  0.43400725554E+02  0.00000000000E+00 0.  1.
         11    1    3    3    0    0 -0.79214870430E+01  0.89225109116E+01  0.11327693756E+02  0.16452288717E+02  0.51100000000E-03 0. -1.
        -11    1    3    3    0    0 -0.22510987965E+00  0.71980979981E+01  0.26918722276E+01  0.76882680494E+01  0.51100000000E-03 0.  1.
         12    1    3    3    0    0 -0.18123021603E+02  0.15177408964E+02  0.60794912755E+00  0.23646717679E+02  0.00000000000E+00 0. -1.
</event>
<event>
 7    1  0.4236733E-010  0.4778727E+02  0.7816164E-02  0.1312668E+00
        -11   -1    0    0    0    0  0.00000000000E+00  0.00000000000E+00  0.45593999997E+02  0.45594000000E+02  0.51100000000E-03 0. -1.
         11   -1    0    0    0    0 -0.00000000000E+00 -0.00000000000E+00 -0.45593999997E+02  0.45594000000E+02  0.51100000000E-03 0.  1.
    9900012    2    1    2    0    0 -0.37392545907E+02 -0.22029085510E+02  0.37423171610E+00  0.47787272504E+02  0.20000006655E+02 0.  0.
        -12    1    1    2    0    0  0.37392545907E+02  0.22029085510E+02 -0.37423171610E+00  0.43400727496E+02  0.00000000000E+00 0.  1.
         11    1    3    3    0    0 -0.18062703977E+01 -0.73994284348E+01 -0.16983230707E+01  0.78037462430E+01  0.51100000000E-03 0. -1.
        -11    1    3    3    0    0 -0.15630041716E+02 -0.10601323017E+02  0.46830608683E+01  0.19458091199E+02  0.51100000000E-03 0.  1.
        -12    1    3    3    0    0 -0.19956233793E+02 -0.40283340580E+01 -0.26105060815E+01  0.20525435062E+02  0.00000000000E+00 0.  1.
</event>
<event>
 7    1  0.4236733E-010  0.4778727E+02  0.7816164E-02  0.1312668E+00
        -11   -1    0    0    0    0  0.00000000000E+00  0.00000000000E+00  0.45593999997E+02  0.45594000000E+02  0.51100000000E-03 0.  1.
         11   -1    0    0    0    0 -0.00000000000E+00 -0.00000000000E+00 -0.45593999997E+02  0.45594000000E+02  0.51100000000E-03 0. -1.
    9900012    2    1    2    0    0 -0.29553132119E+02  0.29532821931E+02 -0.11749389113E+02  0.47787270354E+02  0.19999996853E+02 0.  0.
        -12    1    1    2    0    0  0.29553132119E+02 -0.29532821931E+02  0.11749389113E+02  0.43400729646E+02  0.00000000000E+00 0.  1.
         11    1    3    3    0    0 -0.14387611255E+02  0.14504040006E+02 -0.16618411871E+01  0.20497127860E+02  0.51100000000E-03 0. -1.
        -11    1    3    3    0    0 -0.16011833204E+02  0.14969480754E+02 -0.12148834846E+02  0.25061092255E+02  0.51100000000E-03 0.  1.
        -12    1    3    3    0    0  0.84631233911E+00  0.59301170423E-01  0.20612869204E+01  0.22290502400E+01  0.00000000000E+00 0.  1.
</event>
<event>
 7    1  0.4236733E-010  0.4778727E+02  0.7816164E-02  0.1312668E+00
        -11   -1    0    0    0    0  0.00000000000E+00  0.00000000000E+00  0.45593999997E+02  0.45594000000E+02  0.51100000000E-03 0.  1.
         11   -1    0    0    0    0 -0.00000000000E+00 -0.00000000000E+00 -0.45593999997E+02  0.45594000000E+02  0.51100000000E-03 0. -1.
    9900012    2    1    2    0    0  0.21804951171E+02 -0.15234781764E+02 -0.34293859078E+02  0.47787271418E+02  0.20000001704E+02 0.  0.
        -12    1    1    2    0    0 -0.21804951171E+02  0.15234781764E+02  0.34293859078E+02  0.43400728582E+02  0.00000000000E+00 0.  1.
         11    1    3    3    0    0  0.34877203783E+01 -0.61540264229E+01 -0.14827742857E+02  0.16428578549E+02  0.51100000000E-03 0. -1.
        -11    1    3    3    0    0  0.11831671793E+01  0.28670778178E+01 -0.52294236590E+01  0.60800404484E+01  0.51100000000E-03 0.  1.
         12    1    3    3    0    0  0.17134063613E+02 -0.11947833159E+02 -0.14236692563E+02  0.25278652421E+02  0.00000000000E+00 0. -1.
</event>
<event>
 7    1  0.4236733E-010  0.4778725E+02  0.7816164E-02  0.1312668E+00
        -11   -1    0    0    0    0  0.00000000000E+00  0.00000000000E+00  0.45593999997E+02  0.45594000000E+02  0.51100000000E-03 0.  1.
         11   -1    0    0    0    0 -0.00000000000E+00 -0.00000000000E+00 -0.45593999997E+02  0.45594000000E+02  0.51100000000E-03 0. -1.
    9900012    2    1    2    0    0  0.34142052522E+01  0.42207719769E+02 -0.95119276333E+01  0.47787249167E+02  0.19999900250E+02 0.  0.
        -12    1    1    2    0    0 -0.34142052522E+01 -0.42207719769E+02  0.95119276333E+01  0.43400750833E+02  0.00000000000E+00 0.  1.
         11    1    3    3    0    0  0.61547428169E+01  0.35048774248E+02 -0.12561772122E+02  0.37737190602E+02  0.51100000000E-03 0. -1.
        -11    1    3    3    0    0  0.99558876741E+00 -0.99037786942E-01  0.14017851665E+01  0.17222100311E+01  0.51100000000E-03 0.  1.
        -12    1    3    3    0    0 -0.37361263322E+01  0.72579833082E+01  0.16480593218E+01  0.83278485337E+01  0.00000000000E+00 0.  1.
</event>
<event>
 7    1  0.4236733E-010  0.4778727E+02  0.7816164E-02  0.1312668E+00
        -11   -1    0    0    0    0  0.00000000000E+00  0.00000000000E+00  0.45593999997E+02  0.45594000000E+02  0.51100000000E-03 0. -1.
         11   -1    0    0    0    0 -0.00000000000E+00 -0.00000000000E+00 -0.45593999997E+02  0.45594000000E+02  0.51100000000E-03 0.  1.
    9900012    2    1    2    0    0 -0.35583323675E+02 -0.17410702156E+02  0.17729014312E+02  0.47787269340E+02  0.19999992230E+02 0.  0.
        -12    1    1    2    0    0  0.35583323675E+02  0.17410702156E+02 -0.17729014312E+02  0.43400730660E+02  0.00000000000E+00 0.  1.
         11    1    3    3    0    0 -0.77029561037E+01 -0.20498851430E+00  0.45772085588E+01  0.89626107512E+01  0.51100000000E-03 0. -1.
        -11    1    3    3    0    0 -0.15440056365E+02 -0.85746824760E+01 -0.15385396879E+01  0.17728159091E+02  0.51100000000E-03 0.  1.
        -12    1    3    3    0    0 -0.12440311207E+02 -0.86310311656E+01  0.14690345441E+02  0.21096499498E+02  0.00000000000E+00 0.  1.
</event>
<event>
 7    1  0.4236733E-010  0.4778727E+02  0.7816164E-02  0.1312668E+00
        -11   -1    0    0    0    0  0.00000000000E+00  0.00000000000E+00  0.45593999997E+02  0.45594000000E+02  0.51100000000E-03 0.  1.
         11   -1    0    0    0    0 -0.00000000000E+00 -0.00000000000E+00 -0.45593999997E+02  0.45594000000E+02  0.51100000000E-03 0. -1.
    9900012    2    1    2    0    0  0.29094285483E+02  0.79067175654E+01 -0.31219063971E+02  0.47787267453E+02  0.19999983624E+02 0.  0.
        -12    1    1    2    0    0 -0.29094285483E+02 -0.79067175654E+01  0.31219063971E+02  0.43400732547E+02  0.00000000000E+00 0.  1.
         11    1    3    3    0    0  0.17447194524E+02  0.52756220145E+01 -0.16271143949E+02  0.24433315577E+02  0.51100000000E-03 0. -1.
        -11    1    3    3    0    0  0.76169583700E+01 -0.36807880698E+01 -0.13176637670E+02  0.15658545149E+02  0.51100000000E-03 0.  1.
         12    1    3    3    0    0  0.40301325889E+01  0.63118836207E+01 -0.17712823514E+01  0.76954067269E+01  0.00000000000E+00 0. -1.
</event>
<event>
 7    1  0.4236733E-010  0.4778729E+02  0.7816164E-02  0.1312668E+00
        -11   -1    0    0    0    0  0.00000000000E+00  0.00000000000E+00  0.45593999997E+02  0.45594000000E+02  0.51100000000E-03 0.  1.
         11   -1    0    0    0    0 -0.00000000000E+00 -0.00000000000E+00 -0.45593999997E+02  0.45594000000E+02  0.51100000000E-03 0. -1.
    9900012    2    1    2    0    0  0.14287718852E+02 -0.17256897066E+01 -0.40945142877E+02  0.47787289865E+02  0.20000085811E+02 0.  0.
        -12    1    1    2    0    0 -0.14287718852E+02  0.17256897066E+01  0.40945142877E+02  0.43400710135E+02  0.00000000000E+00 0.  1.
         11    1    3    3    0    0 -0.22525443501E+01 -0.86627790770E+00 -0.13530987810E+02  0.13744527086E+02  0.51100000000E-03 0. -1.
        -11    1    3    3    0    0  0.22990369071E+01  0.29607230758E+00  0.77102425444E+00  0.24428893085E+01  0.51100000000E-03 0.  1.
         12    1    3    3    0    0  0.14241226295E+02 -0.11554841065E+01 -0.28185179322E+02  0.31599873470E+02  0.00000000000E+00 0. -1.
</event>
<event>
 7    1  0.4236733E-010  0.4778727E+02  0.7816164E-02  0.1312668E+00
        -11   -1    0    0    0    0  0.00000000000E+00  0.00000000000E+00  0.45593999997E+02  0.45594000000E+02  0.51100000000E-03 0. -1.
         11   -1    0    0    0    0 -0.00000000000E+00 -0.00000000000E+00 -0.45593999997E+02  0.45594000000E+02  0.51100000000E-03 0.  1.
    9900012    2    1    2    0    0 -0.23017994300E+02 -0.36537971679E+02 -0.43326459749E+01  0.47787271238E+02  0.20000000881E+02 0.  0.
        -12    1    1    2    0    0  0.23017994300E+02  0.36537971679E+02  0.43326459749E+01  0.43400728762E+02  0.00000000000E+00 0.  1.
         11    1    3    3    0    0 -0.43843766964E+01 -0.19346361983E+02  0.19054977704E+01  0.19928256397E+02  0.51100000000E-03 0. -1.
        -11    1    3    3    0    0 -0.16240541187E+01 -0.72399563298E+01 -0.22404715324E+01  0.77507568912E+01  0.51100000000E-03 0.  1.
        -12    1    3    3    0    0 -0.17009563485E+02 -0.99516533655E+01 -0.39976722129E+01  0.20108257950E+02  0.00000000000E+00 0.  1.
</event>
<event>
 7    1  0.4236733E-010  0.4778727E+02  0.7816164E-02  0.1312668E+00
        -11   -1    0    0    0    0  0.00000000000E+00  0.00000000000E+00  0.45593999997E+02  0.45594000000E+02  0.51100000000E-03 0.  1.
         11   -1    0    0    0    0 -0.00000000000E+00 -0.00000000000E+00 -0.45593999997E+02  0.45594000000E+02  0.51100000000E-03 0. -1.
    9900012    2    1    2    0    0 -0.24197700393E+02 -0.30113368176E+02 -0.19780786251E+02  0.47787272449E+02  0.20000006404E+02 0.  0.
        -12    1    1    2    0    0  0.24197700393E+02  0.30113368176E+02  0.19780786251E+02  0.43400727551E+02  0.00000000000E+00 0.  1.
         11    1    3    3    0    0 -0.17202966733E+02 -0.12486213221E+02 -0.18514329813E+01  0.21337183258E+02  0.51100000000E-03 0. -1.
        -11    1    3    3    0    0 -0.54627730083E+00  0.11898008418E+00 -0.41536578579E+00  0.69649418301E+00  0.51100000000E-03 0.  1.
        -12    1    3    3    0    0 -0.64484563591E+01 -0.17746135040E+02 -0.17513987484E+02  0.25753595008E+02  0.00000000000E+00 0.  1.
</event>
<event>
 7    1  0.4236733E-010  0.4778727E+02  0.7816164E-02  0.1312668E+00
        -11   -1    0    0    0    0  0.00000000000E+00  0.00000000000E+00  0.45593999997E+02  0.45594000000E+02  0.51100000000E-03 0.  1.
         11   -1    0    0    0    0 -0.00000000000E+00 -0.00000000000E+00 -0.45593999997E+02  0.45594000000E+02  0.51100000000E-03 0. -1.
    9900012    2    1    2    0    0 -0.14262466167E+02 -0.13059658287E+02 -0.38854222209E+02  0.47787271904E+02  0.20000003920E+02 0.  0.
        -12    1    1    2    0    0  0.14262466167E+02  0.13059658287E+02  0.38854222209E+02  0.43400728096E+02  0.00000000000E+00 0.  1.
         11    1    3    3    0    0 -0.32598290093E+00 -0.50050103505E+01 -0.10713621097E+02  0.11829542287E+02  0.51100000000E-03 0. -1.
        -11    1    3    3    0    0 -0.10836442466E+02 -0.12154254441E+02 -0.25294305781E+02  0.30082491445E+02  0.51100000000E-03 0.  1.
        -12    1    3    3    0    0 -0.31000408008E+01  0.40996065048E+01 -0.28462953316E+01  0.58752381718E+01  0.00000000000E+00 0.  1.
</event>
<event>
 7    1  0.4248524E-010  0.4778727E+02  0.7816164E-02  0.1312668E+00
        -11   -1    0    0    0    0  0.00000000000E+00  0.00000000000E+00  0.45593999997E+02  0.45594000000E+02  0.51100000000E-03 0. -1.
         11   -1    0    0    0    0 -0.00000000000E+00 -0.00000000000E+00 -0.45593999997E+02  0.45594000000E+02  0.51100000000E-03 0.  1.
    9900012    2    1    2    0    0 -0.20608000545E+01 -0.12754403292E+02  0.41433103580E+02  0.47787265300E+02  0.19999973810E+02 0.  0.
        -12    1    1    2    0    0  0.20608000545E+01  0.12754403292E+02 -0.41433103580E+02  0.43400734700E+02  0.00000000000E+00 0.  1.
         11    1    3    3    0    0  0.27561795960E-01 -0.50881158545E+01  0.26673443639E+02  0.27154415450E+02  0.51100000000E-03 0. -1.
        -11    1    3    3    0    0 -0.41877479093E-01  0.31366828503E+01  0.51500398677E+01  0.60302109355E+01  0.51100000000E-03 0.  1.
        -12    1    3    3    0    0 -0.20464843714E+01 -0.10802970288E+02  0.96096200732E+01  0.14602638915E+02  0.00000000000E+00 0.  1.
</event>
<event>
 7    1  0.4236733E-010  0.4778727E+02  0.7816164E-02  0.1312668E+00
        -11   -1    0    0    0    0  0.00000000000E+00  0.00000000000E+00  0.45593999997E+02  0.45594000000E+02  0.51100000000E-03 0.  1.
         11   -1    0    0    0    0 -0.00000000000E+00 -0.00000000000E+00 -0.45593999997E+02  0.45594000000E+02  0.51100000000E-03 0. -1.
    9900012    2    1    2    0    0 -0.43298876502E+02  0.22843728945E+01 -0.19005168662E+01  0.47787273852E+02  0.20000012801E+02 0.  0.
        -12    1    1    2    0    0  0.43298876502E+02 -0.22843728945E+01  0.19005168662E+01  0.43400726148E+02  0.00000000000E+00 0.  1.
         11    1    3    3    0    0 -0.75712989907E+01 -0.13074906537E+01  0.55178171314E+01  0.94594083522E+01  0.51100000000E-03 0. -1.
        -11    1    3    3    0    0 -0.12977536813E+02 -0.39676001623E+01 -0.37203086785E+01  0.14071212091E+02  0.51100000000E-03 0.  1.
        -12    1    3    3    0    0 -0.22750040698E+02  0.75594637105E+01 -0.36980253191E+01  0.24256653409E+02  0.00000000000E+00 0.  1.
</event>
<event>
 7    1  0.4236733E-010  0.4778727E+02  0.7816164E-02  0.1312668E+00
        -11   -1    0    0    0    0  0.00000000000E+00  0.00000000000E+00  0.45593999997E+02  0.45594000000E+02  0.51100000000E-03 0. -1.
         11   -1    0    0    0    0 -0.00000000000E+00 -0.00000000000E+00 -0.45593999997E+02  0.45594000000E+02  0.51100000000E-03 0.  1.
    9900012    2    1    2    0    0  0.41199501535E+02 -0.11889581466E+02  0.66979201633E+01  0.47787271795E+02  0.20000003424E+02 0.  0.
        -12    1    1    2    0    0 -0.41199501535E+02  0.11889581466E+02 -0.66979201633E+01  0.43400728205E+02  0.00000000000E+00 0.  1.
         11    1    3    3    0    0  0.13850193096E+02 -0.47645854982E+01 -0.32441731831E+01  0.15001792682E+02  0.51100000000E-03 0. -1.
        -11    1    3    3    0    0  0.24515717738E+02 -0.17026114208E+01  0.53880620636E+01  0.25158507804E+02  0.51100000000E-03 0.  1.
        -12    1    3    3    0    0  0.28335907011E+01 -0.54223845467E+01  0.45540312829E+01  0.76269713097E+01  0.00000000000E+00 0.  1.
</event>
<event>
 7    1  0.4236733E-010  0.4778727E+02  0.7816164E-02  0.1312668E+00
        -11   -1    0    0    0    0  0.00000000000E+00  0.00000000000E+00  0.45593999997E+02  0.45594000000E+02  0.51100000000E-03 0.  1.
         11   -1    0    0    0    0 -0.00000000000E+00 -0.00000000000E+00 -0.45593999997E+02  0.45594000000E+02  0.51100000000E-03 0. -1.
    9900012    2    1    2    0    0  0.42483909552E+02 -0.98430648811E+00 -0.88188534013E+01  0.47787267225E+02  0.19999982588E+02 0.  0.
        -12    1    1    2    0    0 -0.42483909552E+02  0.98430648811E+00  0.88188534013E+01  0.43400732775E+02  0.00000000000E+00 0.  1.
         11    1    3    3    0    0  0.96631159310E+01 -0.56602095409E+01 -0.72208554759E+01  0.13324959122E+02  0.51100000000E-03 0. -1.
        -11    1    3    3    0    0  0.29221063104E+01 -0.19543992395E+01  0.11881436719E+01  0.37108041342E+01  0.51100000000E-03 0.  1.
        -12    1    3    3    0    0  0.29898687310E+02  0.66303022923E+01 -0.27861415974E+01  0.30751503969E+02  0.00000000000E+00 0.  1.
</event>
<event>
 7    1  0.4236733E-010  0.4778727E+02  0.7816164E-02  0.1312668E+00
        -11   -1    0    0    0    0  0.00000000000E+00  0.00000000000E+00  0.45593999997E+02  0.45594000000E+02  0.51100000000E-03 0.  1.
         11   -1    0    0    0    0 -0.00000000000E+00 -0.00000000000E+00 -0.45593999997E+02  0.45594000000E+02  0.51100000000E-03 0. -1.
    9900012    2    1    2    0    0  0.15374362946E+02 -0.42742743646E+01 -0.40360663115E+02  0.47787267467E+02  0.19999983688E+02 0.  0.
        -12    1    1    2    0    0 -0.15374362946E+02  0.42742743646E+01  0.40360663115E+02  0.43400732533E+02  0.00000000000E+00 0.  1.
         11    1    3    3    0    0  0.10202833998E+02 -0.23276393851E+01 -0.11337877441E+02  0.15429296543E+02  0.51100000000E-03 0. -1.
        -11    1    3    3    0    0  0.41343747983E+00 -0.62079819094E+01 -0.67174063578E+01  0.91560645680E+01  0.51100000000E-03 0.  1.
         12    1    3    3    0    0  0.47580914683E+01  0.42613469299E+01 -0.22305379316E+02  0.23201906355E+02  0.00000000000E+00 0. -1.
</event>
<event>
 7    1  0.4236733E-010  0.4778726E+02  0.7816164E-02  0.1312668E+00
        -11   -1    0    0    0    0  0.00000000000E+00  0.00000000000E+00  0.45593999997E+02  0.45594000000E+02  0.51100000000E-03 0.  1.
         11   -1    0    0    0    0 -0.00000000000E+00 -0.00000000000E+00 -0.45593999997E+02  0.45594000000E+02  0.51100000000E-03 0. -1.
    9900012    2    1    2    0    0 -0.18229880941E+02  0.37308769151E+02 -0.12623438204E+02  0.47787262601E+02  0.19999961505E+02 0.  0.
        -12    1    1    2    0    0  0.18229880941E+02 -0.37308769151E+02  0.12623438204E+02  0.43400737399E+02  0.00000000000E+00 0.  1.
         11    1    3    3    0    0 -0.20030455218E+01  0.64859587422E+01 -0.51086798620E+01  0.84957908614E+01  0.51100000000E-03 0. -1.
        -11    1    3    3    0    0  0.12969968330E+01  0.55205817159E+01 -0.63185821761E+01  0.84902004831E+01  0.51100000000E-03 0.  1.
         12    1    3    3    0    0 -0.17523832252E+02  0.25302228693E+02 -0.11961761656E+01  0.30801271257E+02  0.00000000000E+00 0. -1.
</event>
<event>
 7    1  0.4236733E-010  0.4778727E+02  0.7816164E-02  0.1312668E+00
        -11   -1    0    0    0    0  0.00000000000E+00  0.00000000000E+00  0.45593999997E+02  0.45594000000E+02  0.51100000000E-03 0.  1.
         11   -1    0    0    0    0 -0.00000000000E+00 -0.00000000000E+00 -0.45593999997E+02  0.45594000000E+02  0.51100000000E-03 0. -1.
    9900012    2    1    2    0    0 -0.10213452439E+02 -0.22667955625E+02 -0.35573482753E+02  0.47787268461E+02  0.19999988219E+02 0.  0.
        -12    1    1    2    0    0  0.10213452439E+02  0.22667955625E+02  0.35573482753E+02  0.43400731539E+02  0.00000000000E+00 0.  1.
         11    1    3    3    0    0  0.24970931044E+01 -0.31006390250E+01 -0.95510120344E+01  0.10347524703E+02  0.51100000000E-03 0. -1.
        -11    1    3    3    0    0 -0.71538117544E+01 -0.42006666713E+01 -0.16649686631E+02  0.18602007641E+02  0.51100000000E-03 0.  1.
         12    1    3    3    0    0 -0.55567337896E+01 -0.15366649929E+02 -0.93727840877E+01  0.18837736117E+02  0.00000000000E+00 0. -1.
</event>
<event>
 7    1  0.4236733E-010  0.4778726E+02  0.7816164E-02  0.1312668E+00
        -11   -1    0    0    0    0  0.00000000000E+00  0.00000000000E+00  0.45593999997E+02  0.45594000000E+02  0.51100000000E-03 0.  1.
         11   -1    0    0    0    0 -0.00000000000E+00 -0.00000000000E+00 -0.45593999997E+02  0.45594000000E+02  0.51100000000E-03 0. -1.
    9900012    2    1    2    0    0  0.30715135676E+02  0.28318017413E+02  0.11759856104E+02  0.47787263999E+02  0.19999967879E+02 0.  0.
        -12    1    1    2    0    0 -0.30715135676E+02 -0.28318017413E+02 -0.11759856104E+02  0.43400736001E+02  0.00000000000E+00 0.  1.
         11    1    3    3    0    0  0.19289823669E+02  0.15548681061E+02  0.29914229979E+01  0.24956109306E+02  0.51100000000E-03 0. -1.
        -11    1    3    3    0    0  0.58143516738E+01  0.23608723566E+01  0.90386885743E+01  0.11003558292E+02  0.51100000000E-03 0.  1.
         12    1    3    3    0    0  0.56109603332E+01  0.10408463996E+02 -0.27025546788E+00  0.11827596401E+02  0.00000000000E+00 0. -1.
</event>
<event>
 7    1  0.4236733E-010  0.4778727E+02  0.7816164E-02  0.1312668E+00
        -11   -1    0    0    0    0  0.00000000000E+00  0.00000000000E+00  0.45593999997E+02  0.45594000000E+02  0.51100000000E-03 0. -1.
         11   -1    0    0    0    0 -0.00000000000E+00 -0.00000000000E+00 -0.45593999997E+02  0.45594000000E+02  0.51100000000E-03 0.  1.
    9900012    2    1    2    0    0  0.50282037300E+01 -0.36276171492E+02  0.23289050524E+02  0.47787270454E+02  0.19999997307E+02 0.  0.
        -12    1    1    2    0    0 -0.50282037300E+01  0.36276171492E+02 -0.23289050524E+02  0.43400729546E+02  0.00000000000E+00 0.  1.
         11    1    3    3    0    0  0.16038441555E+01 -0.67973756213E+01  0.51821144370E+01  0.86966051831E+01  0.51100000000E-03 0. -1.
        -11    1    3    3    0    0 -0.69631392067E+01 -0.86732101722E+01  0.36382236997E+01  0.11702416599E+02  0.51100000000E-03 0.  1.
        -12    1    3    3    0    0  0.10387498781E+02 -0.20805585698E+02  0.14468712387E+02  0.27388248672E+02  0.00000000000E+00 0.  1.
</event>
<event>
 7    1  0.4236733E-010  0.4778727E+02  0.7816164E-02  0.1312668E+00
        -11   -1    0    0    0    0  0.00000000000E+00  0.00000000000E+00  0.45593999997E+02  0.45594000000E+02  0.51100000000E-03 0.  1.
         11   -1    0    0    0    0 -0.00000000000E+00 -0.00000000000E+00 -0.45593999997E+02  0.45594000000E+02  0.51100000000E-03 0. -1.
    9900012    2    1    2    0    0 -0.24394842297E+02  0.25004023180E+02  0.25754877058E+02  0.47787271916E+02  0.20000003976E+02 0.  0.
        -12    1    1    2    0    0  0.24394842297E+02 -0.25004023180E+02 -0.25754877058E+02  0.43400728084E+02  0.00000000000E+00 0.  1.
         11    1    3    3    0    0 -0.78673164510E+01  0.86500698106E+01  0.19385056097E+02  0.22638435812E+02  0.51100000000E-03 0.  1.
        -11    1    3    3    0    0 -0.31550070853E+01  0.54808045453E-01  0.11442716077E+00  0.31575571993E+01  0.51100000000E-03 0. -1.
         12    1    3    3    0    0 -0.13372518761E+02  0.16299145324E+02  0.62553938011E+01  0.21991278906E+02  0.00000000000E+00 0. -1.
</event>
<event>
 7    1  0.4236733E-010  0.4778727E+02  0.7816164E-02  0.1312668E+00
        -11   -1    0    0    0    0  0.00000000000E+00  0.00000000000E+00  0.45593999997E+02  0.45594000000E+02  0.51100000000E-03 0.  1.
         11   -1    0    0    0    0 -0.00000000000E+00 -0.00000000000E+00 -0.45593999997E+02  0.45594000000E+02  0.51100000000E-03 0. -1.
    9900012    2    1    2    0    0  0.10656574215E+02  0.41052209179E+02 -0.92074278186E+01  0.47787272131E+02  0.20000004956E+02 0.  0.
        -12    1    1    2    0    0 -0.10656574215E+02 -0.41052209179E+02  0.92074278186E+01  0.43400727869E+02  0.00000000000E+00 0.  1.
         11    1    3    3    0    0  0.12065402942E+02  0.10432567362E+02 -0.44448336752E+01  0.16558048091E+02  0.51100000000E-03 0. -1.
        -11    1    3    3    0    0 -0.64662976814E+00  0.60570915402E+01  0.44996389050E+00  0.61081057414E+01  0.51100000000E-03 0.  1.
         12    1    3    3    0    0 -0.76219895857E+00  0.24562550276E+02 -0.52125580339E+01  0.25121118299E+02  0.00000000000E+00 0. -1.
</event>
<event>
 7    1  0.4236733E-010  0.4778727E+02  0.7816164E-02  0.1312668E+00
        -11   -1    0    0    0    0  0.00000000000E+00  0.00000000000E+00  0.45593999997E+02  0.45594000000E+02  0.51100000000E-03 0. -1.
         11   -1    0    0    0    0 -0.00000000000E+00 -0.00000000000E+00 -0.45593999997E+02  0.45594000000E+02  0.51100000000E-03 0.  1.
    9900012    2    1    2    0    0 -0.36691536292E+02  0.22999810324E+02  0.28919324650E+01  0.47787269778E+02  0.19999994225E+02 0.  0.
        -12    1    1    2    0    0  0.36691536292E+02 -0.22999810324E+02 -0.28919324650E+01  0.43400730222E+02  0.00000000000E+00 0.  1.
         11    1    3    3    0    0 -0.35881078560E+01 -0.93231112463E+00 -0.20167238311E+01  0.42202958772E+01  0.51100000000E-03 0. -1.
        -11    1    3    3    0    0 -0.31945779291E+02  0.23479853757E+02  0.12097481730E+01  0.39664843853E+02  0.51100000000E-03 0.  1.
        -12    1    3    3    0    0 -0.11576491451E+01  0.45226769190E+00  0.36989081231E+01  0.39021300480E+01  0.00000000000E+00 0.  1.
</event>
<event>
 7    1  0.4236733E-010  0.4778727E+02  0.7816164E-02  0.1312668E+00
        -11   -1    0    0    0    0  0.00000000000E+00  0.00000000000E+00  0.45593999997E+02  0.45594000000E+02  0.51100000000E-03 0.  1.
         11   -1    0    0    0    0 -0.00000000000E+00 -0.00000000000E+00 -0.45593999997E+02  0.45594000000E+02  0.51100000000E-03 0. -1.
    9900012    2    1    2    0    0 -0.19770083770E+02 -0.16979504033E+02 -0.34705380237E+02  0.47787272047E+02  0.20000004570E+02 0.  0.
        -12    1    1    2    0    0  0.19770083770E+02  0.16979504033E+02  0.34705380237E+02  0.43400727953E+02  0.00000000000E+00 0.  1.
         11    1    3    3    0    0 -0.50099529930E+01 -0.21095230562E+01  0.36530106772E+00  0.54482255504E+01  0.51100000000E-03 0. -1.
        -11    1    3    3    0    0 -0.24049612196E+01  0.14697748248E+01 -0.73400403646E+01  0.78625866811E+01  0.51100000000E-03 0.  1.
         12    1    3    3    0    0 -0.12355169558E+02 -0.16339755801E+02 -0.27730640940E+02  0.34476459815E+02  0.00000000000E+00 0. -1.
</event>
<event>
 7    1  0.4236733E-010  0.4778727E+02  0.7816164E-02  0.1312668E+00
        -11   -1    0    0    0    0  0.00000000000E+00  0.00000000000E+00  0.45593999997E+02  0.45594000000E+02  0.51100000000E-03 0.  1.
         11   -1    0    0    0    0 -0.00000000000E+00 -0.00000000000E+00 -0.45593999997E+02  0.45594000000E+02  0.51100000000E-03 0. -1.
    9900012    2    1    2    0    0 -0.26552794806E+02 -0.34892389272E+01 -0.34152568906E+02  0.47787266560E+02  0.19999979553E+02 0.  0.
        -12    1    1    2    0    0  0.26552794806E+02  0.34892389272E+01  0.34152568906E+02  0.43400733440E+02  0.00000000000E+00 0.  1.
         11    1    3    3    0    0 -0.10025661944E+02 -0.29414270453E+00 -0.12030631949E+02  0.15663221978E+02  0.51100000000E-03 0. -1.
        -11    1    3    3    0    0 -0.10562607821E+02  0.56835116381E+01 -0.80375827489E+01  0.14438619228E+02  0.51100000000E-03 0.  1.
         12    1    3    3    0    0 -0.59645250406E+01 -0.88786078608E+01 -0.14084354207E+02  0.17685425354E+02  0.00000000000E+00 0. -1.
</event>
<event>
 7    1  0.5750149E-010  0.4778728E+02  0.7816164E-02  0.1312668E+00
        -11   -1    0    0    0    0  0.00000000000E+00  0.00000000000E+00  0.45593999997E+02  0.45594000000E+02  0.51100000000E-03 0. -1.
         11   -1    0    0    0    0 -0.00000000000E+00 -0.00000000000E+00 -0.45593999997E+02  0.45594000000E+02  0.51100000000E-03 0.  1.
    9900012    2    1    2    0    0 -0.40656711615E+02 -0.12833808979E+01  0.15132986797E+02  0.47787279323E+02  0.20000037745E+02 0.  0.
        -12    1    1    2    0    0  0.40656711615E+02  0.12833808979E+01 -0.15132986797E+02  0.43400720677E+02  0.00000000000E+00 0.  1.
         11    1    3    3    0    0 -0.20141020628E+02 -0.24461525406E+01  0.87647530235E+01  0.22101250418E+02  0.51100000000E-03 0. -1.
        -11    1    3    3    0    0 -0.29939086476E+01 -0.32344415262E+01  0.62163911164E+01  0.76202768814E+01  0.51100000000E-03 0.  1.
         12    1    3    3    0    0 -0.17521782339E+02  0.43972131689E+01  0.15184265686E+00  0.18065752024E+02  0.00000000000E+00 0. -1.
</event>
<event>
 7    1  0.4236733E-010  0.4778727E+02  0.7816164E-02  0.1312668E+00
        -11   -1    0    0    0    0  0.00000000000E+00  0.00000000000E+00  0.45593999997E+02  0.45594000000E+02  0.51100000000E-03 0. -1.
         11   -1    0    0    0    0 -0.00000000000E+00 -0.00000000000E+00 -0.45593999997E+02  0.45594000000E+02  0.51100000000E-03 0.  1.
    9900012    2    1    2    0    0  0.31868314881E+02  0.79622307065E+01  0.28366114634E+02  0.47787273386E+02  0.20000010677E+02 0.  0.
        -12    1    1    2    0    0 -0.31868314881E+02 -0.79622307065E+01 -0.28366114634E+02  0.43400726614E+02  0.00000000000E+00 0.  1.
         11    1    3    3    0    0  0.10036762235E+02  0.21658806714E+01  0.23481660630E+01  0.10532878019E+02  0.51100000000E-03 0. -1.
        -11    1    3    3    0    0  0.15164696322E+02  0.41486009196E+01  0.73341331189E+01  0.17348441227E+02  0.51100000000E-03 0.  1.
         12    1    3    3    0    0  0.66668563241E+01  0.16477491155E+01  0.18683815452E+02  0.19905954140E+02  0.00000000000E+00 0. -1.
</event>
<event>
 7    1  0.4236733E-010  0.4778727E+02  0.7816164E-02  0.1312668E+00
        -11   -1    0    0    0    0  0.00000000000E+00  0.00000000000E+00  0.45593999997E+02  0.45594000000E+02  0.51100000000E-03 0. -1.
         11   -1    0    0    0    0 -0.00000000000E+00 -0.00000000000E+00 -0.45593999997E+02  0.45594000000E+02  0.51100000000E-03 0.  1.
    9900012    2    1    2    0    0  0.32925629467E+02 -0.82416057544E+01  0.27048141349E+02  0.47787273144E+02  0.20000009571E+02 0.  0.
        -12    1    1    2    0    0 -0.32925629467E+02  0.82416057544E+01 -0.27048141349E+02  0.43400726856E+02  0.00000000000E+00 0.  1.
         11    1    3    3    0    0  0.15617645450E+01  0.16560587521E+01  0.63834870926E+01  0.67772078917E+01  0.51100000000E-03 0. -1.
        -11    1    3    3    0    0  0.16178587814E+01 -0.38259805158E+01 -0.22180634547E+00  0.41599029147E+01  0.51100000000E-03 0.  1.
         12    1    3    3    0    0  0.29746006141E+02 -0.60716839908E+01  0.20886460602E+02  0.36850162337E+02  0.00000000000E+00 0. -1.
</event>
<event>
 7    1  0.4236733E-010  0.4778727E+02  0.7816164E-02  0.1312668E+00
        -11   -1    0    0    0    0  0.00000000000E+00  0.00000000000E+00  0.45593999997E+02  0.45594000000E+02  0.51100000000E-03 0.  1.
         11   -1    0    0    0    0 -0.00000000000E+00 -0.00000000000E+00 -0.45593999997E+02  0.45594000000E+02  0.51100000000E-03 0. -1.
    9900012    2    1    2    0    0  0.30699134210E+02  0.11469860344E+01 -0.30657308791E+02  0.47787274194E+02  0.20000014360E+02 0.  0.
        -12    1    1    2    0    0 -0.30699134210E+02 -0.11469860344E+01  0.30657308791E+02  0.43400725806E+02  0.00000000000E+00 0.  1.
         11    1    3    3    0    0  0.35891974206E+00  0.13853392443E+01 -0.62023513096E+01  0.63653083375E+01  0.51100000000E-03 0. -1.
        -11    1    3    3    0    0  0.10017228694E+02 -0.41302896676E+01 -0.15412699642E+02  0.18840262045E+02  0.51100000000E-03 0.  1.
         12    1    3    3    0    0  0.20322985774E+02  0.38919364578E+01 -0.90422578397E+01  0.22581703811E+02  0.00000000000E+00 0. -1.
</event>
<event>
 7    1  0.4236733E-010  0.4778727E+02  0.7816164E-02  0.1312668E+00
        -11   -1    0    0    0    0  0.00000000000E+00  0.00000000000E+00  0.45593999997E+02  0.45594000000E+02  0.51100000000E-03 0.  1.
         11   -1    0    0    0    0 -0.00000000000E+00 -0.00000000000E+00 -0.45593999997E+02  0.45594000000E+02  0.51100000000E-03 0. -1.
    9900012    2    1    2    0    0 -0.21883035985E+02  0.12535422804E+02 -0.35321656616E+02  0.47787268268E+02  0.19999987340E+02 0.  0.
        -12    1    1    2    0    0  0.21883035985E+02 -0.12535422804E+02  0.35321656616E+02  0.43400731732E+02  0.00000000000E+00 0.  1.
         11    1    3    3    0    0 -0.61722048065E+00 -0.77409124719E+00 -0.23813753987E+01  0.25789779819E+01  0.51100000000E-03 0. -1.
        -11    1    3    3    0    0 -0.13132708357E+02  0.14403321721E+02 -0.12431264608E+02  0.23118391930E+02  0.51100000000E-03 0.  1.
        -12    1    3    3    0    0 -0.81331071466E+01 -0.10938076706E+01 -0.20509016609E+02  0.22089898356E+02  0.00000000000E+00 0.  1.
</event>
<event>
 7    1  0.4236733E-010  0.4778727E+02  0.7816164E-02  0.1312668E+00
        -11   -1    0    0    0    0  0.00000000000E+00  0.00000000000E+00  0.45593999997E+02  0.45594000000E+02  0.51100000000E-03 0. -1.
         11   -1    0    0    0    0 -0.00000000000E+00 -0.00000000000E+00 -0.45593999997E+02  0.45594000000E+02  0.51100000000E-03 0.  1.
    9900012    2    1    2    0    0  0.77224243019E+01 -0.33346538539E+02  0.26683252538E+02  0.47787269181E+02  0.19999991503E+02 0.  0.
        -12    1    1    2    0    0 -0.77224243019E+01  0.33346538539E+02 -0.26683252538E+02  0.43400730819E+02  0.00000000000E+00 0.  1.
         11    1    3    3    0    0  0.64556576914E+01 -0.30105067992E+02  0.28262532084E+02  0.41794274190E+02  0.51100000000E-03 0. -1.
        -11    1    3    3    0    0  0.82752187679E+00 -0.12522748242E+00  0.14182821196E+01  0.16468147469E+01  0.51100000000E-03 0.  1.
        -12    1    3    3    0    0  0.43924473364E+00 -0.31162430645E+01 -0.29975616654E+01  0.43461802437E+01  0.00000000000E+00 0.  1.
</event>
<event>
 7    1  0.4236733E-010  0.4778727E+02  0.7816164E-02  0.1312668E+00
        -11   -1    0    0    0    0  0.00000000000E+00  0.00000000000E+00  0.45593999997E+02  0.45594000000E+02  0.51100000000E-03 0.  1.
         11   -1    0    0    0    0 -0.00000000000E+00 -0.00000000000E+00 -0.45593999997E+02  0.45594000000E+02  0.51100000000E-03 0. -1.
    9900012    2    1    2    0    0 -0.37569921022E+02  0.33959376548E+01 -0.21461402388E+02  0.47787272464E+02  0.20000006473E+02 0.  0.
        -12    1    1    2    0    0  0.37569921022E+02 -0.33959376548E+01  0.21461402388E+02  0.43400727536E+02  0.00000000000E+00 0.  1.
         11    1    3    3    0    0 -0.25125994325E+02 -0.47219034063E+01 -0.82087555515E+01  0.26851361801E+02  0.51100000000E-03 0. -1.
        -11    1    3    3    0    0 -0.53557886686E+00  0.17620401775E+01  0.23184091438E+00  0.18561736935E+01  0.51100000000E-03 0.  1.
         12    1    3    3    0    0 -0.11908347830E+02  0.63558008836E+01 -0.13484487751E+02  0.19079736969E+02  0.00000000000E+00 0. -1.
</event>
<event>
 7    1  0.4236733E-010  0.4778727E+02  0.7816164E-02  0.1312668E+00
        -11   -1    0    0    0    0  0.00000000000E+00  0.00000000000E+00  0.45593999997E+02  0.45594000000E+02  0.51100000000E-03 0. -1.
         11   -1    0    0    0    0 -0.00000000000E+00 -0.00000000000E+00 -0.45593999997E+02  0.45594000000E+02  0.51100000000E-03 0.  1.
    9900012    2    1    2    0    0 -0.14067608103E+01  0.43047582046E+02  0.53432258283E+01  0.47787270072E+02  0.19999995568E+02 0.  0.
        -12    1    1    2    0    0  0.14067608103E+01 -0.43047582046E+02 -0.53432258283E+01  0.43400729928E+02  0.00000000000E+00 0.  1.
         11    1    3    3    0    0  0.12492789971E+01  0.16381478054E+01  0.92498968352E+00  0.22582808551E+01  0.51100000000E-03 0. -1.
        -11    1    3    3    0    0  0.13746646150E+01  0.15835053207E+02 -0.68313737787E+01  0.17300470538E+02  0.51100000000E-03 0.  1.
        -12    1    3    3    0    0 -0.40307044224E+01  0.25574381034E+02  0.11249609923E+02  0.28228518680E+02  0.00000000000E+00 0.  1.
</event>
<event>
 7    1  0.4236733E-010  0.4778728E+02  0.7816164E-02  0.1312668E+00
        -11   -1    0    0    0    0  0.00000000000E+00  0.00000000000E+00  0.45593999997E+02  0.45594000000E+02  0.51100000000E-03 0.  1.
         11   -1    0    0    0    0 -0.00000000000E+00 -0.00000000000E+00 -0.45593999997E+02  0.45594000000E+02  0.51100000000E-03 0. -1.
    9900012    2    1    2    0    0 -0.29698194997E+02  0.16709698045E+02 -0.26877985190E+02  0.47787275551E+02  0.20000020548E+02 0.  0.
        -12    1    1    2    0    0  0.29698194997E+02 -0.16709698045E+02  0.26877985190E+02  0.43400724449E+02  0.00000000000E+00 0.  1.
         11    1    3    3    0    0 -0.51479744603E+01 -0.15605810406E+01 -0.84971367775E+01  0.10056758320E+02  0.51100000000E-03 0.  1.
        -11    1    3    3    0    0 -0.74632727263E+01 -0.51075128781E+00 -0.31109964671E+01  0.81018273213E+01  0.51100000000E-03 0. -1.
         12    1    3    3    0    0 -0.17086947810E+02  0.18781030373E+02 -0.15269851945E+02  0.29628689910E+02  0.00000000000E+00 0. -1.
</event>
<event>
 7    1  0.4236733E-010  0.4778729E+02  0.7816164E-02  0.1312668E+00
        -11   -1    0    0    0    0  0.00000000000E+00  0.00000000000E+00  0.45593999997E+02  0.45594000000E+02  0.51100000000E-03 0.  1.
         11   -1    0    0    0    0 -0.00000000000E+00 -0.00000000000E+00 -0.45593999997E+02  0.45594000000E+02  0.51100000000E-03 0. -1.
    9900012    2    1    2    0    0  0.93337921306E+01  0.17648158034E+02 -0.38536269542E+02  0.47787294617E+02  0.20000107477E+02 0.  0.
        -12    1    1    2    0    0 -0.93337921306E+01 -0.17648158034E+02  0.38536269542E+02  0.43400705383E+02  0.00000000000E+00 0.  1.
         11    1    3    3    0    0  0.81514394171E+00  0.12166974522E+02 -0.18943472371E+02  0.22528978548E+02  0.51100000000E-03 0. -1.
        -11    1    3    3    0    0  0.34936807810E+00 -0.20960484436E+00 -0.13665285580E+02  0.13671357741E+02  0.51100000000E-03 0.  1.
         12    1    3    3    0    0  0.81692801108E+01  0.56907883563E+01 -0.59275115905E+01  0.11586958328E+02  0.00000000000E+00 0. -1.
</event>
<event>
 7    1  0.4236733E-010  0.4778728E+02  0.7816164E-02  0.1312668E+00
        -11   -1    0    0    0    0  0.00000000000E+00  0.00000000000E+00  0.45593999997E+02  0.45594000000E+02  0.51100000000E-03 0.  1.
         11   -1    0    0    0    0 -0.00000000000E+00 -0.00000000000E+00 -0.45593999997E+02  0.45594000000E+02  0.51100000000E-03 0. -1.
    9900012    2    1    2    0    0 -0.40341184133E+02  0.11671189903E+02 -0.10954205951E+02  0.47787280662E+02  0.20000043851E+02 0.  0.
        -12    1    1    2    0    0  0.40341184133E+02 -0.11671189903E+02  0.10954205951E+02  0.43400719338E+02  0.00000000000E+00 0.  1.
         11    1    3    3    0    0 -0.13499444973E+02  0.84443906471E+01 -0.33542391957E+01  0.16272481950E+02  0.51100000000E-03 0. -1.
        -11    1    3    3    0    0 -0.12851513804E+01 -0.33324045583E+01 -0.31399549660E+01  0.47556126483E+01  0.51100000000E-03 0.  1.
         12    1    3    3    0    0 -0.25556587780E+02  0.65592038143E+01 -0.44600117895E+01  0.26759186064E+02  0.00000000000E+00 0. -1.
</event>
<event>
 7    1  0.4236733E-010  0.4778727E+02  0.7816164E-02  0.1312668E+00
        -11   -1    0    0    0    0  0.00000000000E+00  0.00000000000E+00  0.45593999997E+02  0.45594000000E+02  0.51100000000E-03 0.  1.
         11   -1    0    0    0    0 -0.00000000000E+00 -0.00000000000E+00 -0.45593999997E+02  0.45594000000E+02  0.51100000000E-03 0. -1.
    9900012    2    1    2    0    0 -0.25527751540E+02  0.95515318726E+01 -0.33774631443E+02  0.47787267415E+02  0.19999983452E+02 0.  0.
        -12    1    1    2    0    0  0.25527751540E+02 -0.95515318726E+01  0.33774631443E+02  0.43400732585E+02  0.00000000000E+00 0.  1.
         11    1    3    3    0    0  0.96822887277E+00  0.24852773995E+01 -0.48709929111E+01  0.55534352525E+01  0.51100000000E-03 0. -1.
        -11    1    3    3    0    0 -0.10253907647E+02 -0.17750925573E+01 -0.17928192068E+02  0.20729535612E+02  0.51100000000E-03 0.  1.
         12    1    3    3    0    0 -0.16242072766E+02  0.88413470304E+01 -0.10975446464E+02  0.21504296550E+02  0.00000000000E+00 0. -1.
</event>
<event>
 7    1  0.4236733E-010  0.4778727E+02  0.7816164E-02  0.1312668E+00
        -11   -1    0    0    0    0  0.00000000000E+00  0.00000000000E+00  0.45593999997E+02  0.45594000000E+02  0.51100000000E-03 0. -1.
         11   -1    0    0    0    0 -0.00000000000E+00 -0.00000000000E+00 -0.45593999997E+02  0.45594000000E+02  0.51100000000E-03 0.  1.
    9900012    2    1    2    0    0 -0.21281849656E+01  0.18365831117E+02  0.39265635769E+02  0.47787273322E+02  0.20000010384E+02 0.  0.
        -12    1    1    2    0    0  0.21281849656E+01 -0.18365831117E+02 -0.39265635769E+02  0.43400726678E+02  0.00000000000E+00 0.  1.
         11    1    3    3    0    0 -0.86815517711E+00  0.74507431119E+00  0.22701800326E+00  0.11663475364E+01  0.51100000000E-03 0. -1.
        -11    1    3    3    0    0  0.43674850791E+01 -0.19990859610E+01  0.10372687389E+02  0.11430831752E+02  0.51100000000E-03 0.  1.
        -12    1    3    3    0    0 -0.56275148676E+01  0.19619842767E+02  0.28665930376E+02  0.35190094034E+02  0.00000000000E+00 0.  1.
</event>
<event>
 7    1  0.4236733E-010  0.4778727E+02  0.7816164E-02  0.1312668E+00
        -11   -1    0    0    0    0  0.00000000000E+00  0.00000000000E+00  0.45593999997E+02  0.45594000000E+02  0.51100000000E-03 0. -1.
         11   -1    0    0    0    0 -0.00000000000E+00 -0.00000000000E+00 -0.45593999997E+02  0.45594000000E+02  0.51100000000E-03 0.  1.
    9900012    2    1    2    0    0  0.12075353501E+02 -0.37050282392E+02 -0.19107209840E+02  0.47787273562E+02  0.20000011479E+02 0.  0.
        -12    1    1    2    0    0 -0.12075353501E+02  0.37050282392E+02  0.19107209840E+02  0.43400726438E+02  0.00000000000E+00 0.  1.
         11    1    3    3    0    0 -0.27020525391E+00 -0.15631369540E+02 -0.70022270781E+01  0.17130204578E+02  0.51100000000E-03 0. -1.
        -11    1    3    3    0    0  0.50491743986E+01 -0.19994827178E+02 -0.10068506666E+02  0.22949119868E+02  0.51100000000E-03 0.  1.
        -12    1    3    3    0    0  0.72963843562E+01 -0.14240856736E+01 -0.20364760956E+01  0.77079491155E+01  0.00000000000E+00 0.  1.
</event>
<event>
 7    1  0.4236733E-010  0.4778729E+02  0.7816164E-02  0.1312668E+00
        -11   -1    0    0    0    0  0.00000000000E+00  0.00000000000E+00  0.45593999997E+02  0.45594000000E+02  0.51100000000E-03 0. -1.
         11   -1    0    0    0    0 -0.00000000000E+00 -0.00000000000E+00 -0.45593999997E+02  0.45594000000E+02  0.51100000000E-03 0.  1.
    9900012    2    1    2    0    0 -0.38198659907E+02  0.94187525187E+01  0.18324065487E+02  0.47787286945E+02  0.20000072498E+02 0.  0.
        -12    1    1    2    0    0  0.38198659907E+02 -0.94187525187E+01 -0.18324065487E+02  0.43400713055E+02  0.00000000000E+00 0.  1.
         11    1    3    3    0    0 -0.19826438446E+01 -0.22728107253E+00  0.58719052422E+01  0.62017581970E+01  0.51100000000E-03 0. -1.
        -11    1    3    3    0    0 -0.66615862926E+01  0.65015919761E+01  0.62838808226E+01  0.11230965613E+02  0.51100000000E-03 0.  1.
         12    1    3    3    0    0 -0.29554429769E+02  0.31444416152E+01  0.61682794228E+01  0.30354563135E+02  0.00000000000E+00 0. -1.
</event>
<event>
 7    1  0.4236733E-010  0.4778727E+02  0.7816164E-02  0.1312668E+00
        -11   -1    0    0    0    0  0.00000000000E+00  0.00000000000E+00  0.45593999997E+02  0.45594000000E+02  0.51100000000E-03 0.  1.
         11   -1    0    0    0    0 -0.00000000000E+00 -0.00000000000E+00 -0.45593999997E+02  0.45594000000E+02  0.51100000000E-03 0. -1.
    9900012    2    1    2    0    0 -0.16504683817E+02 -0.12236049727E+02 -0.38229539894E+02  0.47787271650E+02  0.20000002759E+02 0.  0.
        -12    1    1    2    0    0  0.16504683817E+02  0.12236049727E+02  0.38229539894E+02  0.43400728350E+02  0.00000000000E+00 0.  1.
         11    1    3    3    0    0 -0.75299740951E+01 -0.58778301625E+01 -0.24634091276E+02  0.26421352171E+02  0.51100000000E-03 0. -1.
        -11    1    3    3    0    0  0.77374194891E+00  0.27297114851E+01 -0.41642186534E+01  0.50389203854E+01  0.51100000000E-03 0.  1.
        -12    1    3    3    0    0 -0.97484516706E+01 -0.90879310500E+01 -0.94312299653E+01  0.16326999094E+02  0.00000000000E+00 0.  1.
</event>
<event>
 7    1  0.4236733E-010  0.4778727E+02  0.7816164E-02  0.1312668E+00
        -11   -1    0    0    0    0  0.00000000000E+00  0.00000000000E+00  0.45593999997E+02  0.45594000000E+02  0.51100000000E-03 0.  1.
         11   -1    0    0    0    0 -0.00000000000E+00 -0.00000000000E+00 -0.45593999997E+02  0.45594000000E+02  0.51100000000E-03 0. -1.
    9900012    2    1    2    0    0 -0.37349502812E+02  0.26893009325E+01  0.21940957147E+02  0.47787270739E+02  0.19999998609E+02 0.  0.
        -12    1    1    2    0    0  0.37349502812E+02 -0.26893009325E+01 -0.21940957147E+02  0.43400729261E+02  0.00000000000E+00 0.  1.
         11    1    3    3    0    0 -0.94436331435E+01 -0.63095269647E+01  0.29919274842E+01  0.11744954993E+02  0.51100000000E-03 0. -1.
        -11    1    3    3    0    0 -0.42193422179E+01  0.15605126174E-01  0.66650521021E+01  0.78883465984E+01  0.51100000000E-03 0.  1.
        -12    1    3    3    0    0 -0.23686527451E+02  0.89832227710E+01  0.12283977561E+02  0.28153969147E+02  0.00000000000E+00 0.  1.
</event>
<event>
 7    1  0.4236733E-010  0.4778727E+02  0.7816164E-02  0.1312668E+00
        -11   -1    0    0    0    0  0.00000000000E+00  0.00000000000E+00  0.45593999997E+02  0.45594000000E+02  0.51100000000E-03 0.  1.
         11   -1    0    0    0    0 -0.00000000000E+00 -0.00000000000E+00 -0.45593999997E+02  0.45594000000E+02  0.51100000000E-03 0. -1.
    9900012    2    1    2    0    0  0.40158537361E+02 -0.10707569516E+01 -0.16424634856E+02  0.47787271047E+02  0.20000000013E+02 0.  0.
        -12    1    1    2    0    0 -0.40158537361E+02  0.10707569516E+01  0.16424634856E+02  0.43400728953E+02  0.00000000000E+00 0.  1.
         11    1    3    3    0    0  0.17080902879E+02 -0.46526421699E+01 -0.81236169354E+01  0.19478128111E+02  0.51100000000E-03 0. -1.
        -11    1    3    3    0    0  0.98588658924E+01 -0.46949899779E+01 -0.65455307798E+00  0.10939314767E+02  0.51100000000E-03 0.  1.
        -12    1    3    3    0    0  0.13218768590E+02  0.82768751962E+01 -0.76464648428E+01  0.17369828170E+02  0.00000000000E+00 0.  1.
</event>
<event>
 7    1  0.4236733E-010  0.4778727E+02  0.7816164E-02  0.1312668E+00
        -11   -1    0    0    0    0  0.00000000000E+00  0.00000000000E+00  0.45593999997E+02  0.45594000000E+02  0.51100000000E-03 0. -1.
         11   -1    0    0    0    0 -0.00000000000E+00 -0.00000000000E+00 -0.45593999997E+02  0.45594000000E+02  0.51100000000E-03 0.  1.
    9900012    2    1    2    0    0  0.81403923421E+01 -0.38952672714E+02  0.17321853960E+02  0.47787270470E+02  0.19999997383E+02 0.  0.
        -12    1    1    2    0    0 -0.81403923421E+01  0.38952672714E+02 -0.17321853960E+02  0.43400729530E+02  0.00000000000E+00 0.  1.
         11    1    3    3    0    0 -0.51610578841E+00 -0.54548974980E+01  0.57781959500E+00  0.55096413353E+01  0.51100000000E-03 0. -1.
        -11    1    3    3    0    0 -0.37722818337E+01 -0.17281690454E+02  0.11779381076E+02  0.21251841190E+02  0.51100000000E-03 0.  1.
         12    1    3    3    0    0  0.12428779964E+02 -0.16216084762E+02  0.49646532891E+01  0.21025787945E+02  0.00000000000E+00 0. -1.
</event>
<event>
 7    1  0.4236733E-010  0.4778727E+02  0.7816164E-02  0.1312668E+00
        -11   -1    0    0    0    0  0.00000000000E+00  0.00000000000E+00  0.45593999997E+02  0.45594000000E+02  0.51100000000E-03 0.  1.
         11   -1    0    0    0    0 -0.00000000000E+00 -0.00000000000E+00 -0.45593999997E+02  0.45594000000E+02  0.51100000000E-03 0. -1.
    9900012    2    1    2    0    0  0.76344664892E+01 -0.29841512008E+01 -0.42619634099E+02  0.47787269042E+02  0.19999990870E+02 0.  0.
        -12    1    1    2    0    0 -0.76344664892E+01  0.29841512008E+01  0.42619634099E+02  0.43400730958E+02  0.00000000000E+00 0.  1.
         11    1    3    3    0    0  0.35731891438E+01  0.44984406213E+01 -0.90012347965E+01  0.10678289976E+02  0.51100000000E-03 0. -1.
        -11    1    3    3    0    0  0.12919837844E+01  0.18114183108E+00 -0.25744722505E+02  0.25777757304E+02  0.51100000000E-03 0.  1.
        -12    1    3    3    0    0  0.27692935610E+01 -0.76637336531E+01 -0.78736767970E+01  0.11331221763E+02  0.00000000000E+00 0.  1.
</event>
<event>
 7    1  0.4236733E-010  0.4778728E+02  0.7816164E-02  0.1312668E+00
        -11   -1    0    0    0    0  0.00000000000E+00  0.00000000000E+00  0.45593999997E+02  0.45594000000E+02  0.51100000000E-03 0. -1.
         11   -1    0    0    0    0 -0.00000000000E+00 -0.00000000000E+00 -0.45593999997E+02  0.45594000000E+02  0.51100000000E-03 0.  1.
    9900012    2    1    2    0    0 -0.37587794574E+01  0.33090094659E+02  0.27830558678E+02  0.47787276690E+02  0.20000025739E+02 0.  0.
        -12    1    1    2    0    0  0.37587794574E+01 -0.33090094659E+02 -0.27830558678E+02  0.43400723310E+02  0.00000000000E+00 0.  1.
         11    1    3    3    0    0 -0.15276869976E+01  0.16300773868E+02  0.19194687993E+02  0.25228656398E+02  0.51100000000E-03 0. -1.
        -11    1    3    3    0    0 -0.26806150734E+01  0.19812505226E+00  0.48346364850E+01  0.55316056360E+01  0.51100000000E-03 0.  1.
         12    1    3    3    0    0  0.44952261365E+00  0.16591195739E+02  0.38012341994E+01  0.17027014655E+02  0.00000000000E+00 0. -1.
</event>
<event>
 7    1  0.4236733E-010  0.4778728E+02  0.7816164E-02  0.1312668E+00
        -11   -1    0    0    0    0  0.00000000000E+00  0.00000000000E+00  0.45593999997E+02  0.45594000000E+02  0.51100000000E-03 0.  1.
         11   -1    0    0    0    0 -0.00000000000E+00 -0.00000000000E+00 -0.45593999997E+02  0.45594000000E+02  0.51100000000E-03 0. -1.
    9900012    2    1    2    0    0  0.43807111818E+01 -0.43170641431E+02  0.85314024856E+00  0.47787276961E+02  0.20000026978E+02 0.  0.
        -12    1    1    2    0    0 -0.43807111818E+01  0.43170641431E+02 -0.85314024856E+00  0.43400723039E+02  0.00000000000E+00 0.  1.
         11    1    3    3    0    0 -0.45785623555E+00  0.26371529320E+00 -0.76652527209E+00  0.93098836844E+00  0.51100000000E-03 0. -1.
        -11    1    3    3    0    0 -0.55758303582E+01 -0.25361328897E+02  0.11312264490E+01  0.25991663301E+02  0.51100000000E-03 0.  1.
         12    1    3    3    0    0  0.10414397776E+02 -0.18073027827E+02  0.48843907165E+00  0.20864625292E+02  0.00000000000E+00 0. -1.
</event>
<event>
 7    1  0.4236733E-010  0.4778727E+02  0.7816164E-02  0.1312668E+00
        -11   -1    0    0    0    0  0.00000000000E+00  0.00000000000E+00  0.45593999997E+02  0.45594000000E+02  0.51100000000E-03 0. -1.
         11   -1    0    0    0    0 -0.00000000000E+00 -0.00000000000E+00 -0.45593999997E+02  0.45594000000E+02  0.51100000000E-03 0.  1.
    9900012    2    1    2    0    0 -0.36318726997E+02  0.22660751734E+02 -0.71458871216E+01  0.47787270714E+02  0.19999998492E+02 0.  0.
        -12    1    1    2    0    0  0.36318726997E+02 -0.22660751734E+02  0.71458871216E+01  0.43400729286E+02  0.00000000000E+00 0.  1.
         11    1    3    3    0    0 -0.15742915420E+02  0.68965268002E+01 -0.62909462833E+01  0.18302389823E+02  0.51100000000E-03 0. -1.
        -11    1    3    3    0    0 -0.18293242853E+02  0.17250197042E+02 -0.38496883708E+01  0.25436826313E+02  0.51100000000E-03 0.  1.
         12    1    3    3    0    0 -0.22825687240E+01 -0.14859721080E+01  0.29947475325E+01  0.40480545783E+01  0.00000000000E+00 0. -1.
</event>
<event>
 7    1  0.4236733E-010  0.4778725E+02  0.7816164E-02  0.1312668E+00
        -11   -1    0    0    0    0  0.00000000000E+00  0.00000000000E+00  0.45593999997E+02  0.45594000000E+02  0.51100000000E-03 0.  1.
         11   -1    0    0    0    0 -0.00000000000E+00 -0.00000000000E+00 -0.45593999997E+02  0.45594000000E+02  0.51100000000E-03 0. -1.
    9900012    2    1    2    0    0  0.12749056682E+01 -0.37901353357E+02 -0.21106564793E+02  0.47787250605E+02  0.19999906807E+02 0.  0.
        -12    1    1    2    0    0 -0.12749056682E+01  0.37901353357E+02  0.21106564793E+02  0.43400749395E+02  0.00000000000E+00 0.  1.
         11    1    3    3    0    0 -0.23654936816E+01 -0.26979535716E+01 -0.94496326584E+01  0.10107921224E+02  0.51100000000E-03 0.  1.
        -11    1    3    3    0    0 -0.64187465012E+00 -0.62740560015E+01 -0.32228395459E+00  0.63150335696E+01  0.51100000000E-03 0. -1.
        -12    1    3    3    0    0  0.42822740000E+01 -0.28929343784E+02 -0.11334648180E+02  0.31364295811E+02  0.00000000000E+00 0.  1.
</event>
<event>
 7    1  0.4236733E-010  0.4778727E+02  0.7816164E-02  0.1312668E+00
        -11   -1    0    0    0    0  0.00000000000E+00  0.00000000000E+00  0.45593999997E+02  0.45594000000E+02  0.51100000000E-03 0.  1.
         11   -1    0    0    0    0 -0.00000000000E+00 -0.00000000000E+00 -0.45593999997E+02  0.45594000000E+02  0.51100000000E-03 0. -1.
    9900012    2    1    2    0    0 -0.27392650162E+01  0.16529574487E+02 -0.40036140856E+02  0.47787274427E+02  0.20000015424E+02 0.  0.
        -12    1    1    2    0    0  0.27392650162E+01 -0.16529574487E+02  0.40036140856E+02  0.43400725573E+02  0.00000000000E+00 0.  1.
         11    1    3    3    0    0  0.49999513743E+00  0.23069942845E+01 -0.68135111032E+01  0.72108357062E+01  0.51100000000E-03 0. -1.
        -11    1    3    3    0    0 -0.33380111608E+01 -0.24406985777E+01 -0.16340275011E+02  0.16855382397E+02  0.51100000000E-03 0.  1.
        -12    1    3    3    0    0  0.98751007223E-01  0.16663278781E+02 -0.16882354742E+02  0.23721056324E+02  0.00000000000E+00 0.  1.
</event>
<event>
 7    1  0.4236733E-010  0.4778727E+02  0.7816164E-02  0.1312668E+00
        -11   -1    0    0    0    0  0.00000000000E+00  0.00000000000E+00  0.45593999997E+02  0.45594000000E+02  0.51100000000E-03 0.  1.
         11   -1    0    0    0    0 -0.00000000000E+00 -0.00000000000E+00 -0.45593999997E+02  0.45594000000E+02  0.51100000000E-03 0. -1.
    9900012    2    1    2    0    0  0.17874752784E+02 -0.33004415636E+02 -0.21790479407E+02  0.47787271535E+02  0.20000002235E+02 0.  0.
        -12    1    1    2    0    0 -0.17874752784E+02  0.33004415636E+02  0.21790479407E+02  0.43400728465E+02  0.00000000000E+00 0.  1.
         11    1    3    3    0    0  0.76095908877E+01 -0.17425007448E+02 -0.89882320265E+01  0.21031525700E+02  0.51100000000E-03 0. -1.
        -11    1    3    3    0    0  0.13291068495E+02 -0.92090237670E+01 -0.10726770046E+02  0.19404180384E+02  0.51100000000E-03 0.  1.
         12    1    3    3    0    0 -0.30259065993E+01 -0.63703844212E+01 -0.20754773348E+01  0.73515654516E+01  0.00000000000E+00 0. -1.
</event>
<event>
 7    1  0.4236733E-010  0.4778727E+02  0.7816164E-02  0.1312668E+00
        -11   -1    0    0    0    0  0.00000000000E+00  0.00000000000E+00  0.45593999997E+02  0.45594000000E+02  0.51100000000E-03 0.  1.
         11   -1    0    0    0    0 -0.00000000000E+00 -0.00000000000E+00 -0.45593999997E+02  0.45594000000E+02  0.51100000000E-03 0. -1.
    9900012    2    1    2    0    0  0.52921499436E+01 -0.39802006121E+02 -0.16474731147E+02  0.47787270644E+02  0.19999998172E+02 0.  0.
        -12    1    1    2    0    0 -0.52921499436E+01  0.39802006121E+02  0.16474731147E+02  0.43400729356E+02  0.00000000000E+00 0.  1.
         11    1    3    3    0    0 -0.36035375595E+00 -0.29039834501E+02 -0.64715819139E+01  0.29754381449E+02  0.51100000000E-03 0. -1.
        -11    1    3    3    0    0  0.45031099143E+01 -0.10276260120E+02 -0.40154169392E+01  0.11916505126E+02  0.51100000000E-03 0.  1.
        -12    1    3    3    0    0  0.11493937852E+01 -0.48591150031E+00 -0.59877322936E+01  0.61163840690E+01  0.00000000000E+00 0.  1.
</event>
<event>
 7    1  0.4236733E-010  0.4778727E+02  0.7816164E-02  0.1312668E+00
        -11   -1    0    0    0    0  0.00000000000E+00  0.00000000000E+00  0.45593999997E+02  0.45594000000E+02  0.51100000000E-03 0.  1.
         11   -1    0    0    0    0 -0.00000000000E+00 -0.00000000000E+00 -0.45593999997E+02  0.45594000000E+02  0.51100000000E-03 0. -1.
    9900012    2    1    2    0    0 -0.16006405895E+02  0.32740445678E+02 -0.23568653550E+02  0.47787271400E+02  0.20000001621E+02 0.  0.
        -12    1    1    2    0    0  0.16006405895E+02 -0.32740445678E+02  0.23568653550E+02  0.43400728600E+02  0.00000000000E+00 0.  1.
         11    1    3    3    0    0 -0.39972635710E+01  0.51757113795E+01 -0.65754763182E+01  0.92737798881E+01  0.51100000000E-03 0. -1.
        -11    1    3    3    0    0  0.34473531994E+01  0.11546641571E+02 -0.82232589893E+01  0.14588734157E+02  0.51100000000E-03 0.  1.
        -12    1    3    3    0    0 -0.15456495524E+02  0.16018092728E+02 -0.87699182424E+01  0.23924757355E+02  0.00000000000E+00 0.  1.
</event>
<event>
 7    1  0.4236733E-010  0.4778727E+02  0.7816164E-02  0.1312668E+00
        -11   -1    0    0    0    0  0.00000000000E+00  0.00000000000E+00  0.45593999997E+02  0.45594000000E+02  0.51100000000E-03 0.  1.
         11   -1    0    0    0    0 -0.00000000000E+00 -0.00000000000E+00 -0.45593999997E+02  0.45594000000E+02  0.51100000000E-03 0. -1.
    9900012    2    1    2    0    0  0.37424689246E+02 -0.69486832950E+01 -0.20850223445E+02  0.47787269794E+02  0.19999994297E+02 0.  0.
        -12    1    1    2    0    0 -0.37424689246E+02  0.69486832950E+01  0.20850223445E+02  0.43400730206E+02  0.00000000000E+00 0.  1.
         11    1    3    3    0    0  0.11823136107E+02 -0.85505850441E+01 -0.10680206503E+02  0.18082197411E+02  0.51100000000E-03 0. -1.
        -11    1    3    3    0    0  0.15810407902E+02 -0.28759192498E+01 -0.20086801070E+01  0.16194897518E+02  0.51100000000E-03 0.  1.
        -12    1    3    3    0    0  0.97911452366E+01  0.44778209990E+01 -0.81613368348E+01  0.13510174865E+02  0.00000000000E+00 0.  1.
</event>
<event>
 7    1  0.4236733E-010  0.4778728E+02  0.7816164E-02  0.1312668E+00
        -11   -1    0    0    0    0  0.00000000000E+00  0.00000000000E+00  0.45593999997E+02  0.45594000000E+02  0.51100000000E-03 0.  1.
         11   -1    0    0    0    0 -0.00000000000E+00 -0.00000000000E+00 -0.45593999997E+02  0.45594000000E+02  0.51100000000E-03 0. -1.
    9900012    2    1    2    0    0  0.43924682039E+00  0.19194905661E+02 -0.38922814464E+02  0.47787276194E+02  0.20000023479E+02 0.  0.
        -12    1    1    2    0    0 -0.43924682039E+00 -0.19194905661E+02  0.38922814464E+02  0.43400723806E+02  0.00000000000E+00 0.  1.
         11    1    3    3    0    0  0.80371159418E+00 -0.80144913512E+00 -0.47106445286E+01  0.48454561373E+01  0.51100000000E-03 0. -1.
        -11    1    3    3    0    0 -0.24614158016E+01  0.94263312938E+01 -0.34310018845E+01  0.10328894597E+02  0.51100000000E-03 0.  1.
        -12    1    3    3    0    0  0.20969510278E+01  0.10570023502E+02 -0.30781168051E+02  0.32612925459E+02  0.00000000000E+00 0.  1.
</event>
<event>
 7    1  0.4236733E-010  0.4778727E+02  0.7816164E-02  0.1312668E+00
        -11   -1    0    0    0    0  0.00000000000E+00  0.00000000000E+00  0.45593999997E+02  0.45594000000E+02  0.51100000000E-03 0.  1.
         11   -1    0    0    0    0 -0.00000000000E+00 -0.00000000000E+00 -0.45593999997E+02  0.45594000000E+02  0.51100000000E-03 0. -1.
    9900012    2    1    2    0    0  0.45497371235E+01 -0.39032057778E+02  0.18423399327E+02  0.47787270916E+02  0.19999999416E+02 0.  0.
        -12    1    1    2    0    0 -0.45497371235E+01  0.39032057778E+02 -0.18423399327E+02  0.43400729084E+02  0.00000000000E+00 0.  1.
         11    1    3    3    0    0 -0.35131860292E+01 -0.74152361481E+01  0.10051182121E+01  0.82667082983E+01  0.51100000000E-03 0. -1.
        -11    1    3    3    0    0 -0.18643134304E+01 -0.11528013775E+02  0.11397678924E+02  0.16318022285E+02  0.51100000000E-03 0.  1.
        -12    1    3    3    0    0  0.99272365830E+01 -0.20088807854E+02  0.60206021906E+01  0.23202540333E+02  0.00000000000E+00 0.  1.
</event>
<event>
 7    1  0.4236733E-010  0.4778727E+02  0.7816164E-02  0.1312668E+00
        -11   -1    0    0    0    0  0.00000000000E+00  0.00000000000E+00  0.45593999997E+02  0.45594000000E+02  0.51100000000E-03 0.  1.
         11   -1    0    0    0    0 -0.00000000000E+00 -0.00000000000E+00 -0.45593999997E+02  0.45594000000E+02  0.51100000000E-03 0. -1.
    9900012    2    1    2    0    0  0.20865277910E+02 -0.71860607867E+01 -0.37371428314E+02  0.47787274820E+02  0.20000017216E+02 0.  0.
        -12    1    1    2    0    0 -0.20865277910E+02  0.71860607867E+01  0.37371428314E+02  0.43400725180E+02  0.00000000000E+00 0.  1.
         11    1    3    3    0    0 -0.11218949973E+00  0.38028445859E+00 -0.31875034439E+01  0.32120680596E+01  0.51100000000E-03 0. -1.
        -11    1    3    3    0    0 -0.24884531814E+01  0.19759108873E+01 -0.27324522781E+01  0.41908136183E+01  0.51100000000E-03 0.  1.
         12    1    3    3    0    0  0.23465920591E+02 -0.95422561325E+01 -0.31451472592E+02  0.40384393142E+02  0.00000000000E+00 0. -1.
</event>
<event>
 7    1  0.4236733E-010  0.4778726E+02  0.7816164E-02  0.1312668E+00
        -11   -1    0    0    0    0  0.00000000000E+00  0.00000000000E+00  0.45593999997E+02  0.45594000000E+02  0.51100000000E-03 0.  1.
         11   -1    0    0    0    0 -0.00000000000E+00 -0.00000000000E+00 -0.45593999997E+02  0.45594000000E+02  0.51100000000E-03 0. -1.
    9900012    2    1    2    0    0 -0.28150628754E+02 -0.14334077531E+02 -0.29760718498E+02  0.47787262179E+02  0.19999959577E+02 0.  0.
        -12    1    1    2    0    0  0.28150628754E+02  0.14334077531E+02  0.29760718498E+02  0.43400737821E+02  0.00000000000E+00 0.  1.
         11    1    3    3    0    0 -0.50907582664E+01 -0.23705817076E+01 -0.15397553139E+02  0.16389634538E+02  0.51100000000E-03 0. -1.
        -11    1    3    3    0    0 -0.47112757797E+01 -0.61011872860E+01 -0.80049311702E+01  0.11113034197E+02  0.51100000000E-03 0.  1.
         12    1    3    3    0    0 -0.18348594708E+02 -0.58623085375E+01 -0.63582341890E+01  0.20284593443E+02  0.00000000000E+00 0. -1.
</event>
<event>
 7    1  0.4236733E-010  0.4778727E+02  0.7816164E-02  0.1312668E+00
        -11   -1    0    0    0    0  0.00000000000E+00  0.00000000000E+00  0.45593999997E+02  0.45594000000E+02  0.51100000000E-03 0. -1.
         11   -1    0    0    0    0 -0.00000000000E+00 -0.00000000000E+00 -0.45593999997E+02  0.45594000000E+02  0.51100000000E-03 0.  1.
    9900012    2    1    2    0    0 -0.82503035314E+00 -0.43386160910E+02 -0.76411917689E+00  0.47787268304E+02  0.19999987507E+02 0.  0.
        -12    1    1    2    0    0  0.82503035314E+00  0.43386160910E+02  0.76411917689E+00  0.43400731696E+02  0.00000000000E+00 0.  1.
         11    1    3    3    0    0  0.12300087052E+01  0.12741355930E+01 -0.10204576017E+01  0.20439366189E+01  0.51100000000E-03 0. -1.
        -11    1    3    3    0    0  0.19068239762E+01 -0.68089813315E+01  0.27889099016E+01  0.76010672375E+01  0.51100000000E-03 0.  1.
         12    1    3    3    0    0 -0.39618630346E+01 -0.37851315172E+02 -0.25325714768E+01  0.38142264448E+02  0.00000000000E+00 0. -1.
</event>
<event>
 7    1  0.4236733E-010  0.4778727E+02  0.7816164E-02  0.1312668E+00
        -11   -1    0    0    0    0  0.00000000000E+00  0.00000000000E+00  0.45593999997E+02  0.45594000000E+02  0.51100000000E-03 0.  1.
         11   -1    0    0    0    0 -0.00000000000E+00 -0.00000000000E+00 -0.45593999997E+02  0.45594000000E+02  0.51100000000E-03 0. -1.
    9900012    2    1    2    0    0  0.30158859865E+02  0.12318339939E+02 -0.28676206038E+02  0.47787272818E+02  0.20000008084E+02 0.  0.
        -12    1    1    2    0    0 -0.30158859865E+02 -0.12318339939E+02  0.28676206038E+02  0.43400727182E+02  0.00000000000E+00 0.  1.
         11    1    3    3    0    0  0.12808843805E+02  0.12659152826E+02 -0.10955374250E+02  0.21079394088E+02  0.51100000000E-03 0. -1.
        -11    1    3    3    0    0  0.31648962930E+01  0.39342924300E+01 -0.32941108259E+01  0.60287968837E+01  0.51100000000E-03 0.  1.
        -12    1    3    3    0    0  0.14185119767E+02 -0.42751053168E+01 -0.14426720962E+02  0.20679081846E+02  0.00000000000E+00 0.  1.
</event>
<event>
 7    1  0.4236733E-010  0.4778727E+02  0.7816164E-02  0.1312668E+00
        -11   -1    0    0    0    0  0.00000000000E+00  0.00000000000E+00  0.45593999997E+02  0.45594000000E+02  0.51100000000E-03 0.  1.
         11   -1    0    0    0    0 -0.00000000000E+00 -0.00000000000E+00 -0.45593999997E+02  0.45594000000E+02  0.51100000000E-03 0. -1.
    9900012    2    1    2    0    0 -0.15528108958E+02  0.58159383561E+01 -0.40108300788E+02  0.47787273061E+02  0.20000009192E+02 0.  0.
        -12    1    1    2    0    0  0.15528108958E+02 -0.58159383561E+01  0.40108300788E+02  0.43400726939E+02  0.00000000000E+00 0.  1.
         11    1    3    3    0    0 -0.27668627587E+01  0.51384227903E+01 -0.16157698803E+02  0.17179352409E+02  0.51100000000E-03 0. -1.
        -11    1    3    3    0    0 -0.55281891520E+01  0.73575981970E+01 -0.11093226373E+02  0.14413701750E+02  0.51100000000E-03 0.  1.
        -12    1    3    3    0    0 -0.72330570478E+01 -0.66800826311E+01 -0.12857375611E+02  0.16194218901E+02  0.00000000000E+00 0.  1.
</event>
<event>
 7    1  0.4236733E-010  0.4778725E+02  0.7816164E-02  0.1312668E+00
        -11   -1    0    0    0    0  0.00000000000E+00  0.00000000000E+00  0.45593999997E+02  0.45594000000E+02  0.51100000000E-03 0.  1.
         11   -1    0    0    0    0 -0.00000000000E+00 -0.00000000000E+00 -0.45593999997E+02  0.45594000000E+02  0.51100000000E-03 0. -1.
    9900012    2    1    2    0    0 -0.97080682223E+01  0.21652837082E+02 -0.36339134978E+02  0.47787254922E+02  0.19999926492E+02 0.  0.
        -12    1    1    2    0    0  0.97080682223E+01 -0.21652837082E+02  0.36339134978E+02  0.43400745078E+02  0.00000000000E+00 0.  1.
         11    1    3    3    0    0 -0.38197762717E+01 -0.73662397898E+00 -0.31107973293E+01  0.49810004957E+01  0.51100000000E-03 0. -1.
        -11    1    3    3    0    0 -0.28756572103E+01  0.56479601289E+01 -0.10720003053E+01  0.64279112412E+01  0.51100000000E-03 0.  1.
         12    1    3    3    0    0 -0.30126347402E+01  0.16741500933E+02 -0.32156337344E+02  0.36378343185E+02  0.00000000000E+00 0. -1.
</event>
<event>
 7    1  0.4236733E-010  0.4778727E+02  0.7816164E-02  0.1312668E+00
        -11   -1    0    0    0    0  0.00000000000E+00  0.00000000000E+00  0.45593999997E+02  0.45594000000E+02  0.51100000000E-03 0.  1.
         11   -1    0    0    0    0 -0.00000000000E+00 -0.00000000000E+00 -0.45593999997E+02  0.45594000000E+02  0.51100000000E-03 0. -1.
    9900012    2    1    2    0    0  0.37156863776E+02  0.14122319671E+02 -0.17422722437E+02  0.47787266185E+02  0.19999977842E+02 0.  0.
        -12    1    1    2    0    0 -0.37156863776E+02 -0.14122319671E+02  0.17422722437E+02  0.43400733815E+02  0.00000000000E+00 0.  1.
         11    1    3    3    0    0  0.15487872459E+02  0.11758411751E+02 -0.10446491586E+02  0.22074048721E+02  0.51100000000E-03 0. -1.
        -11    1    3    3    0    0  0.11130879325E+02  0.68528077453E+01 -0.54329814932E+01  0.14155378367E+02  0.51100000000E-03 0.  1.
        -12    1    3    3    0    0  0.10538111992E+02 -0.44888998255E+01 -0.15432493580E+01  0.11557839097E+02  0.00000000000E+00 0.  1.
</event>
<event>
 7    1  0.4236733E-010  0.4778727E+02  0.7816164E-02  0.1312668E+00
        -11   -1    0    0    0    0  0.00000000000E+00  0.00000000000E+00  0.45593999997E+02  0.45594000000E+02  0.51100000000E-03 0. -1.
         11   -1    0    0    0    0 -0.00000000000E+00 -0.00000000000E+00 -0.45593999997E+02  0.45594000000E+02  0.51100000000E-03 0.  1.
    9900012    2    1    2    0    0  0.41477708138E+02 -0.29630777913E+00  0.12772440689E+02  0.47787270607E+02  0.19999998005E+02 0.  0.
        -12    1    1    2    0    0 -0.41477708138E+02  0.29630777913E+00 -0.12772440689E+02  0.43400729393E+02  0.00000000000E+00 0.  1.
         11    1    3    3    0    0  0.93108968420E+01 -0.36203562122E+01 -0.23665616538E+01  0.10266469375E+02  0.51100000000E-03 0.  1.
        -11    1    3    3    0    0  0.27332055048E+01 -0.29066488174E+01  0.37455736031E+00  0.40074072860E+01  0.51100000000E-03 0. -1.
         12    1    3    3    0    0  0.29433605792E+02  0.62306972504E+01  0.14764444983E+02  0.33513393946E+02  0.00000000000E+00 0. -1.
</event>
<event>
 7    1  0.4236733E-010  0.4778728E+02  0.7816164E-02  0.1312668E+00
        -11   -1    0    0    0    0  0.00000000000E+00  0.00000000000E+00  0.45593999997E+02  0.45594000000E+02  0.51100000000E-03 0. -1.
         11   -1    0    0    0    0 -0.00000000000E+00 -0.00000000000E+00 -0.45593999997E+02  0.45594000000E+02  0.51100000000E-03 0.  1.
    9900012    2    1    2    0    0 -0.28517408420E+01 -0.43188049930E+02 -0.32066849768E+01  0.47787275224E+02  0.20000019054E+02 0.  0.
        -12    1    1    2    0    0  0.28517408420E+01  0.43188049930E+02  0.32066849768E+01  0.43400724776E+02  0.00000000000E+00 0.  1.
         11    1    3    3    0    0 -0.25334459874E+01 -0.11382537938E+02  0.46856571216E+01  0.12567255126E+02  0.51100000000E-03 0. -1.
        -11    1    3    3    0    0  0.22762783195E+01 -0.79952265007E+01  0.30929911996E+01  0.88697060045E+01  0.51100000000E-03 0.  1.
         12    1    3    3    0    0 -0.25945731741E+01 -0.23810285492E+02 -0.10985333298E+02  0.26350314093E+02  0.00000000000E+00 0. -1.
</event>
<event>
 7    1  0.4236733E-010  0.4778727E+02  0.7816164E-02  0.1312668E+00
        -11   -1    0    0    0    0  0.00000000000E+00  0.00000000000E+00  0.45593999997E+02  0.45594000000E+02  0.51100000000E-03 0.  1.
         11   -1    0    0    0    0 -0.00000000000E+00 -0.00000000000E+00 -0.45593999997E+02  0.45594000000E+02  0.51100000000E-03 0. -1.
    9900012    2    1    2    0    0  0.12073330270E+02  0.15884456061E+01 -0.41657350274E+02  0.47787270800E+02  0.19999998886E+02 0.  0.
        -12    1    1    2    0    0 -0.12073330270E+02 -0.15884456061E+01  0.41657350274E+02  0.43400729200E+02  0.00000000000E+00 0.  1.
         11    1    3    3    0    0  0.94178313772E+01 -0.56077031973E+00 -0.14062751864E+02  0.16934314319E+02  0.51100000000E-03 0. -1.
        -11    1    3    3    0    0  0.39358922350E+01 -0.16083953685E+01 -0.15779840660E+01  0.45352196552E+01  0.51100000000E-03 0.  1.
         12    1    3    3    0    0 -0.12803933418E+01  0.37576112944E+01 -0.26016614343E+02  0.26317736826E+02  0.00000000000E+00 0. -1.
</event>
<event>
 7    1  0.4236733E-010  0.4778728E+02  0.7816164E-02  0.1312668E+00
        -11   -1    0    0    0    0  0.00000000000E+00  0.00000000000E+00  0.45593999997E+02  0.45594000000E+02  0.51100000000E-03 0. -1.
         11   -1    0    0    0    0 -0.00000000000E+00 -0.00000000000E+00 -0.45593999997E+02  0.45594000000E+02  0.51100000000E-03 0.  1.
    9900012    2    1    2    0    0 -0.42376257289E+01 -0.40119006245E+02  0.16004085410E+02  0.47787275539E+02  0.20000020491E+02 0.  0.
        -12    1    1    2    0    0  0.42376257289E+01  0.40119006245E+02 -0.16004085410E+02  0.43400724461E+02  0.00000000000E+00 0.  1.
         11    1    3    3    0    0  0.20228320433E+01 -0.27022821904E+02  0.73675685002E+01  0.28082126326E+02  0.51100000000E-03 0. -1.
        -11    1    3    3    0    0 -0.36867506540E+01 -0.89845018074E+01 -0.10033537138E+00  0.97120271087E+01  0.51100000000E-03 0.  1.
        -12    1    3    3    0    0 -0.25737071182E+01 -0.41116825337E+01  0.87368522815E+01  0.99931221036E+01  0.00000000000E+00 0.  1.
</event>
<event>
 7    1  0.4832295E-010  0.4778727E+02  0.7816164E-02  0.1312668E+00
        -11   -1    0    0    0    0  0.00000000000E+00  0.00000000000E+00  0.45593999997E+02  0.45594000000E+02  0.51100000000E-03 0. -1.
         11   -1    0    0    0    0 -0.00000000000E+00 -0.00000000000E+00 -0.45593999997E+02  0.45594000000E+02  0.51100000000E-03 0.  1.
    9900012    2    1    2    0    0  0.35837681254E+02  0.23455539914E+02 -0.70086659637E+01  0.47787272484E+02  0.20000006562E+02 0.  0.
        -12    1    1    2    0    0 -0.35837681254E+02 -0.23455539914E+02  0.70086659637E+01  0.43400727516E+02  0.00000000000E+00 0.  1.
         11    1    3    3    0    0  0.10857589433E+02  0.86560790194E+01 -0.49257729432E+01  0.14733573621E+02  0.51100000000E-03 0. -1.
        -11    1    3    3    0    0  0.19239123423E+01  0.82176298189E+01  0.21412165179E+01  0.87072203934E+01  0.51100000000E-03 0.  1.
        -12    1    3    3    0    0  0.23056179479E+02  0.65818310756E+01 -0.42241095384E+01  0.24346478470E+02  0.00000000000E+00 0.  1.
</event>
<event>
 7    1  0.4236733E-010  0.4778726E+02  0.7816164E-02  0.1312668E+00
        -11   -1    0    0    0    0  0.00000000000E+00  0.00000000000E+00  0.45593999997E+02  0.45594000000E+02  0.51100000000E-03 0.  1.
         11   -1    0    0    0    0 -0.00000000000E+00 -0.00000000000E+00 -0.45593999997E+02  0.45594000000E+02  0.51100000000E-03 0. -1.
    9900012    2    1    2    0    0 -0.32454129785E+02  0.21453934456E+02 -0.19237518400E+02  0.47787263164E+02  0.19999964068E+02 0.  0.
        -12    1    1    2    0    0  0.32454129785E+02 -0.21453934456E+02  0.19237518400E+02  0.43400736836E+02  0.00000000000E+00 0.  1.
         11    1    3    3    0    0 -0.17004257553E+02  0.64194102016E+01 -0.77420038350E+01  0.19755814990E+02  0.51100000000E-03 0. -1.
        -11    1    3    3    0    0 -0.15008729669E+02  0.13834560915E+02 -0.14317835303E+02  0.24933059379E+02  0.51100000000E-03 0.  1.
        -12    1    3    3    0    0 -0.44114256247E+00  0.11999633398E+01  0.28223207376E+01  0.30983887947E+01  0.00000000000E+00 0.  1.
</event>
<event>
 7    1  0.4236733E-010  0.4778727E+02  0.7816164E-02  0.1312668E+00
        -11   -1    0    0    0    0  0.00000000000E+00  0.00000000000E+00  0.45593999997E+02  0.45594000000E+02  0.51100000000E-03 0.  1.
         11   -1    0    0    0    0 -0.00000000000E+00 -0.00000000000E+00 -0.45593999997E+02  0.45594000000E+02  0.51100000000E-03 0. -1.
    9900012    2    1    2    0    0 -0.18519467957E+02 -0.60214714933E+01 -0.38786524865E+02  0.47787270473E+02  0.19999997395E+02 0.  0.
        -12    1    1    2    0    0  0.18519467957E+02  0.60214714933E+01  0.38786524865E+02  0.43400729527E+02  0.00000000000E+00 0.  1.
         11    1    3    3    0    0 -0.12823122378E+01  0.22364678575E+01 -0.12349057659E+01  0.28585145906E+01  0.51100000000E-03 0.  1.
        -11    1    3    3    0    0 -0.14228238812E+02 -0.12849568551E+02 -0.29592170798E+02  0.35259761264E+02  0.51100000000E-03 0. -1.
         12    1    3    3    0    0 -0.30089169077E+01  0.45916292000E+01 -0.79594483010E+01  0.96689946181E+01  0.00000000000E+00 0. -1.
</event>
<event>
 7    1  0.4236733E-010  0.4778727E+02  0.7816164E-02  0.1312668E+00
        -11   -1    0    0    0    0  0.00000000000E+00  0.00000000000E+00  0.45593999997E+02  0.45594000000E+02  0.51100000000E-03 0. -1.
         11   -1    0    0    0    0 -0.00000000000E+00 -0.00000000000E+00 -0.45593999997E+02  0.45594000000E+02  0.51100000000E-03 0.  1.
    9900012    2    1    2    0    0 -0.49680223814E+01 -0.40645269094E+02 -0.14384171974E+02  0.47787267870E+02  0.19999985524E+02 0.  0.
        -12    1    1    2    0    0  0.49680223814E+01  0.40645269094E+02  0.14384171974E+02  0.43400732130E+02  0.00000000000E+00 0.  1.
         11    1    3    3    0    0 -0.62828162345E+01 -0.97752471447E+01 -0.96639812213E+00  0.11660324274E+02  0.51100000000E-03 0. -1.
        -11    1    3    3    0    0 -0.52556142006E+01 -0.20702533352E+02 -0.73729734179E+01  0.22595953290E+02  0.51100000000E-03 0.  1.
        -12    1    3    3    0    0  0.65704080537E+01 -0.10167488597E+02 -0.60448004339E+01  0.13530990306E+02  0.00000000000E+00 0.  1.
</event>
<event>
 7    1  0.4236733E-010  0.4778727E+02  0.7816164E-02  0.1312668E+00
        -11   -1    0    0    0    0  0.00000000000E+00  0.00000000000E+00  0.45593999997E+02  0.45594000000E+02  0.51100000000E-03 0.  1.
         11   -1    0    0    0    0 -0.00000000000E+00 -0.00000000000E+00 -0.45593999997E+02  0.45594000000E+02  0.51100000000E-03 0. -1.
    9900012    2    1    2    0    0 -0.23689911310E+01 -0.19632209903E+02 -0.38634019596E+02  0.47787271264E+02  0.20000001003E+02 0.  0.
        -12    1    1    2    0    0  0.23689911310E+01  0.19632209903E+02  0.38634019596E+02  0.43400728736E+02  0.00000000000E+00 0.  1.
         11    1    3    3    0    0 -0.11559583658E+01 -0.20234065264E+02 -0.37723227333E+02  0.42822838738E+02  0.51100000000E-03 0. -1.
        -11    1    3    3    0    0 -0.23813477937E+01 -0.46615209717E+00 -0.19138619724E+01  0.30904664701E+01  0.51100000000E-03 0.  1.
        -12    1    3    3    0    0  0.11683150285E+01  0.10680074585E+01  0.10030697099E+01  0.18739660564E+01  0.00000000000E+00 0.  1.
</event>
<event>
 7    1  0.4236733E-010  0.4778727E+02  0.7816164E-02  0.1312668E+00
        -11   -1    0    0    0    0  0.00000000000E+00  0.00000000000E+00  0.45593999997E+02  0.45594000000E+02  0.51100000000E-03 0. -1.
         11   -1    0    0    0    0 -0.00000000000E+00 -0.00000000000E+00 -0.45593999997E+02  0.45594000000E+02  0.51100000000E-03 0.  1.
    9900012    2    1    2    0    0 -0.38017213327E+02  0.15003565986E+02  0.14601637035E+02  0.47787270679E+02  0.19999998336E+02 0.  0.
        -12    1    1    2    0    0  0.38017213327E+02 -0.15003565986E+02 -0.14601637035E+02  0.43400729321E+02  0.00000000000E+00 0.  1.
         11    1    3    3    0    0 -0.47884417178E+01  0.36975507276E+01  0.61313960554E+00  0.60808713113E+01  0.51100000000E-03 0. -1.
        -11    1    3    3    0    0 -0.48838987761E+00 -0.42257989970E+00 -0.29522156262E+01  0.30220317352E+01  0.51100000000E-03 0.  1.
         12    1    3    3    0    0 -0.32740381732E+02  0.11728595158E+02  0.16940713056E+02  0.38684367633E+02  0.00000000000E+00 0. -1.
</event>
<event>
 7    1  0.4236733E-010  0.4778727E+02  0.7816164E-02  0.1312668E+00
        -11   -1    0    0    0    0  0.00000000000E+00  0.00000000000E+00  0.45593999997E+02  0.45594000000E+02  0.51100000000E-03 0.  1.
         11   -1    0    0    0    0 -0.00000000000E+00 -0.00000000000E+00 -0.45593999997E+02  0.45594000000E+02  0.51100000000E-03 0. -1.
    9900012    2    1    2    0    0  0.32020693203E+02 -0.10896475416E+02 -0.27194957198E+02  0.47787266519E+02  0.19999979367E+02 0.  0.
        -12    1    1    2    0    0 -0.32020693203E+02  0.10896475416E+02  0.27194957198E+02  0.43400733481E+02  0.00000000000E+00 0.  1.
         11    1    3    3    0    0  0.15473384525E+02 -0.80152512358E+01 -0.80294138690E+01  0.19187010407E+02  0.51100000000E-03 0. -1.
        -11    1    3    3    0    0  0.69378678105E+01 -0.43343378044E+01 -0.13289008007E+01  0.82877301813E+01  0.51100000000E-03 0.  1.
        -12    1    3    3    0    0  0.96094408675E+01  0.14531136243E+01 -0.17836642529E+02  0.20312525931E+02  0.00000000000E+00 0.  1.
</event>
<event>
 7    1  0.4236733E-010  0.4778727E+02  0.7816164E-02  0.1312668E+00
        -11   -1    0    0    0    0  0.00000000000E+00  0.00000000000E+00  0.45593999997E+02  0.45594000000E+02  0.51100000000E-03 0.  1.
         11   -1    0    0    0    0 -0.00000000000E+00 -0.00000000000E+00 -0.45593999997E+02  0.45594000000E+02  0.51100000000E-03 0. -1.
    9900012    2    1    2    0    0  0.24355270095E+02 -0.23192910749E+02 -0.27432333585E+02  0.47787271708E+02  0.20000003024E+02 0.  0.
        -12    1    1    2    0    0 -0.24355270095E+02  0.23192910749E+02  0.27432333585E+02  0.43400728292E+02  0.00000000000E+00 0.  1.
         11    1    3    3    0    0  0.14031776656E+02 -0.10930125358E+02 -0.14210202574E+02  0.22765945048E+02  0.51100000000E-03 0. -1.
        -11    1    3    3    0    0  0.12361054591E+02 -0.45059553233E+01 -0.72503325041E+01  0.15022204421E+02  0.51100000000E-03 0.  1.
         12    1    3    3    0    0 -0.20375611523E+01 -0.77568300670E+01 -0.59717985067E+01  0.99991222386E+01  0.00000000000E+00 0. -1.
</event>
<event>
 7    1  0.4236733E-010  0.4778727E+02  0.7816164E-02  0.1312668E+00
        -11   -1    0    0    0    0  0.00000000000E+00  0.00000000000E+00  0.45593999997E+02  0.45594000000E+02  0.51100000000E-03 0.  1.
         11   -1    0    0    0    0 -0.00000000000E+00 -0.00000000000E+00 -0.45593999997E+02  0.45594000000E+02  0.51100000000E-03 0. -1.
    9900012    2    1    2    0    0 -0.38110017023E+02 -0.20182312137E+02 -0.48912440669E+01  0.47787269715E+02  0.19999993941E+02 0.  0.
        -12    1    1    2    0    0  0.38110017023E+02  0.20182312137E+02  0.48912440669E+01  0.43400730285E+02  0.00000000000E+00 0.  1.
         11    1    3    3    0    0 -0.12945844377E+02 -0.11758277062E+02 -0.46472789550E+01  0.18095556583E+02  0.51100000000E-03 0. -1.
        -11    1    3    3    0    0  0.53907909493E+00  0.12302698981E+01 -0.17356190612E+01  0.21946626345E+01  0.51100000000E-03 0.  1.
        -12    1    3    3    0    0 -0.25703251741E+02 -0.96543049732E+01  0.14916539492E+01  0.27497050498E+02  0.00000000000E+00 0.  1.
</event>
<event>
 7    1  0.4236733E-010  0.4778727E+02  0.7816164E-02  0.1312668E+00
        -11   -1    0    0    0    0  0.00000000000E+00  0.00000000000E+00  0.45593999997E+02  0.45594000000E+02  0.51100000000E-03 0.  1.
         11   -1    0    0    0    0 -0.00000000000E+00 -0.00000000000E+00 -0.45593999997E+02  0.45594000000E+02  0.51100000000E-03 0. -1.
    9900012    2    1    2    0    0  0.20355796408E+02 -0.28026508064E+01 -0.38228392469E+02  0.47787270862E+02  0.19999999168E+02 0.  0.
        -12    1    1    2    0    0 -0.20355796408E+02  0.28026508064E+01  0.38228392469E+02  0.43400729138E+02  0.00000000000E+00 0.  1.
         11    1    3    3    0    0  0.78064692124E+01  0.49608827217E+01 -0.13151048051E+02  0.16077978232E+02  0.51100000000E-03 0. -1.
        -11    1    3    3    0    0  0.10629554814E+02 -0.87537523255E+01 -0.11440806303E+02  0.17902727850E+02  0.51100000000E-03 0.  1.
         12    1    3    3    0    0  0.19197723817E+01  0.99021879745E+00 -0.13636538115E+02  0.13806564780E+02  0.00000000000E+00 0. -1.
</event>
<event>
 7    1  0.4236733E-010  0.4778727E+02  0.7816164E-02  0.1312668E+00
        -11   -1    0    0    0    0  0.00000000000E+00  0.00000000000E+00  0.45593999997E+02  0.45594000000E+02  0.51100000000E-03 0.  1.
         11   -1    0    0    0    0 -0.00000000000E+00 -0.00000000000E+00 -0.45593999997E+02  0.45594000000E+02  0.51100000000E-03 0. -1.
    9900012    2    1    2    0    0  0.40773443021E+00 -0.39196745730E+02 -0.18629879574E+02  0.47787268023E+02  0.19999986226E+02 0.  0.
        -12    1    1    2    0    0 -0.40773443021E+00  0.39196745730E+02  0.18629879574E+02  0.43400731977E+02  0.00000000000E+00 0.  1.
         11    1    3    3    0    0  0.36141887878E+01  0.69190840450E+00 -0.10180200981E+01  0.38180443967E+01  0.51100000000E-03 0.  1.
        -11    1    3    3    0    0  0.49175633272E+00 -0.49807097162E+01 -0.36351789582E+01  0.61857756092E+01  0.51100000000E-03 0. -1.
        -12    1    3    3    0    0 -0.36982106903E+01 -0.34907944418E+02 -0.13976680518E+02  0.37783448017E+02  0.00000000000E+00 0.  1.
</event>
<event>
 7    1  0.4236733E-010  0.4778728E+02  0.7816164E-02  0.1312668E+00
        -11   -1    0    0    0    0  0.00000000000E+00  0.00000000000E+00  0.45593999997E+02  0.45594000000E+02  0.51100000000E-03 0. -1.
         11   -1    0    0    0    0 -0.00000000000E+00 -0.00000000000E+00 -0.45593999997E+02  0.45594000000E+02  0.51100000000E-03 0.  1.
    9900012    2    1    2    0    0 -0.14468954249E+02  0.91862655364E+01  0.39873358928E+02  0.47787275769E+02  0.20000021540E+02 0.  0.
        -12    1    1    2    0    0  0.14468954249E+02 -0.91862655364E+01 -0.39873358928E+02  0.43400724231E+02  0.00000000000E+00 0.  1.
         11    1    3    3    0    0 -0.80641902162E+01  0.23602932861E+01  0.77485740250E+01  0.11429897109E+02  0.51100000000E-03 0. -1.
        -11    1    3    3    0    0 -0.60278045234E+01  0.94234581078E+01  0.13427030798E+02  0.17476302423E+02  0.51100000000E-03 0.  1.
        -12    1    3    3    0    0 -0.37695950942E+00 -0.25974858576E+01  0.18697754106E+02  0.18881076237E+02  0.00000000000E+00 0.  1.
</event>
<event>
 7    1  0.4236733E-010  0.4778727E+02  0.7816164E-02  0.1312668E+00
        -11   -1    0    0    0    0  0.00000000000E+00  0.00000000000E+00  0.45593999997E+02  0.45594000000E+02  0.51100000000E-03 0. -1.
         11   -1    0    0    0    0 -0.00000000000E+00 -0.00000000000E+00 -0.45593999997E+02  0.45594000000E+02  0.51100000000E-03 0.  1.
    9900012    2    1    2    0    0 -0.26127611728E+02  0.30312903875E+02  0.16795797498E+02  0.47787273629E+02  0.20000011784E+02 0.  0.
        -12    1    1    2    0    0  0.26127611728E+02 -0.30312903875E+02 -0.16795797498E+02  0.43400726371E+02  0.00000000000E+00 0.  1.
         11    1    3    3    0    0 -0.26188822222E+01  0.10953687204E+02  0.10702168347E+01  0.11313141552E+02  0.51100000000E-03 0. -1.
        -11    1    3    3    0    0 -0.29831634623E+01 -0.11402287812E+01 -0.50484056092E+00  0.32333032907E+01  0.51100000000E-03 0.  1.
         12    1    3    3    0    0 -0.20525566043E+02  0.20499445453E+02  0.16230421224E+02  0.33240828786E+02  0.00000000000E+00 0. -1.
</event>
<event>
 7    1  0.4236733E-010  0.4778727E+02  0.7816164E-02  0.1312668E+00
        -11   -1    0    0    0    0  0.00000000000E+00  0.00000000000E+00  0.45593999997E+02  0.45594000000E+02  0.51100000000E-03 0. -1.
         11   -1    0    0    0    0 -0.00000000000E+00 -0.00000000000E+00 -0.45593999997E+02  0.45594000000E+02  0.51100000000E-03 0.  1.
    9900012    2    1    2    0    0 -0.21139197862E+02  0.27546708156E+02  0.26037210609E+02  0.47787272439E+02  0.20000006359E+02 0.  0.
        -12    1    1    2    0    0  0.21139197862E+02 -0.27546708156E+02 -0.26037210609E+02  0.43400727561E+02  0.00000000000E+00 0.  1.
         11    1    3    3    0    0  0.69986365839E+00  0.37345144365E+00  0.10865431613E+01  0.13453071856E+01  0.51100000000E-03 0. -1.
        -11    1    3    3    0    0 -0.21900863743E+02  0.28781062785E+02  0.25981314956E+02  0.44531181601E+02  0.51100000000E-03 0.  1.
        -12    1    3    3    0    0  0.61802222194E-01 -0.16078060723E+01 -0.10306475078E+01  0.19107836524E+01  0.00000000000E+00 0.  1.
</event>
<event>
 7    1  0.4236733E-010  0.4778728E+02  0.7816164E-02  0.1312668E+00
        -11   -1    0    0    0    0  0.00000000000E+00  0.00000000000E+00  0.45593999997E+02  0.45594000000E+02  0.51100000000E-03 0.  1.
         11   -1    0    0    0    0 -0.00000000000E+00 -0.00000000000E+00 -0.45593999997E+02  0.45594000000E+02  0.51100000000E-03 0. -1.
    9900012    2    1    2    0    0  0.26058321117E+02 -0.27711486947E+02 -0.20896402426E+02  0.47787282925E+02  0.20000054167E+02 0.  0.
        -12    1    1    2    0    0 -0.26058321117E+02  0.27711486947E+02  0.20896402426E+02  0.43400717075E+02  0.00000000000E+00 0.  1.
         11    1    3    3    0    0  0.67284113888E+01 -0.12344571740E+02 -0.53255068223E+01  0.15033994627E+02  0.51100000000E-03 0.  1.
        -11    1    3    3    0    0 -0.12406437757E+00 -0.78023499609E+01 -0.57035702199E+01  0.96655455302E+01  0.51100000000E-03 0. -1.
         12    1    3    3    0    0  0.19453974106E+02 -0.75645652468E+01 -0.98673253836E+01  0.23087742768E+02  0.00000000000E+00 0. -1.
</event>
<event>
 7    1  0.4236733E-010  0.4778727E+02  0.7816164E-02  0.1312668E+00
        -11   -1    0    0    0    0  0.00000000000E+00  0.00000000000E+00  0.45593999997E+02  0.45594000000E+02  0.51100000000E-03 0.  1.
         11   -1    0    0    0    0 -0.00000000000E+00 -0.00000000000E+00 -0.45593999997E+02  0.45594000000E+02  0.51100000000E-03 0. -1.
    9900012    2    1    2    0    0 -0.38666821747E+02  0.27797437154E+01 -0.19513410415E+02  0.47787271145E+02  0.20000000460E+02 0.  0.
        -12    1    1    2    0    0  0.38666821747E+02 -0.27797437154E+01  0.19513410415E+02  0.43400728855E+02  0.00000000000E+00 0.  1.
         11    1    3    3    0    0 -0.10037351862E+02  0.36086883365E+01  0.43557984529E+00  0.10675242104E+02  0.51100000000E-03 0. -1.
        -11    1    3    3    0    0 -0.10849013267E+01  0.28108875086E+01 -0.42184593212E+01  0.51839655458E+01  0.51100000000E-03 0.  1.
         12    1    3    3    0    0 -0.27544568558E+02 -0.36398321298E+01 -0.15730530939E+02  0.31928063496E+02  0.00000000000E+00 0. -1.
</event>
<event>
 7    1  0.4236733E-010  0.4778727E+02  0.7816164E-02  0.1312668E+00
        -11   -1    0    0    0    0  0.00000000000E+00  0.00000000000E+00  0.45593999997E+02  0.45594000000E+02  0.51100000000E-03 0.  1.
         11   -1    0    0    0    0 -0.00000000000E+00 -0.00000000000E+00 -0.45593999997E+02  0.45594000000E+02  0.51100000000E-03 0. -1.
    9900012    2    1    2    0    0 -0.80137029222E+01 -0.26187302974E+02 -0.33669403018E+02  0.47787274532E+02  0.20000015903E+02 0.  0.
        -12    1    1    2    0    0  0.80137029222E+01  0.26187302974E+02  0.33669403018E+02  0.43400725468E+02  0.00000000000E+00 0.  1.
         11    1    3    3    0    0 -0.77401136286E+01 -0.91888018357E+01 -0.20483859452E+02  0.23747251135E+02  0.51100000000E-03 0. -1.
        -11    1    3    3    0    0 -0.31527305072E+01 -0.89310404784E+00 -0.43495375080E+01  0.54457158654E+01  0.51100000000E-03 0.  1.
         12    1    3    3    0    0  0.28791412136E+01 -0.16105397090E+02 -0.88360060578E+01  0.18594307532E+02  0.00000000000E+00 0. -1.
</event>
<event>
 7    1  0.4236733E-010  0.4778727E+02  0.7816164E-02  0.1312668E+00
        -11   -1    0    0    0    0  0.00000000000E+00  0.00000000000E+00  0.45593999997E+02  0.45594000000E+02  0.51100000000E-03 0.  1.
         11   -1    0    0    0    0 -0.00000000000E+00 -0.00000000000E+00 -0.45593999997E+02  0.45594000000E+02  0.51100000000E-03 0. -1.
    9900012    2    1    2    0    0  0.42956535355E+02 -0.50454234411E+01  0.35920918402E+01  0.47787270154E+02  0.19999995940E+02 0.  0.
        -12    1    1    2    0    0 -0.42956535355E+02  0.50454234411E+01 -0.35920918402E+01  0.43400729846E+02  0.00000000000E+00 0.  1.
         11    1    3    3    0    0  0.24834833166E+02  0.82174024845E+00  0.64237052232E+01  0.25665310918E+02  0.51100000000E-03 0. -1.
        -11    1    3    3    0    0  0.19147320932E+02 -0.46869353827E+01 -0.10343489705E+01  0.19739735059E+02  0.51100000000E-03 0.  1.
        -12    1    3    3    0    0 -0.10256187433E+01 -0.11802283069E+01 -0.17972644125E+01  0.23822241774E+01  0.00000000000E+00 0.  1.
</event>
<event>
 7    1  0.4236733E-010  0.4778727E+02  0.7816164E-02  0.1312668E+00
        -11   -1    0    0    0    0  0.00000000000E+00  0.00000000000E+00  0.45593999997E+02  0.45594000000E+02  0.51100000000E-03 0. -1.
         11   -1    0    0    0    0 -0.00000000000E+00 -0.00000000000E+00 -0.45593999997E+02  0.45594000000E+02  0.51100000000E-03 0.  1.
    9900012    2    1    2    0    0 -0.16362417854E+02 -0.40196292535E+02  0.39044092436E+00  0.47787273097E+02  0.20000009361E+02 0.  0.
        -12    1    1    2    0    0  0.16362417854E+02  0.40196292535E+02 -0.39044092436E+00  0.43400726903E+02  0.00000000000E+00 0.  1.
         11    1    3    3    0    0 -0.97136192195E+01 -0.11176200095E+02  0.43109594458E+01  0.15422263728E+02  0.51100000000E-03 0. -1.
        -11    1    3    3    0    0 -0.42526793404E+01 -0.17459351010E+01 -0.16792213062E+01  0.48942165262E+01  0.51100000000E-03 0.  1.
        -12    1    3    3    0    0 -0.23961192937E+01 -0.27274157339E+02 -0.22412972153E+01  0.27470792843E+02  0.00000000000E+00 0.  1.
</event>
<event>
 7    1  0.4236733E-010  0.4778727E+02  0.7816164E-02  0.1312668E+00
        -11   -1    0    0    0    0  0.00000000000E+00  0.00000000000E+00  0.45593999997E+02  0.45594000000E+02  0.51100000000E-03 0.  1.
         11   -1    0    0    0    0 -0.00000000000E+00 -0.00000000000E+00 -0.45593999997E+02  0.45594000000E+02  0.51100000000E-03 0. -1.
    9900012    2    1    2    0    0 -0.35159380462E+02  0.24067683379E+02 -0.82576163459E+01  0.47787266764E+02  0.19999980482E+02 0.  0.
        -12    1    1    2    0    0  0.35159380462E+02 -0.24067683379E+02  0.82576163459E+01  0.43400733236E+02  0.00000000000E+00 0.  1.
         11    1    3    3    0    0 -0.73986454072E+00 -0.86620744302E+00 -0.31827192470E+00  0.11827984410E+01  0.51100000000E-03 0. -1.
        -11    1    3    3    0    0 -0.16392234381E+02  0.17962216208E+02 -0.11583467841E+02  0.26935539471E+02  0.51100000000E-03 0.  1.
        -12    1    3    3    0    0 -0.18027281541E+02  0.69716746145E+01  0.36441234197E+01  0.19668928852E+02  0.00000000000E+00 0.  1.
</event>
<event>
 7    1  0.4236733E-010  0.4778727E+02  0.7816164E-02  0.1312668E+00
        -11   -1    0    0    0    0  0.00000000000E+00  0.00000000000E+00  0.45593999997E+02  0.45594000000E+02  0.51100000000E-03 0.  1.
         11   -1    0    0    0    0 -0.00000000000E+00 -0.00000000000E+00 -0.45593999997E+02  0.45594000000E+02  0.51100000000E-03 0. -1.
    9900012    2    1    2    0    0  0.33862409035E+02 -0.11935094701E+02 -0.24382666094E+02  0.47787266861E+02  0.19999980924E+02 0.  0.
        -12    1    1    2    0    0 -0.33862409035E+02  0.11935094701E+02  0.24382666094E+02  0.43400733139E+02  0.00000000000E+00 0.  1.
         11    1    3    3    0    0  0.46978043060E+01 -0.28974677741E+01  0.79526274209E-01  0.55200552070E+01  0.51100000000E-03 0. -1.
        -11    1    3    3    0    0  0.34825780919E+01 -0.80281398234E+01 -0.56537355034E+01  0.10418450201E+02  0.51100000000E-03 0.  1.
         12    1    3    3    0    0  0.25682026638E+02 -0.10094871036E+01 -0.18808456864E+02  0.31848761452E+02  0.00000000000E+00 0. -1.
</event>
<event>
 7    1  0.4236733E-010  0.4778727E+02  0.7816164E-02  0.1312668E+00
        -11   -1    0    0    0    0  0.00000000000E+00  0.00000000000E+00  0.45593999997E+02  0.45594000000E+02  0.51100000000E-03 0.  1.
         11   -1    0    0    0    0 -0.00000000000E+00 -0.00000000000E+00 -0.45593999997E+02  0.45594000000E+02  0.51100000000E-03 0. -1.
    9900012    2    1    2    0    0  0.27628820647E+02  0.32939644301E+02 -0.59372591631E+01  0.47787274852E+02  0.20000017359E+02 0.  0.
        -12    1    1    2    0    0 -0.27628820647E+02 -0.32939644301E+02  0.59372591631E+01  0.43400725148E+02  0.00000000000E+00 0.  1.
         11    1    3    3    0    0  0.78022190207E+01  0.21088761509E+02 -0.70347976901E+01  0.23560536124E+02  0.51100000000E-03 0. -1.
        -11    1    3    3    0    0  0.77368649441E+01  0.49183295095E+01 -0.30904724182E+01  0.96747126239E+01  0.51100000000E-03 0.  1.
         12    1    3    3    0    0  0.12089736682E+02  0.69325532823E+01  0.41880109451E+01  0.14552026104E+02  0.00000000000E+00 0. -1.
</event>
<event>
 7    1  0.4236733E-010  0.4778727E+02  0.7816164E-02  0.1312668E+00
        -11   -1    0    0    0    0  0.00000000000E+00  0.00000000000E+00  0.45593999997E+02  0.45594000000E+02  0.51100000000E-03 0.  1.
         11   -1    0    0    0    0 -0.00000000000E+00 -0.00000000000E+00 -0.45593999997E+02  0.45594000000E+02  0.51100000000E-03 0. -1.
    9900012    2    1    2    0    0  0.82616737506E+01  0.14358405371E+02 -0.40114884222E+02  0.47787274268E+02  0.20000014698E+02 0.  0.
        -12    1    1    2    0    0 -0.82616737506E+01 -0.14358405371E+02  0.40114884222E+02  0.43400725732E+02  0.00000000000E+00 0.  1.
         11    1    3    3    0    0  0.94888958572E+01  0.95938344517E+01 -0.23918536341E+02  0.27462286595E+02  0.51100000000E-03 0.  1.
        -11    1    3    3    0    0  0.14584789560E+01  0.60467761350E+01 -0.16195493167E+02  0.17348909524E+02  0.51100000000E-03 0. -1.
        -12    1    3    3    0    0 -0.26857010626E+01 -0.12822052162E+01 -0.85471304899E-03  0.29760781483E+01  0.00000000000E+00 0.  1.
</event>
<event>
 7    1  0.4236733E-010  0.4778727E+02  0.7816164E-02  0.1312668E+00
        -11   -1    0    0    0    0  0.00000000000E+00  0.00000000000E+00  0.45593999997E+02  0.45594000000E+02  0.51100000000E-03 0. -1.
         11   -1    0    0    0    0 -0.00000000000E+00 -0.00000000000E+00 -0.45593999997E+02  0.45594000000E+02  0.51100000000E-03 0.  1.
    9900012    2    1    2    0    0  0.38429108269E+02 -0.20132268618E+02  0.12323839718E+01  0.47787269910E+02  0.19999994828E+02 0.  0.
        -12    1    1    2    0    0 -0.38429108269E+02  0.20132268618E+02 -0.12323839718E+01  0.43400730090E+02  0.00000000000E+00 0.  1.
         11    1    3    3    0    0  0.14852685965E+02 -0.61397598583E+01  0.58786909988E+01  0.17113092638E+02  0.51100000000E-03 0. -1.
        -11    1    3    3    0    0  0.15267494820E+02 -0.15681590403E+01 -0.17218499602E+01  0.15444102059E+02  0.51100000000E-03 0.  1.
         12    1    3    3    0    0  0.83089274841E+01 -0.12424349719E+02 -0.29244570668E+01  0.15230075214E+02  0.00000000000E+00 0. -1.
</event>
<event>
 7    1  0.4236733E-010  0.4778727E+02  0.7816164E-02  0.1312668E+00
        -11   -1    0    0    0    0  0.00000000000E+00  0.00000000000E+00  0.45593999997E+02  0.45594000000E+02  0.51100000000E-03 0.  1.
         11   -1    0    0    0    0 -0.00000000000E+00 -0.00000000000E+00 -0.45593999997E+02  0.45594000000E+02  0.51100000000E-03 0. -1.
    9900012    2    1    2    0    0  0.34428328610E+02  0.87379288698E+01 -0.24939160780E+02  0.47787274749E+02  0.20000016892E+02 0.  0.
        -12    1    1    2    0    0 -0.34428328610E+02 -0.87379288698E+01  0.24939160780E+02  0.43400725251E+02  0.00000000000E+00 0.  1.
         11    1    3    3    0    0  0.17851421283E+02  0.20854863459E+01 -0.14874416934E+02  0.23329611538E+02  0.51100000000E-03 0. -1.
        -11    1    3    3    0    0  0.84292849427E+01 -0.36162462347E+01 -0.37811938544E+01  0.99210638896E+01  0.51100000000E-03 0.  1.
        -12    1    3    3    0    0  0.81476223845E+01  0.10268688759E+02 -0.62835499925E+01  0.14536599322E+02  0.00000000000E+00 0.  1.
</event>
<event>
 7    1  0.4236733E-010  0.4778727E+02  0.7816164E-02  0.1312668E+00
        -11   -1    0    0    0    0  0.00000000000E+00  0.00000000000E+00  0.45593999997E+02  0.45594000000E+02  0.51100000000E-03 0. -1.
         11   -1    0    0    0    0 -0.00000000000E+00 -0.00000000000E+00 -0.45593999997E+02  0.45594000000E+02  0.51100000000E-03 0.  1.
    9900012    2    1    2    0    0 -0.28143375851E+02 -0.26862985891E+02  0.19234185444E+02  0.47787268382E+02  0.19999987861E+02 0.  0.
        -12    1    1    2    0    0  0.28143375851E+02  0.26862985891E+02 -0.19234185444E+02  0.43400731618E+02  0.00000000000E+00 0.  1.
         11    1    3    3    0    0 -0.58722510219E+00 -0.55849008876E+01  0.38012277474E+01  0.67812450106E+01  0.51100000000E-03 0.  1.
        -11    1    3    3    0    0 -0.18364254334E+02 -0.11923789461E+02  0.17105365363E+02  0.27785178006E+02  0.51100000000E-03 0. -1.
         12    1    3    3    0    0 -0.91918964148E+01 -0.93542955417E+01 -0.16724076656E+01  0.13220845366E+02  0.00000000000E+00 0. -1.
</event>
<event>
 7    1  0.4236733E-010  0.4778727E+02  0.7816164E-02  0.1312668E+00
        -11   -1    0    0    0    0  0.00000000000E+00  0.00000000000E+00  0.45593999997E+02  0.45594000000E+02  0.51100000000E-03 0. -1.
         11   -1    0    0    0    0 -0.00000000000E+00 -0.00000000000E+00 -0.45593999997E+02  0.45594000000E+02  0.51100000000E-03 0.  1.
    9900012    2    1    2    0    0  0.15264562800E+02 -0.38068859887E+02  0.14190770890E+02  0.47787274787E+02  0.20000017062E+02 0.  0.
        -12    1    1    2    0    0 -0.15264562800E+02  0.38068859887E+02 -0.14190770890E+02  0.43400725213E+02  0.00000000000E+00 0.  1.
         11    1    3    3    0    0  0.11634250221E+01 -0.22264660713E+02  0.41338627174E+01  0.22675041250E+02  0.51100000000E-03 0. -1.
        -11    1    3    3    0    0 -0.66971747141E+00  0.38934692069E+00  0.12920232353E+01  0.15064650072E+01  0.51100000000E-03 0.  1.
        -12    1    3    3    0    0  0.14770855249E+02 -0.16193546095E+02  0.87648849369E+01  0.23605768530E+02  0.00000000000E+00 0.  1.
</event>
<event>
 7    1  0.4236733E-010  0.4778727E+02  0.7816164E-02  0.1312668E+00
        -11   -1    0    0    0    0  0.00000000000E+00  0.00000000000E+00  0.45593999997E+02  0.45594000000E+02  0.51100000000E-03 0.  1.
         11   -1    0    0    0    0 -0.00000000000E+00 -0.00000000000E+00 -0.45593999997E+02  0.45594000000E+02  0.51100000000E-03 0. -1.
    9900012    2    1    2    0    0 -0.92162690409E+01  0.26089596760E+02 -0.33436750869E+02  0.47787274398E+02  0.20000015288E+02 0.  0.
        -12    1    1    2    0    0  0.92162690409E+01 -0.26089596760E+02  0.33436750869E+02  0.43400725602E+02  0.00000000000E+00 0.  1.
         11    1    3    3    0    0 -0.12583375533E+01  0.68841873920E+01 -0.13166481617E+02  0.14910790988E+02  0.51100000000E-03 0. -1.
        -11    1    3    3    0    0  0.34972025430E+01  0.30586218263E+01 -0.89167101677E+01  0.10054517073E+02  0.51100000000E-03 0.  1.
         12    1    3    3    0    0 -0.11455134031E+02  0.16146787542E+02 -0.11353559084E+02  0.22821966336E+02  0.00000000000E+00 0. -1.
</event>
<event>
 7    1  0.4236733E-010  0.4778727E+02  0.7816164E-02  0.1312668E+00
        -11   -1    0    0    0    0  0.00000000000E+00  0.00000000000E+00  0.45593999997E+02  0.45594000000E+02  0.51100000000E-03 0.  1.
         11   -1    0    0    0    0 -0.00000000000E+00 -0.00000000000E+00 -0.45593999997E+02  0.45594000000E+02  0.51100000000E-03 0. -1.
    9900012    2    1    2    0    0 -0.59594169125E+01  0.40214723950E+02 -0.15194883739E+02  0.47787272308E+02  0.20000005762E+02 0.  0.
        -12    1    1    2    0    0  0.59594169125E+01 -0.40214723950E+02  0.15194883739E+02  0.43400727692E+02  0.00000000000E+00 0.  1.
         11    1    3    3    0    0 -0.35444225491E+01  0.35630324342E+01  0.14070804903E+01  0.52190044167E+01  0.51100000000E-03 0. -1.
        -11    1    3    3    0    0  0.53064915030E+01  0.86598091483E+01 -0.45584090819E+01  0.11132395976E+02  0.51100000000E-03 0.  1.
         12    1    3    3    0    0 -0.77214858664E+01  0.27991882368E+02 -0.12043555148E+02  0.31435871915E+02  0.00000000000E+00 0. -1.
</event>
<event>
 7    1  0.4236733E-010  0.4778727E+02  0.7816164E-02  0.1312668E+00
        -11   -1    0    0    0    0  0.00000000000E+00  0.00000000000E+00  0.45593999997E+02  0.45594000000E+02  0.51100000000E-03 0.  1.
         11   -1    0    0    0    0 -0.00000000000E+00 -0.00000000000E+00 -0.45593999997E+02  0.45594000000E+02  0.51100000000E-03 0. -1.
    9900012    2    1    2    0    0  0.15186567940E+02 -0.65226190048E+01 -0.40130374919E+02  0.47787269642E+02  0.19999993604E+02 0.  0.
        -12    1    1    2    0    0 -0.15186567940E+02  0.65226190048E+01  0.40130374919E+02  0.43400730358E+02  0.00000000000E+00 0.  1.
         11    1    3    3    0    0 -0.25958393437E+01 -0.32704001542E+01 -0.11290983951E+02  0.12038281352E+02  0.51100000000E-03 0. -1.
        -11    1    3    3    0    0  0.81034188910E+01 -0.44506636191E+00 -0.22311458248E+02  0.23741622758E+02  0.51100000000E-03 0.  1.
        -12    1    3    3    0    0  0.96789883932E+01 -0.28071524887E+01 -0.65279327208E+01  0.12007365532E+02  0.00000000000E+00 0.  1.
</event>
<event>
 7    1  0.4236733E-010  0.4778727E+02  0.7816164E-02  0.1312668E+00
        -11   -1    0    0    0    0  0.00000000000E+00  0.00000000000E+00  0.45593999997E+02  0.45594000000E+02  0.51100000000E-03 0. -1.
         11   -1    0    0    0    0 -0.00000000000E+00 -0.00000000000E+00 -0.45593999997E+02  0.45594000000E+02  0.51100000000E-03 0.  1.
    9900012    2    1    2    0    0 -0.30990778893E+02  0.28313725712E+02 -0.11023954964E+02  0.47787273933E+02  0.20000013169E+02 0.  0.
        -12    1    1    2    0    0  0.30990778893E+02 -0.28313725712E+02  0.11023954964E+02  0.43400726067E+02  0.00000000000E+00 0.  1.
         11    1    3    3    0    0 -0.17419731244E+02  0.19338471719E+02 -0.10126203805E+02  0.27927827141E+02  0.51100000000E-03 0. -1.
        -11    1    3    3    0    0 -0.11052443888E+02  0.96025914933E+01 -0.45920622752E+01  0.15344488114E+02  0.51100000000E-03 0.  1.
        -12    1    3    3    0    0 -0.25186037607E+01 -0.62733749984E+00  0.36943111158E+01  0.45149586778E+01  0.00000000000E+00 0.  1.
</event>
<event>
 7    1  0.4236733E-010  0.4778727E+02  0.7816164E-02  0.1312668E+00
        -11   -1    0    0    0    0  0.00000000000E+00  0.00000000000E+00  0.45593999997E+02  0.45594000000E+02  0.51100000000E-03 0. -1.
         11   -1    0    0    0    0 -0.00000000000E+00 -0.00000000000E+00 -0.45593999997E+02  0.45594000000E+02  0.51100000000E-03 0.  1.
    9900012    2    1    2    0    0 -0.34030329432E+02 -0.11695926991E+02  0.24264484714E+02  0.47787271344E+02  0.20000001364E+02 0.  0.
        -12    1    1    2    0    0  0.34030329432E+02  0.11695926991E+02 -0.24264484714E+02  0.43400728656E+02  0.00000000000E+00 0.  1.
         11    1    3    3    0    0 -0.22252438696E+02  0.70349480245E+00  0.91896594064E+01  0.24085592646E+02  0.51100000000E-03 0.  1.
        -11    1    3    3    0    0 -0.89091767369E+01 -0.47964938365E+01  0.91862779852E+01  0.13666290160E+02  0.51100000000E-03 0. -1.
        -12    1    3    3    0    0 -0.28687139999E+01 -0.76029279570E+01  0.58885473227E+01  0.10035388538E+02  0.00000000000E+00 0.  1.
</event>
<event>
 7    1  0.4236733E-010  0.4778727E+02  0.7816164E-02  0.1312668E+00
        -11   -1    0    0    0    0  0.00000000000E+00  0.00000000000E+00  0.45593999997E+02  0.45594000000E+02  0.51100000000E-03 0. -1.
         11   -1    0    0    0    0 -0.00000000000E+00 -0.00000000000E+00 -0.45593999997E+02  0.45594000000E+02  0.51100000000E-03 0.  1.
    9900012    2    1    2    0    0  0.25713473775E+02 -0.10231085020E+02  0.33432999198E+02  0.47787271093E+02  0.20000000223E+02 0.  0.
        -12    1    1    2    0    0 -0.25713473775E+02  0.10231085020E+02 -0.33432999198E+02  0.43400728907E+02  0.00000000000E+00 0.  1.
         11    1    3    3    0    0  0.21657116435E+01 -0.72768625815E+01  0.12672901236E+02  0.14773133112E+02  0.51100000000E-03 0. -1.
        -11    1    3    3    0    0  0.62755982294E+01  0.79433549186E+00  0.11343071896E+02  0.12987662696E+02  0.51100000000E-03 0.  1.
        -12    1    3    3    0    0  0.17272163902E+02 -0.37485579304E+01  0.94170260657E+01  0.20026475285E+02  0.00000000000E+00 0.  1.
</event>
<event>
 7    1  0.4236733E-010  0.4778728E+02  0.7816164E-02  0.1312668E+00
        -11   -1    0    0    0    0  0.00000000000E+00  0.00000000000E+00  0.45593999997E+02  0.45594000000E+02  0.51100000000E-03 0.  1.
         11   -1    0    0    0    0 -0.00000000000E+00 -0.00000000000E+00 -0.45593999997E+02  0.45594000000E+02  0.51100000000E-03 0. -1.
    9900012    2    1    2    0    0  0.21496451096E+02 -0.23716954469E+02 -0.29309240453E+02  0.47787275180E+02  0.20000018855E+02 0.  0.
        -12    1    1    2    0    0 -0.21496451096E+02  0.23716954469E+02  0.29309240453E+02  0.43400724820E+02  0.00000000000E+00 0.  1.
         11    1    3    3    0    0  0.11609313100E+01 -0.52674467772E+00 -0.60397121624E+01  0.61727906759E+01  0.51100000000E-03 0. -1.
        -11    1    3    3    0    0  0.68614934741E+01 -0.59786144261E+00 -0.64399221550E+00  0.69175325973E+01  0.51100000000E-03 0.  1.
         12    1    3    3    0    0  0.13474026312E+02 -0.22592348348E+02 -0.22625536075E+02  0.34696951907E+02  0.00000000000E+00 0. -1.
</event>
<event>
 7    1  0.4236733E-010  0.4778727E+02  0.7816164E-02  0.1312668E+00
        -11   -1    0    0    0    0  0.00000000000E+00  0.00000000000E+00  0.45593999997E+02  0.45594000000E+02  0.51100000000E-03 0. -1.
         11   -1    0    0    0    0 -0.00000000000E+00 -0.00000000000E+00 -0.45593999997E+02  0.45594000000E+02  0.51100000000E-03 0.  1.
    9900012    2    1    2    0    0 -0.34037206940E+02 -0.24163893336E+02  0.11882681572E+02  0.47787270527E+02  0.19999997641E+02 0.  0.
        -12    1    1    2    0    0  0.34037206940E+02  0.24163893336E+02 -0.11882681572E+02  0.43400729473E+02  0.00000000000E+00 0.  1.
         11    1    3    3    0    0 -0.97507421495E+01 -0.12900130205E+01  0.60050994133E+01  0.11523989122E+02  0.51100000000E-03 0. -1.
        -11    1    3    3    0    0 -0.17871944059E+02 -0.13532780028E+02 -0.19331526956E+01  0.22500657753E+02  0.51100000000E-03 0.  1.
         12    1    3    3    0    0 -0.64145207313E+01 -0.93411002884E+01  0.78107348543E+01  0.13762623652E+02  0.00000000000E+00 0. -1.
</event>
<event>
 7    1  0.4236733E-010  0.4778727E+02  0.7816164E-02  0.1312668E+00
        -11   -1    0    0    0    0  0.00000000000E+00  0.00000000000E+00  0.45593999997E+02  0.45594000000E+02  0.51100000000E-03 0. -1.
         11   -1    0    0    0    0 -0.00000000000E+00 -0.00000000000E+00 -0.45593999997E+02  0.45594000000E+02  0.51100000000E-03 0.  1.
    9900012    2    1    2    0    0 -0.36328128946E+02 -0.63630415358E+01  0.22877981427E+02  0.47787270922E+02  0.19999999441E+02 0.  0.
        -12    1    1    2    0    0  0.36328128946E+02  0.63630415358E+01 -0.22877981427E+02  0.43400729078E+02  0.00000000000E+00 0.  1.
         11    1    3    3    0    0 -0.26360563000E+01  0.74037243867E+00  0.37347007734E+01  0.46308675529E+01  0.51100000000E-03 0. -1.
        -11    1    3    3    0    0 -0.26312949318E+02 -0.85534080086E+01  0.21753728954E+02  0.35195977242E+02  0.51100000000E-03 0.  1.
        -12    1    3    3    0    0 -0.73791233281E+01  0.14499940341E+01 -0.26104482999E+01  0.79604261266E+01  0.00000000000E+00 0.  1.
</event>
<event>
 7    1  0.4236733E-010  0.4778727E+02  0.7816164E-02  0.1312668E+00
        -11   -1    0    0    0    0  0.00000000000E+00  0.00000000000E+00  0.45593999997E+02  0.45594000000E+02  0.51100000000E-03 0.  1.
         11   -1    0    0    0    0 -0.00000000000E+00 -0.00000000000E+00 -0.45593999997E+02  0.45594000000E+02  0.51100000000E-03 0. -1.
    9900012    2    1    2    0    0 -0.35988287727E+02 -0.73460588068E+01 -0.23119293686E+02  0.47787272194E+02  0.20000005243E+02 0.  0.
        -12    1    1    2    0    0  0.35988287727E+02  0.73460588068E+01  0.23119293686E+02  0.43400727806E+02  0.00000000000E+00 0.  1.
         11    1    3    3    0    0  0.74638230855E+00 -0.17724448381E+01  0.29001705818E+00  0.19449312095E+01  0.51100000000E-03 0. -1.
        -11    1    3    3    0    0 -0.16491307741E+02 -0.86797492185E+01 -0.83487348062E+01  0.20420642757E+02  0.51100000000E-03 0.  1.
        -12    1    3    3    0    0 -0.20243362295E+02  0.31061352498E+01 -0.15060575938E+02  0.25421698228E+02  0.00000000000E+00 0.  1.
</event>
<event>
 7    1  0.4236733E-010  0.4778727E+02  0.7816164E-02  0.1312668E+00
        -11   -1    0    0    0    0  0.00000000000E+00  0.00000000000E+00  0.45593999997E+02  0.45594000000E+02  0.51100000000E-03 0. -1.
         11   -1    0    0    0    0 -0.00000000000E+00 -0.00000000000E+00 -0.45593999997E+02  0.45594000000E+02  0.51100000000E-03 0.  1.
    9900012    2    1    2    0    0  0.91407001296E+01 -0.24466995197E+02  0.34661749679E+02  0.47787272545E+02  0.20000006841E+02 0.  0.
        -12    1    1    2    0    0 -0.91407001296E+01  0.24466995197E+02 -0.34661749679E+02  0.43400727455E+02  0.00000000000E+00 0.  1.
         11    1    3    3    0    0 -0.26396647801E+01 -0.59624513528E+01  0.57651400644E+01  0.87037633533E+01  0.51100000000E-03 0. -1.
        -11    1    3    3    0    0  0.15878886768E+01 -0.10396225528E+02  0.45226974264E+01  0.11448042974E+02  0.51100000000E-03 0.  1.
         12    1    3    3    0    0  0.10192476233E+02 -0.81083183165E+01  0.24373912188E+02  0.27635466217E+02  0.00000000000E+00 0. -1.
</event>
<event>
 7    1  0.4236733E-010  0.4778727E+02  0.7816164E-02  0.1312668E+00
        -11   -1    0    0    0    0  0.00000000000E+00  0.00000000000E+00  0.45593999997E+02  0.45594000000E+02  0.51100000000E-03 0.  1.
         11   -1    0    0    0    0 -0.00000000000E+00 -0.00000000000E+00 -0.45593999997E+02  0.45594000000E+02  0.51100000000E-03 0. -1.
    9900012    2    1    2    0    0 -0.21255625661E+02  0.10093959215E+02 -0.36468259657E+02  0.47787267319E+02  0.19999983013E+02 0.  0.
        -12    1    1    2    0    0  0.21255625661E+02 -0.10093959215E+02  0.36468259657E+02  0.43400732681E+02  0.00000000000E+00 0.  1.
         11    1    3    3    0    0 -0.57049598643E+01  0.37909073976E+01 -0.49659127670E+01  0.84603685394E+01  0.51100000000E-03 0. -1.
        -11    1    3    3    0    0 -0.36073667480E+00  0.79867948561E+01 -0.13720268728E+02  0.15879697644E+02  0.51100000000E-03 0.  1.
         12    1    3    3    0    0 -0.15189929122E+02 -0.16837430389E+01 -0.17782078162E+02  0.23447201136E+02  0.00000000000E+00 0. -1.
</event>
<event>
 7    1  0.4236733E-010  0.4778728E+02  0.7816164E-02  0.1312668E+00
        -11   -1    0    0    0    0  0.00000000000E+00  0.00000000000E+00  0.45593999997E+02  0.45594000000E+02  0.51100000000E-03 0. -1.
         11   -1    0    0    0    0 -0.00000000000E+00 -0.00000000000E+00 -0.45593999997E+02  0.45594000000E+02  0.51100000000E-03 0.  1.
    9900012    2    1    2    0    0  0.23804350569E+02 -0.32563172455E+02  0.16019223604E+02  0.47787276144E+02  0.20000023251E+02 0.  0.
        -12    1    1    2    0    0 -0.23804350569E+02  0.32563172455E+02 -0.16019223604E+02  0.43400723856E+02  0.00000000000E+00 0.  1.
         11    1    3    3    0    0  0.19275478790E+02 -0.20555431225E+02  0.18064922045E+01  0.28237089967E+02  0.51100000000E-03 0. -1.
        -11    1    3    3    0    0  0.19893969625E+01 -0.30499764276E+01  0.18818990511E+01  0.40989755772E+01  0.51100000000E-03 0.  1.
        -12    1    3    3    0    0  0.25394748159E+01 -0.89577648027E+01  0.12330832348E+02  0.15451210600E+02  0.00000000000E+00 0.  1.
</event>
<event>
 7    1  0.4236733E-010  0.4778727E+02  0.7816164E-02  0.1312668E+00
        -11   -1    0    0    0    0  0.00000000000E+00  0.00000000000E+00  0.45593999997E+02  0.45594000000E+02  0.51100000000E-03 0.  1.
         11   -1    0    0    0    0 -0.00000000000E+00 -0.00000000000E+00 -0.45593999997E+02  0.45594000000E+02  0.51100000000E-03 0. -1.
    9900012    2    1    2    0    0 -0.91361059411E+01  0.21263645744E+02 -0.36715290587E+02  0.47787267000E+02  0.19999981560E+02 0.  0.
        -12    1    1    2    0    0  0.91361059411E+01 -0.21263645744E+02  0.36715290587E+02  0.43400733000E+02  0.00000000000E+00 0.  1.
         11    1    3    3    0    0 -0.32195188568E+01  0.55332660144E+01 -0.95990521002E+01  0.11537943315E+02  0.51100000000E-03 0. -1.
        -11    1    3    3    0    0  0.32918324156E+01  0.14348861482E+02 -0.17385842045E+02  0.22781428628E+02  0.51100000000E-03 0.  1.
        -12    1    3    3    0    0 -0.92084194999E+01  0.13815182477E+01 -0.97303964413E+01  0.13467895057E+02  0.00000000000E+00 0.  1.
</event>
<event>
 7    1  0.4236733E-010  0.4778726E+02  0.7816164E-02  0.1312668E+00
        -11   -1    0    0    0    0  0.00000000000E+00  0.00000000000E+00  0.45593999997E+02  0.45594000000E+02  0.51100000000E-03 0. -1.
         11   -1    0    0    0    0 -0.00000000000E+00 -0.00000000000E+00 -0.45593999997E+02  0.45594000000E+02  0.51100000000E-03 0.  1.
    9900012    2    1    2    0    0 -0.33081214435E+02  0.59008510894E+00  0.28087525058E+02  0.47787262531E+02  0.19999961185E+02 0.  0.
        -12    1    1    2    0    0  0.33081214435E+02 -0.59008510894E+00 -0.28087525058E+02  0.43400737469E+02  0.00000000000E+00 0.  1.
         11    1    3    3    0    0 -0.89203850745E+01  0.29404102030E+01  0.11681915661E+01  0.94648800222E+01  0.51100000000E-03 0. -1.
        -11    1    3    3    0    0 -0.10176027420E+00 -0.40408597772E+00 -0.11963072923E+01  0.12668038639E+01  0.51100000000E-03 0.  1.
         12    1    3    3    0    0 -0.24059069087E+02 -0.19462391163E+01  0.28115640784E+02  0.37055578645E+02  0.00000000000E+00 0. -1.
</event>
<event>
 7    1  0.4236733E-010  0.4778727E+02  0.7816164E-02  0.1312668E+00
        -11   -1    0    0    0    0  0.00000000000E+00  0.00000000000E+00  0.45593999997E+02  0.45594000000E+02  0.51100000000E-03 0.  1.
         11   -1    0    0    0    0 -0.00000000000E+00 -0.00000000000E+00 -0.45593999997E+02  0.45594000000E+02  0.51100000000E-03 0. -1.
    9900012    2    1    2    0    0  0.24884955614E+02 -0.52762089555E+01 -0.35164245934E+02  0.47787267415E+02  0.19999983450E+02 0.  0.
        -12    1    1    2    0    0 -0.24884955614E+02  0.52762089555E+01  0.35164245934E+02  0.43400732585E+02  0.00000000000E+00 0.  1.
         11    1    3    3    0    0  0.18391965818E+02  0.15084018881E+01 -0.16282826212E+02  0.24610365958E+02  0.51100000000E-03 0. -1.
        -11    1    3    3    0    0  0.65006909993E+01 -0.62973059436E+00 -0.58623844112E+01  0.87762802676E+01  0.51100000000E-03 0.  1.
        -12    1    3    3    0    0 -0.77012031388E-02 -0.61548802493E+01 -0.13019035311E+02  0.14400621189E+02  0.00000000000E+00 0.  1.
</event>
<event>
 7    1  0.4236733E-010  0.4778727E+02  0.7816164E-02  0.1312668E+00
        -11   -1    0    0    0    0  0.00000000000E+00  0.00000000000E+00  0.45593999997E+02  0.45594000000E+02  0.51100000000E-03 0.  1.
         11   -1    0    0    0    0 -0.00000000000E+00 -0.00000000000E+00 -0.45593999997E+02  0.45594000000E+02  0.51100000000E-03 0. -1.
    9900012    2    1    2    0    0  0.72944284468E+01  0.40904883970E+02 -0.12538131576E+02  0.47787274633E+02  0.20000016360E+02 0.  0.
        -12    1    1    2    0    0 -0.72944284468E+01 -0.40904883970E+02  0.12538131576E+02  0.43400725367E+02  0.00000000000E+00 0.  1.
         11    1    3    3    0    0  0.29978964997E+01  0.74836698506E+01 -0.60762060792E+01  0.10095195810E+02  0.51100000000E-03 0. -1.
        -11    1    3    3    0    0  0.57578130230E+01  0.31125519477E+01  0.48483108236E+00  0.65631891542E+01  0.51100000000E-03 0.  1.
         12    1    3    3    0    0 -0.14612810758E+01  0.30308662172E+02 -0.69467565795E+01  0.31128889669E+02  0.00000000000E+00 0. -1.
</event>
<event>
 7    1  0.4236733E-010  0.4778727E+02  0.7816164E-02  0.1312668E+00
        -11   -1    0    0    0    0  0.00000000000E+00  0.00000000000E+00  0.45593999997E+02  0.45594000000E+02  0.51100000000E-03 0. -1.
         11   -1    0    0    0    0 -0.00000000000E+00 -0.00000000000E+00 -0.45593999997E+02  0.45594000000E+02  0.51100000000E-03 0.  1.
    9900012    2    1    2    0    0 -0.41122513264E+02 -0.68250540943E+01  0.12082270532E+02  0.47787265885E+02  0.19999976476E+02 0.  0.
        -12    1    1    2    0    0  0.41122513264E+02  0.68250540943E+01 -0.12082270532E+02  0.43400734115E+02  0.00000000000E+00 0.  1.
         11    1    3    3    0    0 -0.25446449587E+01 -0.25022344840E+01 -0.98559587172E+00  0.37024039302E+01  0.51100000000E-03 0. -1.
        -11    1    3    3    0    0 -0.16386228253E+02 -0.99540151898E+01  0.50503637309E+01  0.19826675688E+02  0.51100000000E-03 0.  1.
         12    1    3    3    0    0 -0.22191640052E+02  0.56311955794E+01  0.80175026724E+01  0.24258186267E+02  0.00000000000E+00 0. -1.
</event>
<event>
 7    1  0.4236733E-010  0.4778727E+02  0.7816164E-02  0.1312668E+00
        -11   -1    0    0    0    0  0.00000000000E+00  0.00000000000E+00  0.45593999997E+02  0.45594000000E+02  0.51100000000E-03 0. -1.
         11   -1    0    0    0    0 -0.00000000000E+00 -0.00000000000E+00 -0.45593999997E+02  0.45594000000E+02  0.51100000000E-03 0.  1.
    9900012    2    1    2    0    0  0.29394081827E+02 -0.31037744022E+02  0.75013230044E+01  0.47787269047E+02  0.19999990894E+02 0.  0.
        -12    1    1    2    0    0 -0.29394081827E+02  0.31037744022E+02 -0.75013230044E+01  0.43400730953E+02  0.00000000000E+00 0.  1.
         11    1    3    3    0    0  0.16047391433E+02 -0.11527985161E+02  0.58107979022E+01  0.20595596282E+02  0.51100000000E-03 0. -1.
        -11    1    3    3    0    0  0.68920198781E+01 -0.11987648979E+01 -0.23127950052E+01  0.73679031126E+01  0.51100000000E-03 0.  1.
         12    1    3    3    0    0  0.64546705160E+01 -0.18310993963E+02  0.40033201074E+01  0.19823769653E+02  0.00000000000E+00 0. -1.
</event>
<event>
 7    1  0.4236733E-010  0.4778727E+02  0.7816164E-02  0.1312668E+00
        -11   -1    0    0    0    0  0.00000000000E+00  0.00000000000E+00  0.45593999997E+02  0.45594000000E+02  0.51100000000E-03 0. -1.
         11   -1    0    0    0    0 -0.00000000000E+00 -0.00000000000E+00 -0.45593999997E+02  0.45594000000E+02  0.51100000000E-03 0.  1.
    9900012    2    1    2    0    0  0.20724269209E+02 -0.32355703159E+02  0.20180093494E+02  0.47787273802E+02  0.20000012572E+02 0.  0.
        -12    1    1    2    0    0 -0.20724269209E+02  0.32355703159E+02 -0.20180093494E+02  0.43400726198E+02  0.00000000000E+00 0.  1.
         11    1    3    3    0    0  0.17248395577E+02 -0.13139683303E+02  0.10706935422E+02  0.24182574174E+02  0.51100000000E-03 0. -1.
        -11    1    3    3    0    0 -0.71393822670E+00  0.64696084090E+00  0.15255295011E+01  0.18043022588E+01  0.51100000000E-03 0.  1.
        -12    1    3    3    0    0  0.41898118587E+01 -0.19862980697E+02  0.79476285706E+01  0.21800397369E+02  0.00000000000E+00 0.  1.
</event>
<event>
 7    1  0.4236733E-010  0.4778727E+02  0.7816164E-02  0.1312668E+00
        -11   -1    0    0    0    0  0.00000000000E+00  0.00000000000E+00  0.45593999997E+02  0.45594000000E+02  0.51100000000E-03 0. -1.
         11   -1    0    0    0    0 -0.00000000000E+00 -0.00000000000E+00 -0.45593999997E+02  0.45594000000E+02  0.51100000000E-03 0.  1.
    9900012    2    1    2    0    0 -0.30809842171E+02  0.17454728932E+02  0.25094006830E+02  0.47787272869E+02  0.20000008320E+02 0.  0.
        -12    1    1    2    0    0  0.30809842171E+02 -0.17454728932E+02 -0.25094006830E+02  0.43400727131E+02  0.00000000000E+00 0.  1.
         11    1    3    3    0    0 -0.48672416046E+00  0.46999438342E+01  0.60325934114E+00  0.47634330632E+01  0.51100000000E-03 0. -1.
        -11    1    3    3    0    0 -0.24414550899E+00  0.32641514669E+01  0.32429650897E+00  0.32892948052E+01  0.51100000000E-03 0.  1.
         12    1    3    3    0    0 -0.30078972502E+02  0.94906336310E+01  0.24166450980E+02  0.39734545001E+02  0.00000000000E+00 0. -1.
</event>
<event>
 7    1  0.4236733E-010  0.4778727E+02  0.7816164E-02  0.1312668E+00
        -11   -1    0    0    0    0  0.00000000000E+00  0.00000000000E+00  0.45593999997E+02  0.45594000000E+02  0.51100000000E-03 0. -1.
         11   -1    0    0    0    0 -0.00000000000E+00 -0.00000000000E+00 -0.45593999997E+02  0.45594000000E+02  0.51100000000E-03 0.  1.
    9900012    2    1    2    0    0  0.24781092647E+02 -0.66598316660E+01  0.35002387701E+02  0.47787273562E+02  0.20000011477E+02 0.  0.
        -12    1    1    2    0    0 -0.24781092647E+02  0.66598316660E+01 -0.35002387701E+02  0.43400726438E+02  0.00000000000E+00 0.  1.
         11    1    3    3    0    0  0.19252363143E+01 -0.43098358619E+01  0.10693606986E+02  0.11689073986E+02  0.51100000000E-03 0. -1.
        -11    1    3    3    0    0  0.13634196192E+02  0.17243601049E+00  0.22587569404E+02  0.26384073450E+02  0.51100000000E-03 0.  1.
        -12    1    3    3    0    0  0.92216601402E+01 -0.25224318146E+01  0.17212113117E+01  0.97141261254E+01  0.00000000000E+00 0.  1.
</event>
<event>
 7    1  0.4236733E-010  0.4778727E+02  0.7816164E-02  0.1312668E+00
        -11   -1    0    0    0    0  0.00000000000E+00  0.00000000000E+00  0.45593999997E+02  0.45594000000E+02  0.51100000000E-03 0. -1.
         11   -1    0    0    0    0 -0.00000000000E+00 -0.00000000000E+00 -0.45593999997E+02  0.45594000000E+02  0.51100000000E-03 0.  1.
    9900012    2    1    2    0    0  0.40230707593E+02 -0.11271927400E+02  0.11749772627E+02  0.47787270311E+02  0.19999996655E+02 0.  0.
        -12    1    1    2    0    0 -0.40230707593E+02  0.11271927400E+02 -0.11749772627E+02  0.43400729689E+02  0.00000000000E+00 0.  1.
         11    1    3    3    0    0  0.44637719086E+01 -0.20925521306E+01  0.23932620928E+01  0.54801220586E+01  0.51100000000E-03 0. -1.
        -11    1    3    3    0    0  0.18013963479E+02 -0.12372255832E+02 -0.28269601577E+00  0.21855331429E+02  0.51100000000E-03 0.  1.
        -12    1    3    3    0    0  0.17752972206E+02  0.31928805627E+01  0.96392065500E+01  0.20451816823E+02  0.00000000000E+00 0.  1.
</event>
<event>
 7    1  0.4236733E-010  0.4778727E+02  0.7816164E-02  0.1312668E+00
        -11   -1    0    0    0    0  0.00000000000E+00  0.00000000000E+00  0.45593999997E+02  0.45594000000E+02  0.51100000000E-03 0. -1.
         11   -1    0    0    0    0 -0.00000000000E+00 -0.00000000000E+00 -0.45593999997E+02  0.45594000000E+02  0.51100000000E-03 0.  1.
    9900012    2    1    2    0    0  0.39120328886E+02  0.18371516420E+02 -0.39636804933E+01  0.47787268315E+02  0.19999987557E+02 0.  0.
        -12    1    1    2    0    0 -0.39120328886E+02 -0.18371516420E+02  0.39636804933E+01  0.43400731685E+02  0.00000000000E+00 0.  1.
         11    1    3    3    0    0  0.18974477898E+02  0.10538683025E+02 -0.84685482233E+01  0.23298303815E+02  0.51100000000E-03 0. -1.
        -11    1    3    3    0    0  0.35082701380E+01  0.64442311052E+01  0.74186616544E+00  0.73747162364E+01  0.51100000000E-03 0.  1.
        -12    1    3    3    0    0  0.16637580850E+02  0.13886022904E+01  0.37630015646E+01  0.17114248264E+02  0.00000000000E+00 0.  1.
</event>
<event>
 7    1  0.4236733E-010  0.4778727E+02  0.7816164E-02  0.1312668E+00
        -11   -1    0    0    0    0  0.00000000000E+00  0.00000000000E+00  0.45593999997E+02  0.45594000000E+02  0.51100000000E-03 0.  1.
         11   -1    0    0    0    0 -0.00000000000E+00 -0.00000000000E+00 -0.45593999997E+02  0.45594000000E+02  0.51100000000E-03 0. -1.
    9900012    2    1    2    0    0  0.25484646345E+02 -0.30277548712E+01 -0.34999844852E+02  0.47787266843E+02  0.19999980844E+02 0.  0.
        -12    1    1    2    0    0 -0.25484646345E+02  0.30277548712E+01  0.34999844852E+02  0.43400733157E+02  0.00000000000E+00 0.  1.
         11    1    3    3    0    0  0.72903882660E+01 -0.70407388721E+01 -0.15871910814E+02  0.18831869745E+02  0.51100000000E-03 0. -1.
        -11    1    3    3    0    0  0.59378439024E+01  0.52449322225E+01 -0.12934137978E+02  0.15167703508E+02  0.51100000000E-03 0.  1.
         12    1    3    3    0    0  0.12256414177E+02 -0.12319482215E+01 -0.61937960601E+01  0.13787693590E+02  0.00000000000E+00 0. -1.
</event>
<event>
 7    1  0.4236733E-010  0.4778727E+02  0.7816164E-02  0.1312668E+00
        -11   -1    0    0    0    0  0.00000000000E+00  0.00000000000E+00  0.45593999997E+02  0.45594000000E+02  0.51100000000E-03 0. -1.
         11   -1    0    0    0    0 -0.00000000000E+00 -0.00000000000E+00 -0.45593999997E+02  0.45594000000E+02  0.51100000000E-03 0.  1.
    9900012    2    1    2    0    0  0.27478029860E+02  0.19732429786E+02  0.27188469684E+02  0.47787265053E+02  0.19999972681E+02 0.  0.
        -12    1    1    2    0    0 -0.27478029860E+02 -0.19732429786E+02 -0.27188469684E+02  0.43400734947E+02  0.00000000000E+00 0.  1.
         11    1    3    3    0    0  0.21142516220E+02  0.11264668096E+02  0.11486484613E+02  0.26567613149E+02  0.51100000000E-03 0. -1.
        -11    1    3    3    0    0  0.45605677112E+01 -0.69482794603E+00  0.74453186278E+01  0.87586719001E+01  0.51100000000E-03 0.  1.
        -12    1    3    3    0    0  0.17749459288E+01  0.91625896368E+01  0.82566664425E+01  0.12460980003E+02  0.00000000000E+00 0.  1.
</event>
<event>
 7    1  0.4236733E-010  0.4778727E+02  0.7816164E-02  0.1312668E+00
        -11   -1    0    0    0    0  0.00000000000E+00  0.00000000000E+00  0.45593999997E+02  0.45594000000E+02  0.51100000000E-03 0.  1.
         11   -1    0    0    0    0 -0.00000000000E+00 -0.00000000000E+00 -0.45593999997E+02  0.45594000000E+02  0.51100000000E-03 0. -1.
    9900012    2    1    2    0    0  0.26816407562E+02 -0.12468930299E+01 -0.34102036875E+02  0.47787269870E+02  0.19999994646E+02 0.  0.
        -12    1    1    2    0    0 -0.26816407562E+02  0.12468930299E+01  0.34102036875E+02  0.43400730130E+02  0.00000000000E+00 0.  1.
         11    1    3    3    0    0  0.79581190876E+01 -0.15338144888E+01 -0.46829302122E+01  0.93602394164E+01  0.51100000000E-03 0.  1.
        -11    1    3    3    0    0  0.14057600295E+02  0.75532120664E+01 -0.17797005226E+02  0.23903985732E+02  0.51100000000E-03 0. -1.
         12    1    3    3    0    0  0.48006881797E+01 -0.72662906076E+01 -0.11622101437E+02  0.14523044722E+02  0.00000000000E+00 0. -1.
</event>
<event>
 7    1  0.5507673E-010  0.4778727E+02  0.7816164E-02  0.1312668E+00
        -11   -1    0    0    0    0  0.00000000000E+00  0.00000000000E+00  0.45593999997E+02  0.45594000000E+02  0.51100000000E-03 0.  1.
         11   -1    0    0    0    0 -0.00000000000E+00 -0.00000000000E+00 -0.45593999997E+02  0.45594000000E+02  0.51100000000E-03 0. -1.
    9900012    2    1    2    0    0  0.38543508448E+02 -0.18604673823E+01 -0.19863534750E+02  0.47787269647E+02  0.19999993630E+02 0.  0.
        -12    1    1    2    0    0 -0.38543508448E+02  0.18604673823E+01  0.19863534750E+02  0.43400730353E+02  0.00000000000E+00 0.  1.
         11    1    3    3    0    0  0.25831951953E+02 -0.23453256080E+00 -0.97523056883E+01  0.27612537256E+02  0.51100000000E-03 0. -1.
        -11    1    3    3    0    0  0.97307937418E+01  0.30083353274E+01 -0.10528529245E+02  0.14648834650E+02  0.51100000000E-03 0.  1.
        -12    1    3    3    0    0  0.29807627536E+01 -0.46342701489E+01  0.41730018267E+00  0.55258977414E+01  0.00000000000E+00 0.  1.
</event>
<event>
 7    1  0.4236733E-010  0.4778727E+02  0.7816164E-02  0.1312668E+00
        -11   -1    0    0    0    0  0.00000000000E+00  0.00000000000E+00  0.45593999997E+02  0.45594000000E+02  0.51100000000E-03 0. -1.
         11   -1    0    0    0    0 -0.00000000000E+00 -0.00000000000E+00 -0.45593999997E+02  0.45594000000E+02  0.51100000000E-03 0.  1.
    9900012    2    1    2    0    0 -0.32202062025E+02  0.21717301263E+02  0.19365166029E+02  0.47787266963E+02  0.19999981391E+02 0.  0.
        -12    1    1    2    0    0  0.32202062025E+02 -0.21717301263E+02 -0.19365166029E+02  0.43400733037E+02  0.00000000000E+00 0.  1.
         11    1    3    3    0    0 -0.15041631068E+02  0.54252915230E+01  0.20550182126E+01  0.16121648595E+02  0.51100000000E-03 0. -1.
        -11    1    3    3    0    0 -0.83433853433E+01  0.14407893999E+02  0.72583092446E+01  0.18162668907E+02  0.51100000000E-03 0.  1.
        -12    1    3    3    0    0 -0.88170456133E+01  0.18841157411E+01  0.10051838571E+02  0.13502949461E+02  0.00000000000E+00 0.  1.
</event>
<event>
 7    1  0.4236733E-010  0.4778727E+02  0.7816164E-02  0.1312668E+00
        -11   -1    0    0    0    0  0.00000000000E+00  0.00000000000E+00  0.45593999997E+02  0.45594000000E+02  0.51100000000E-03 0. -1.
         11   -1    0    0    0    0 -0.00000000000E+00 -0.00000000000E+00 -0.45593999997E+02  0.45594000000E+02  0.51100000000E-03 0.  1.
    9900012    2    1    2    0    0  0.31895268375E+02 -0.25909022895E+02  0.13965588545E+02  0.47787271026E+02  0.19999999914E+02 0.  0.
        -12    1    1    2    0    0 -0.31895268375E+02  0.25909022895E+02 -0.13965588545E+02  0.43400728974E+02  0.00000000000E+00 0.  1.
         11    1    3    3    0    0  0.11206920055E+02 -0.11770315439E+02  0.41957690866E+01  0.16785108314E+02  0.51100000000E-03 0. -1.
        -11    1    3    3    0    0  0.22884498488E+02 -0.12504572091E+02  0.67728832484E+01  0.26943209571E+02  0.51100000000E-03 0.  1.
        -12    1    3    3    0    0 -0.21961501672E+01 -0.16341353654E+01  0.29969362099E+01  0.40589531404E+01  0.00000000000E+00 0.  1.
</event>
<event>
 7    1  0.4236733E-010  0.4778727E+02  0.7816164E-02  0.1312668E+00
        -11   -1    0    0    0    0  0.00000000000E+00  0.00000000000E+00  0.45593999997E+02  0.45594000000E+02  0.51100000000E-03 0. -1.
         11   -1    0    0    0    0 -0.00000000000E+00 -0.00000000000E+00 -0.45593999997E+02  0.45594000000E+02  0.51100000000E-03 0.  1.
    9900012    2    1    2    0    0 -0.38550170313E+02 -0.56747876302E+01 -0.19112938916E+02  0.47787270976E+02  0.19999999688E+02 0.  0.
        -12    1    1    2    0    0  0.38550170313E+02  0.56747876302E+01  0.19112938916E+02  0.43400729024E+02  0.00000000000E+00 0.  1.
         11    1    3    3    0    0 -0.15344161716E+02 -0.79130672204E+01 -0.12971535061E+02  0.21594458866E+02  0.51100000000E-03 0. -1.
        -11    1    3    3    0    0 -0.18184704185E+02  0.42583722034E+00 -0.88254512438E+01  0.20217650545E+02  0.51100000000E-03 0.  1.
        -12    1    3    3    0    0 -0.50213044114E+01  0.18124423699E+01  0.26840473893E+01  0.59751615647E+01  0.00000000000E+00 0.  1.
</event>
<event>
 7    1  0.4236733E-010  0.4778728E+02  0.7816164E-02  0.1312668E+00
        -11   -1    0    0    0    0  0.00000000000E+00  0.00000000000E+00  0.45593999997E+02  0.45594000000E+02  0.51100000000E-03 0.  1.
         11   -1    0    0    0    0 -0.00000000000E+00 -0.00000000000E+00 -0.45593999997E+02  0.45594000000E+02  0.51100000000E-03 0. -1.
    9900012    2    1    2    0    0  0.37393996669E+02 -0.21290334275E+02 -0.56597898442E+01  0.47787279482E+02  0.20000038469E+02 0.  0.
        -12    1    1    2    0    0 -0.37393996669E+02  0.21290334275E+02  0.56597898442E+01  0.43400720518E+02  0.00000000000E+00 0.  1.
         11    1    3    3    0    0  0.55761675776E+01 -0.97856752740E+01  0.31413012686E+00  0.11267287314E+02  0.51100000000E-03 0. -1.
        -11    1    3    3    0    0  0.60258584251E+01 -0.39711796914E+01  0.35108712827E+01  0.80254255541E+01  0.51100000000E-03 0.  1.
         12    1    3    3    0    0  0.25791970666E+02 -0.75334793096E+01 -0.94847912537E+01  0.28494566613E+02  0.00000000000E+00 0. -1.
</event>
<event>
 7    1  0.4236733E-010  0.4778727E+02  0.7816164E-02  0.1312668E+00
        -11   -1    0    0    0    0  0.00000000000E+00  0.00000000000E+00  0.45593999997E+02  0.45594000000E+02  0.51100000000E-03 0.  1.
         11   -1    0    0    0    0 -0.00000000000E+00 -0.00000000000E+00 -0.45593999997E+02  0.45594000000E+02  0.51100000000E-03 0. -1.
    9900012    2    1    2    0    0 -0.81624562798E+01 -0.42401571313E+02 -0.43708607197E+01  0.47787269986E+02  0.19999995175E+02 0.  0.
        -12    1    1    2    0    0  0.81624562798E+01  0.42401571313E+02  0.43708607197E+01  0.43400730014E+02  0.00000000000E+00 0.  1.
         11    1    3    3    0    0 -0.49516690815E+01 -0.18976331167E+02 -0.35134765114E+01  0.19923972714E+02  0.51100000000E-03 0. -1.
        -11    1    3    3    0    0 -0.31617449351E+01 -0.69431917745E+01 -0.69214602094E+01  0.10301026878E+02  0.51100000000E-03 0.  1.
         12    1    3    3    0    0 -0.49042263208E-01 -0.16482048371E+02  0.60640760011E+01  0.17562270395E+02  0.00000000000E+00 0. -1.
</event>
<event>
 7    1  0.4236733E-010  0.4778728E+02  0.7816164E-02  0.1312668E+00
        -11   -1    0    0    0    0  0.00000000000E+00  0.00000000000E+00  0.45593999997E+02  0.45594000000E+02  0.51100000000E-03 0. -1.
         11   -1    0    0    0    0 -0.00000000000E+00 -0.00000000000E+00 -0.45593999997E+02  0.45594000000E+02  0.51100000000E-03 0.  1.
    9900012    2    1    2    0    0  0.64295846047E+01 -0.30987553427E+02  0.29699402386E+02  0.47787279641E+02  0.20000039194E+02 0.  0.
        -12    1    1    2    0    0 -0.64295846047E+01  0.30987553427E+02 -0.29699402386E+02  0.43400720359E+02  0.00000000000E+00 0.  1.
         11    1    3    3    0    0 -0.28007515588E+00  0.11950213181E+00  0.66316889743E+00  0.72973700747E+00  0.51100000000E-03 0. -1.
        -11    1    3    3    0    0  0.10778750324E+02 -0.16288771843E+02  0.82383667324E+01  0.21198496017E+02  0.51100000000E-03 0.  1.
        -12    1    3    3    0    0 -0.40690905631E+01 -0.14818283716E+02  0.20797866756E+02  0.25859046616E+02  0.00000000000E+00 0.  1.
</event>
<event>
 7    1  0.4236733E-010  0.4778727E+02  0.7816164E-02  0.1312668E+00
        -11   -1    0    0    0    0  0.00000000000E+00  0.00000000000E+00  0.45593999997E+02  0.45594000000E+02  0.51100000000E-03 0.  1.
         11   -1    0    0    0    0 -0.00000000000E+00 -0.00000000000E+00 -0.45593999997E+02  0.45594000000E+02  0.51100000000E-03 0. -1.
    9900012    2    1    2    0    0 -0.38167058343E+01 -0.14588799458E+02 -0.40696719280E+02  0.47787271052E+02  0.20000000036E+02 0.  0.
        -12    1    1    2    0    0  0.38167058343E+01  0.14588799458E+02  0.40696719280E+02  0.43400728948E+02  0.00000000000E+00 0.  1.
         11    1    3    3    0    0  0.64898759756E+01 -0.51538890914E+01 -0.19356757452E+02  0.21056237135E+02  0.51100000000E-03 0. -1.
        -11    1    3    3    0    0 -0.41312235536E+01 -0.53034887011E+01 -0.16621323903E+02  0.17929372800E+02  0.51100000000E-03 0.  1.
        -12    1    3    3    0    0 -0.61753582563E+01 -0.41314216650E+01 -0.47186379249E+01  0.88016611179E+01  0.00000000000E+00 0.  1.
</event>
<event>
 7    1  0.4236733E-010  0.4778727E+02  0.7816164E-02  0.1312668E+00
        -11   -1    0    0    0    0  0.00000000000E+00  0.00000000000E+00  0.45593999997E+02  0.45594000000E+02  0.51100000000E-03 0. -1.
         11   -1    0    0    0    0 -0.00000000000E+00 -0.00000000000E+00 -0.45593999997E+02  0.45594000000E+02  0.51100000000E-03 0.  1.
    9900012    2    1    2    0    0  0.12234978094E+02 -0.41191286967E+02  0.60996882430E+01  0.47787274111E+02  0.20000013984E+02 0.  0.
        -12    1    1    2    0    0 -0.12234978094E+02  0.41191286967E+02 -0.60996882430E+01  0.43400725889E+02  0.00000000000E+00 0.  1.
         11    1    3    3    0    0  0.40395596233E+01 -0.64399326040E+01  0.24754214640E+01  0.79949037255E+01  0.51100000000E-03 0. -1.
        -11    1    3    3    0    0  0.11715369004E+02 -0.14219497329E+02  0.44163173380E+01  0.18945918671E+02  0.51100000000E-03 0.  1.
         12    1    3    3    0    0 -0.35199505329E+01 -0.20531857034E+02 -0.79205055911E+00  0.20846451715E+02  0.00000000000E+00 0. -1.
</event>
<event>
 7    1  0.4236733E-010  0.4778727E+02  0.7816164E-02  0.1312668E+00
        -11   -1    0    0    0    0  0.00000000000E+00  0.00000000000E+00  0.45593999997E+02  0.45594000000E+02  0.51100000000E-03 0.  1.
         11   -1    0    0    0    0 -0.00000000000E+00 -0.00000000000E+00 -0.45593999997E+02  0.45594000000E+02  0.51100000000E-03 0. -1.
    9900012    2    1    2    0    0 -0.43294235408E+02  0.13273298895E+01 -0.27332441572E+01  0.47787271345E+02  0.20000001368E+02 0.  0.
        -12    1    1    2    0    0  0.43294235408E+02 -0.13273298895E+01  0.27332441572E+01  0.43400728655E+02  0.00000000000E+00 0.  1.
         11    1    3    3    0    0 -0.24009886535E+02  0.10092146680E+02 -0.62370665820E+00  0.26052160876E+02  0.51100000000E-03 0. -1.
        -11    1    3    3    0    0 -0.19292578575E+01 -0.17869527496E+01  0.92010798365E+00  0.27860069944E+01  0.51100000000E-03 0.  1.
         12    1    3    3    0    0 -0.17355091015E+02 -0.69778640412E+01 -0.30296454826E+01  0.18949103474E+02  0.00000000000E+00 0. -1.
</event>
<event>
 7    1  0.4236733E-010  0.4778728E+02  0.7816164E-02  0.1312668E+00
        -11   -1    0    0    0    0  0.00000000000E+00  0.00000000000E+00  0.45593999997E+02  0.45594000000E+02  0.51100000000E-03 0.  1.
         11   -1    0    0    0    0 -0.00000000000E+00 -0.00000000000E+00 -0.45593999997E+02  0.45594000000E+02  0.51100000000E-03 0. -1.
    9900012    2    1    2    0    0 -0.10605052703E+02 -0.11938325755E+02 -0.40356312716E+02  0.47787277187E+02  0.20000028005E+02 0.  0.
        -12    1    1    2    0    0  0.10605052703E+02  0.11938325755E+02  0.40356312716E+02  0.43400722813E+02  0.00000000000E+00 0.  1.
         11    1    3    3    0    0 -0.85352393958E+01 -0.13108375886E+02 -0.26896567843E+02  0.31114388824E+02  0.51100000000E-03 0. -1.
        -11    1    3    3    0    0 -0.57773284032E+01  0.83749514022E+00 -0.10062646245E+02  0.11633390361E+02  0.51100000000E-03 0.  1.
        -12    1    3    3    0    0  0.37075150965E+01  0.33255499042E+00 -0.33970986283E+01  0.50394980011E+01  0.00000000000E+00 0.  1.
</event>
<event>
 7    1  0.4236733E-010  0.4778727E+02  0.7816164E-02  0.1312668E+00
        -11   -1    0    0    0    0  0.00000000000E+00  0.00000000000E+00  0.45593999997E+02  0.45594000000E+02  0.51100000000E-03 0.  1.
         11   -1    0    0    0    0 -0.00000000000E+00 -0.00000000000E+00 -0.45593999997E+02  0.45594000000E+02  0.51100000000E-03 0. -1.
    9900012    2    1    2    0    0  0.84177125417E+01  0.41805384443E+02 -0.80669153063E+01  0.47787272179E+02  0.20000005171E+02 0.  0.
        -12    1    1    2    0    0 -0.84177125417E+01 -0.41805384443E+02  0.80669153063E+01  0.43400727821E+02  0.00000000000E+00 0.  1.
         11    1    3    3    0    0  0.58701751695E+00 -0.79480459072E+00 -0.21165171216E+01  0.23357972707E+01  0.51100000000E-03 0. -1.
        -11    1    3    3    0    0  0.69125623503E+01  0.90431918911E+01 -0.14408181198E+00  0.11383479154E+02  0.51100000000E-03 0.  1.
         12    1    3    3    0    0  0.91813267447E+00  0.33556997143E+02 -0.58063163727E+01  0.34067995754E+02  0.00000000000E+00 0. -1.
</event>
<event>
 7    1  0.4236733E-010  0.4778727E+02  0.7816164E-02  0.1312668E+00
        -11   -1    0    0    0    0  0.00000000000E+00  0.00000000000E+00  0.45593999997E+02  0.45594000000E+02  0.51100000000E-03 0. -1.
         11   -1    0    0    0    0 -0.00000000000E+00 -0.00000000000E+00 -0.45593999997E+02  0.45594000000E+02  0.51100000000E-03 0.  1.
    9900012    2    1    2    0    0  0.32032529454E+02 -0.18607670978E+02  0.22611825525E+02  0.47787274015E+02  0.20000013544E+02 0.  0.
        -12    1    1    2    0    0 -0.32032529454E+02  0.18607670978E+02 -0.22611825525E+02  0.43400725985E+02  0.00000000000E+00 0.  1.
         11    1    3    3    0    0  0.49053789290E+01 -0.28115111098E+01 -0.14225057594E+01  0.58301680983E+01  0.51100000000E-03 0. -1.
        -11    1    3    3    0    0  0.25170178275E+00  0.19985634026E+01  0.24184683507E+01  0.31474750017E+01  0.51100000000E-03 0.  1.
         12    1    3    3    0    0  0.26875448742E+02 -0.17794723271E+02  0.21615862934E+02  0.38809630915E+02  0.00000000000E+00 0. -1.
</event>
<event>
 7    1  0.4236733E-010  0.4778728E+02  0.7816164E-02  0.1312668E+00
        -11   -1    0    0    0    0  0.00000000000E+00  0.00000000000E+00  0.45593999997E+02  0.45594000000E+02  0.51100000000E-03 0.  1.
         11   -1    0    0    0    0 -0.00000000000E+00 -0.00000000000E+00 -0.45593999997E+02  0.45594000000E+02  0.51100000000E-03 0. -1.
    9900012    2    1    2    0    0  0.22666506526E+02 -0.30096734998E+01 -0.36888945049E+02  0.47787275127E+02  0.20000018616E+02 0.  0.
        -12    1    1    2    0    0 -0.22666506526E+02  0.30096734998E+01  0.36888945049E+02  0.43400724873E+02  0.00000000000E+00 0.  1.
         11    1    3    3    0    0  0.97127768119E+01  0.92937262533E+00 -0.99024277581E+01  0.13901792785E+02  0.51100000000E-03 0. -1.
        -11    1    3    3    0    0  0.37213791366E+01  0.58808949971E+01 -0.10387798366E+02  0.12503597235E+02  0.51100000000E-03 0.  1.
        -12    1    3    3    0    0  0.92323505773E+01 -0.98199411222E+01 -0.16598718924E+02  0.21381885107E+02  0.00000000000E+00 0.  1.
</event>
<event>
 7    1  0.4236733E-010  0.4778727E+02  0.7816164E-02  0.1312668E+00
        -11   -1    0    0    0    0  0.00000000000E+00  0.00000000000E+00  0.45593999997E+02  0.45594000000E+02  0.51100000000E-03 0.  1.
         11   -1    0    0    0    0 -0.00000000000E+00 -0.00000000000E+00 -0.45593999997E+02  0.45594000000E+02  0.51100000000E-03 0. -1.
    9900012    2    1    2    0    0  0.38835887628E+01  0.22604913778E+02 -0.36845068693E+02  0.47787268721E+02  0.19999989404E+02 0.  0.
        -12    1    1    2    0    0 -0.38835887628E+01 -0.22604913778E+02  0.36845068693E+02  0.43400731279E+02  0.00000000000E+00 0.  1.
         11    1    3    3    0    0  0.24516389841E+01  0.16997806771E+02 -0.15610794969E+02  0.23208465881E+02  0.51100000000E-03 0. -1.
        -11    1    3    3    0    0  0.59613624432E+01  0.36212649227E+01 -0.90274565239E+01  0.11408171342E+02  0.51100000000E-03 0.  1.
         12    1    3    3    0    0 -0.45294126645E+01  0.19858420837E+01 -0.12206817200E+02  0.13170631497E+02  0.00000000000E+00 0. -1.
</event>
<event>
 7    1  0.4236733E-010  0.4778727E+02  0.7816164E-02  0.1312668E+00
        -11   -1    0    0    0    0  0.00000000000E+00  0.00000000000E+00  0.45593999997E+02  0.45594000000E+02  0.51100000000E-03 0.  1.
         11   -1    0    0    0    0 -0.00000000000E+00 -0.00000000000E+00 -0.45593999997E+02  0.45594000000E+02  0.51100000000E-03 0. -1.
    9900012    2    1    2    0    0 -0.67401205911E+01 -0.20453433990E+02 -0.37680917121E+02  0.47787266105E+02  0.19999977477E+02 0.  0.
        -12    1    1    2    0    0  0.67401205911E+01  0.20453433990E+02  0.37680917121E+02  0.43400733895E+02  0.00000000000E+00 0.  1.
         11    1    3    3    0    0 -0.44247466579E+01 -0.78507018309E+00 -0.59413170429E+01  0.74494272695E+01  0.51100000000E-03 0.  1.
        -11    1    3    3    0    0 -0.98712119810E-01 -0.12044976159E+01  0.16936816982E+01  0.20806529132E+01  0.51100000000E-03 0. -1.
         12    1    3    3    0    0 -0.22166618134E+01 -0.18463866191E+02 -0.33433281777E+02  0.38257185922E+02  0.00000000000E+00 0. -1.
</event>
<event>
 7    1  0.4236733E-010  0.4778727E+02  0.7816164E-02  0.1312668E+00
        -11   -1    0    0    0    0  0.00000000000E+00  0.00000000000E+00  0.45593999997E+02  0.45594000000E+02  0.51100000000E-03 0.  1.
         11   -1    0    0    0    0 -0.00000000000E+00 -0.00000000000E+00 -0.45593999997E+02  0.45594000000E+02  0.51100000000E-03 0. -1.
    9900012    2    1    2    0    0  0.26701239399E+02  0.51198169998E+01 -0.33829787623E+02  0.47787271409E+02  0.20000001664E+02 0.  0.
        -12    1    1    2    0    0 -0.26701239399E+02 -0.51198169998E+01  0.33829787623E+02  0.43400728591E+02  0.00000000000E+00 0.  1.
         11    1    3    3    0    0  0.21942290954E+02  0.10242976856E+02 -0.24871269892E+02  0.34712573709E+02  0.51100000000E-03 0.  1.
        -11    1    3    3    0    0  0.45485400865E+01 -0.14718080574E+01 -0.79568342064E+01  0.92825991363E+01  0.51100000000E-03 0. -1.
         12    1    3    3    0    0  0.21040835911E+00 -0.36513517992E+01 -0.10016835247E+01  0.37920985645E+01  0.00000000000E+00 0. -1.
</event>
<event>
 7    1  0.4236733E-010  0.4778728E+02  0.7816164E-02  0.1312668E+00
        -11   -1    0    0    0    0  0.00000000000E+00  0.00000000000E+00  0.45593999997E+02  0.45594000000E+02  0.51100000000E-03 0.  1.
         11   -1    0    0    0    0 -0.00000000000E+00 -0.00000000000E+00 -0.45593999997E+02  0.45594000000E+02  0.51100000000E-03 0. -1.
    9900012    2    1    2    0    0  0.16518300272E+02  0.17857280278E+01 -0.40094630151E+02  0.47787280704E+02  0.20000044040E+02 0.  0.
        -12    1    1    2    0    0 -0.16518300272E+02 -0.17857280278E+01  0.40094630151E+02  0.43400719296E+02  0.00000000000E+00 0.  1.
         11    1    3    3    0    0  0.66423047977E+01 -0.57691807167E+01 -0.14945660669E+02  0.17342907261E+02  0.51100000000E-03 0. -1.
        -11    1    3    3    0    0  0.70522568816E+01  0.19886807848E+01 -0.22501728246E+02  0.23664677321E+02  0.51100000000E-03 0.  1.
        -12    1    3    3    0    0  0.28237385931E+01  0.55662279596E+01 -0.26472412364E+01  0.67796961218E+01  0.00000000000E+00 0.  1.
</event>
<event>
 7    1  0.4236733E-010  0.4778728E+02  0.7816164E-02  0.1312668E+00
        -11   -1    0    0    0    0  0.00000000000E+00  0.00000000000E+00  0.45593999997E+02  0.45594000000E+02  0.51100000000E-03 0.  1.
         11   -1    0    0    0    0 -0.00000000000E+00 -0.00000000000E+00 -0.45593999997E+02  0.45594000000E+02  0.51100000000E-03 0. -1.
    9900012    2    1    2    0    0 -0.26289724981E+02  0.33782178135E+02 -0.71580253812E+01  0.47787279655E+02  0.20000039259E+02 0.  0.
        -12    1    1    2    0    0  0.26289724981E+02 -0.33782178135E+02  0.71580253812E+01  0.43400720345E+02  0.00000000000E+00 0.  1.
         11    1    3    3    0    0 -0.18664536100E+02  0.24220172925E+02  0.17916090450E+01  0.30629912627E+02  0.51100000000E-03 0. -1.
        -11    1    3    3    0    0 -0.39087440525E+00 -0.55444959429E+00  0.10150291800E+01  0.12208528374E+01  0.51100000000E-03 0.  1.
         12    1    3    3    0    0 -0.72343144755E+01  0.10116454805E+02 -0.99646636062E+01  0.15936514190E+02  0.00000000000E+00 0. -1.
</event>
<event>
 7    1  0.4236733E-010  0.4778728E+02  0.7816164E-02  0.1312668E+00
        -11   -1    0    0    0    0  0.00000000000E+00  0.00000000000E+00  0.45593999997E+02  0.45594000000E+02  0.51100000000E-03 0. -1.
         11   -1    0    0    0    0 -0.00000000000E+00 -0.00000000000E+00 -0.45593999997E+02  0.45594000000E+02  0.51100000000E-03 0.  1.
    9900012    2    1    2    0    0  0.15864835941E+01  0.33677292761E+02  0.27330306077E+02  0.47787278714E+02  0.20000034969E+02 0.  0.
        -12    1    1    2    0    0 -0.15864835941E+01 -0.33677292761E+02 -0.27330306077E+02  0.43400721286E+02  0.00000000000E+00 0.  1.
         11    1    3    3    0    0  0.15953043739E+00  0.46084577442E+01  0.69647635933E+01  0.83529195442E+01  0.51100000000E-03 0. -1.
        -11    1    3    3    0    0  0.79968996966E+01  0.23233638654E+02  0.12176634072E+02  0.27423033885E+02  0.51100000000E-03 0.  1.
        -12    1    3    3    0    0 -0.65699465399E+01  0.58351963623E+01  0.81889084113E+01  0.12011325285E+02  0.00000000000E+00 0.  1.
</event>
<event>
 7    1  0.4236733E-010  0.4778726E+02  0.7816164E-02  0.1312668E+00
        -11   -1    0    0    0    0  0.00000000000E+00  0.00000000000E+00  0.45593999997E+02  0.45594000000E+02  0.51100000000E-03 0.  1.
         11   -1    0    0    0    0 -0.00000000000E+00 -0.00000000000E+00 -0.45593999997E+02  0.45594000000E+02  0.51100000000E-03 0. -1.
    9900012    2    1    2    0    0 -0.37837037818E+02  0.44638857671E+01 -0.20785975321E+02  0.47787257183E+02  0.19999936801E+02 0.  0.
        -12    1    1    2    0    0  0.37837037818E+02 -0.44638857671E+01  0.20785975321E+02  0.43400742817E+02  0.00000000000E+00 0.  1.
         11    1    3    3    0    0 -0.29720511886E+02 -0.21373751439E+01 -0.82532195029E+01  0.30919133748E+02  0.51100000000E-03 0. -1.
        -11    1    3    3    0    0 -0.42753149209E+01  0.32274942328E+01 -0.32358977920E+01  0.62582802332E+01  0.51100000000E-03 0.  1.
         12    1    3    3    0    0 -0.38412110114E+01  0.33737666782E+01 -0.92968580256E+01  0.10609843203E+02  0.00000000000E+00 0. -1.
</event>
<event>
 7    1  0.4236733E-010  0.4778727E+02  0.7816164E-02  0.1312668E+00
        -11   -1    0    0    0    0  0.00000000000E+00  0.00000000000E+00  0.45593999997E+02  0.45594000000E+02  0.51100000000E-03 0. -1.
         11   -1    0    0    0    0 -0.00000000000E+00 -0.00000000000E+00 -0.45593999997E+02  0.45594000000E+02  0.51100000000E-03 0.  1.
    9900012    2    1    2    0    0  0.27122197931E+02 -0.30556658870E+02  0.14638994943E+02  0.47787271955E+02  0.20000004152E+02 0.  0.
        -12    1    1    2    0    0 -0.27122197931E+02  0.30556658870E+02 -0.14638994943E+02  0.43400728045E+02  0.00000000000E+00 0.  1.
         11    1    3    3    0    0  0.50095558881E+01 -0.12128283344E+02  0.17190994280E+01  0.13234281627E+02  0.51100000000E-03 0. -1.
        -11    1    3    3    0    0  0.91784437967E+01 -0.11249466179E+02  0.13392825455E+02  0.19752521200E+02  0.51100000000E-03 0.  1.
         12    1    3    3    0    0  0.12934198246E+02 -0.71789093464E+01 -0.47292994009E+00  0.14800469128E+02  0.00000000000E+00 0. -1.
</event>
<event>
 7    1  0.4236733E-010  0.4778727E+02  0.7816164E-02  0.1312668E+00
        -11   -1    0    0    0    0  0.00000000000E+00  0.00000000000E+00  0.45593999997E+02  0.45594000000E+02  0.51100000000E-03 0. -1.
         11   -1    0    0    0    0 -0.00000000000E+00 -0.00000000000E+00 -0.45593999997E+02  0.45594000000E+02  0.51100000000E-03 0.  1.
    9900012    2    1    2    0    0 -0.41431105159E+01  0.38789714251E+02 -0.19021457824E+02  0.47787272423E+02  0.20000006288E+02 0.  0.
        -12    1    1    2    0    0  0.41431105159E+01 -0.38789714251E+02  0.19021457824E+02  0.43400727577E+02  0.00000000000E+00 0.  1.
         11    1    3    3    0    0 -0.99830437371E+01  0.35910668479E+02 -0.16204819534E+02  0.40642753958E+02  0.51100000000E-03 0.  1.
        -11    1    3    3    0    0  0.13455784295E+01  0.50587435247E+00 -0.28124207146E+00  0.14647824188E+01  0.51100000000E-03 0. -1.
        -12    1    3    3    0    0  0.44943547917E+01  0.23731714196E+01 -0.25353962182E+01  0.56797360470E+01  0.00000000000E+00 0.  1.
</event>
<event>
 7    1  0.4236733E-010  0.4778727E+02  0.7816164E-02  0.1312668E+00
        -11   -1    0    0    0    0  0.00000000000E+00  0.00000000000E+00  0.45593999997E+02  0.45594000000E+02  0.51100000000E-03 0.  1.
         11   -1    0    0    0    0 -0.00000000000E+00 -0.00000000000E+00 -0.45593999997E+02  0.45594000000E+02  0.51100000000E-03 0. -1.
    9900012    2    1    2    0    0 -0.21691726914E+02  0.75700243952E+01 -0.36821016106E+02  0.47787268290E+02  0.19999987442E+02 0.  0.
        -12    1    1    2    0    0  0.21691726914E+02 -0.75700243952E+01  0.36821016106E+02  0.43400731710E+02  0.00000000000E+00 0.  1.
         11    1    3    3    0    0 -0.45703176913E+00  0.53100585707E+01 -0.58761190897E+01  0.79331189251E+01  0.51100000000E-03 0. -1.
        -11    1    3    3    0    0 -0.71617400397E+00  0.52061570319E+00  0.13131947990E+01  0.15838013624E+01  0.51100000000E-03 0.  1.
        -12    1    3    3    0    0 -0.20518521141E+02  0.17393501214E+01 -0.32258091816E+02  0.38270348003E+02  0.00000000000E+00 0.  1.
</event>
<event>
 7    1  0.4236733E-010  0.4778727E+02  0.7816164E-02  0.1312668E+00
        -11   -1    0    0    0    0  0.00000000000E+00  0.00000000000E+00  0.45593999997E+02  0.45594000000E+02  0.51100000000E-03 0.  1.
         11   -1    0    0    0    0 -0.00000000000E+00 -0.00000000000E+00 -0.45593999997E+02  0.45594000000E+02  0.51100000000E-03 0. -1.
    9900012    2    1    2    0    0  0.10999341610E+02  0.61958611373E+01 -0.41524083325E+02  0.47787266054E+02  0.19999977245E+02 0.  0.
        -12    1    1    2    0    0 -0.10999341610E+02 -0.61958611373E+01  0.41524083325E+02  0.43400733946E+02  0.00000000000E+00 0.  1.
         11    1    3    3    0    0  0.25887523386E+01 -0.18190024795E+01 -0.34780624869E+01  0.47018430019E+01  0.51100000000E-03 0. -1.
        -11    1    3    3    0    0 -0.39639025615E+01 -0.14715543133E+01 -0.12067908059E+02  0.12787196753E+02  0.51100000000E-03 0.  1.
         12    1    3    3    0    0  0.12374491833E+02  0.94864179301E+01 -0.25978112779E+02  0.30298226299E+02  0.00000000000E+00 0. -1.
</event>
<event>
 7    1  0.4236733E-010  0.4778727E+02  0.7816164E-02  0.1312668E+00
        -11   -1    0    0    0    0  0.00000000000E+00  0.00000000000E+00  0.45593999997E+02  0.45594000000E+02  0.51100000000E-03 0. -1.
         11   -1    0    0    0    0 -0.00000000000E+00 -0.00000000000E+00 -0.45593999997E+02  0.45594000000E+02  0.51100000000E-03 0.  1.
    9900012    2    1    2    0    0 -0.34492068261E+02 -0.15694395258E+02  0.21156710161E+02  0.47787271893E+02  0.20000003868E+02 0.  0.
        -12    1    1    2    0    0  0.34492068261E+02  0.15694395258E+02 -0.21156710161E+02  0.43400728107E+02  0.00000000000E+00 0.  1.
         11    1    3    3    0    0 -0.11414393259E+02 -0.62245652069E+01  0.13598408806E+02  0.18813567120E+02  0.51100000000E-03 0. -1.
        -11    1    3    3    0    0 -0.14556554680E+02 -0.66249417393E+01 -0.16878902443E+01  0.16082043120E+02  0.51100000000E-03 0.  1.
         12    1    3    3    0    0 -0.85211203224E+01 -0.28448883119E+01  0.92461915998E+01  0.12891661652E+02  0.00000000000E+00 0. -1.
</event>
<event>
 7    1  0.4236733E-010  0.4778728E+02  0.7816164E-02  0.1312668E+00
        -11   -1    0    0    0    0  0.00000000000E+00  0.00000000000E+00  0.45593999997E+02  0.45594000000E+02  0.51100000000E-03 0.  1.
         11   -1    0    0    0    0 -0.00000000000E+00 -0.00000000000E+00 -0.45593999997E+02  0.45594000000E+02  0.51100000000E-03 0. -1.
    9900012    2    1    2    0    0 -0.15189113956E+01 -0.37304961935E+02 -0.22128150367E+02  0.47787282086E+02  0.20000050341E+02 0.  0.
        -12    1    1    2    0    0  0.15189113956E+01  0.37304961935E+02  0.22128150367E+02  0.43400717914E+02  0.00000000000E+00 0.  1.
         11    1    3    3    0    0 -0.35539827889E+01 -0.78279436657E+01  0.60353647041E-01  0.85971587470E+01  0.51100000000E-03 0. -1.
        -11    1    3    3    0    0 -0.21156000268E+00  0.91465990018E+00 -0.30806711192E+01  0.32205426831E+01  0.51100000000E-03 0.  1.
        -12    1    3    3    0    0  0.22466313960E+01 -0.30391678170E+02 -0.19107832894E+02  0.35969580656E+02  0.00000000000E+00 0.  1.
</event>
<event>
 7    1  0.4236733E-010  0.4778727E+02  0.7816164E-02  0.1312668E+00
        -11   -1    0    0    0    0  0.00000000000E+00  0.00000000000E+00  0.45593999997E+02  0.45594000000E+02  0.51100000000E-03 0.  1.
         11   -1    0    0    0    0 -0.00000000000E+00 -0.00000000000E+00 -0.45593999997E+02  0.45594000000E+02  0.51100000000E-03 0. -1.
    9900012    2    1    2    0    0  0.83510511607E+01  0.25735872839E+02 -0.33934468452E+02  0.47787270105E+02  0.19999995718E+02 0.  0.
        -12    1    1    2    0    0 -0.83510511607E+01 -0.25735872839E+02  0.33934468452E+02  0.43400729895E+02  0.00000000000E+00 0.  1.
         11    1    3    3    0    0  0.79119138974E+01  0.23427342010E+02 -0.27819025359E+02  0.37220114285E+02  0.51100000000E-03 0. -1.
        -11    1    3    3    0    0 -0.65043749672E+00  0.49732539755E+01 -0.58048950435E+01  0.76715794182E+01  0.51100000000E-03 0.  1.
        -12    1    3    3    0    0  0.10895747600E+01 -0.26647231472E+01 -0.31054804954E+00  0.28955764020E+01  0.00000000000E+00 0.  1.
</event>
<event>
 7    1  0.4236733E-010  0.4778727E+02  0.7816164E-02  0.1312668E+00
        -11   -1    0    0    0    0  0.00000000000E+00  0.00000000000E+00  0.45593999997E+02  0.45594000000E+02  0.51100000000E-03 0.  1.
         11   -1    0    0    0    0 -0.00000000000E+00 -0.00000000000E+00 -0.45593999997E+02  0.45594000000E+02  0.51100000000E-03 0. -1.
    9900012    2    1    2    0    0 -0.18458067206E+02 -0.68641220529E+01 -0.38675662089E+02  0.47787271267E+02  0.20000001013E+02 0.  0.
        -12    1    1    2    0    0  0.18458067206E+02  0.68641220529E+01  0.38675662089E+02  0.43400728733E+02  0.00000000000E+00 0.  1.
         11    1    3    3    0    0 -0.38204898635E+01 -0.64799843241E+00 -0.52033634752E+01  0.64877605136E+01  0.51100000000E-03 0. -1.
        -11    1    3    3    0    0 -0.12472878349E+01 -0.98819183256E+01 -0.10614315066E+02  0.14555814004E+02  0.51100000000E-03 0.  1.
         12    1    3    3    0    0 -0.13390289507E+02  0.36657947051E+01 -0.22857983548E+02  0.26743696749E+02  0.00000000000E+00 0. -1.
</event>
<event>
 7    1  0.4236733E-010  0.4778728E+02  0.7816164E-02  0.1312668E+00
        -11   -1    0    0    0    0  0.00000000000E+00  0.00000000000E+00  0.45593999997E+02  0.45594000000E+02  0.51100000000E-03 0.  1.
         11   -1    0    0    0    0 -0.00000000000E+00 -0.00000000000E+00 -0.45593999997E+02  0.45594000000E+02  0.51100000000E-03 0. -1.
    9900012    2    1    2    0    0 -0.22371479032E+02  0.34451228940E+02 -0.14009005459E+02  0.47787280150E+02  0.20000041516E+02 0.  0.
        -12    1    1    2    0    0  0.22371479032E+02 -0.34451228940E+02  0.14009005459E+02  0.43400719850E+02  0.00000000000E+00 0.  1.
         11    1    3    3    0    0 -0.57600421958E+01  0.11371434728E+02 -0.33845305433E+01  0.13188732355E+02  0.51100000000E-03 0. -1.
        -11    1    3    3    0    0 -0.79799289661E+01  0.21942344988E+01  0.22673583786E+01  0.85810748521E+01  0.51100000000E-03 0.  1.
        -12    1    3    3    0    0 -0.86315078705E+01  0.20885559712E+02 -0.12891833295E+02  0.26017472943E+02  0.00000000000E+00 0.  1.
</event>
<event>
 7    1  0.4236733E-010  0.4778728E+02  0.7816164E-02  0.1312668E+00
        -11   -1    0    0    0    0  0.00000000000E+00  0.00000000000E+00  0.45593999997E+02  0.45594000000E+02  0.51100000000E-03 0.  1.
         11   -1    0    0    0    0 -0.00000000000E+00 -0.00000000000E+00 -0.45593999997E+02  0.45594000000E+02  0.51100000000E-03 0. -1.
    9900012    2    1    2    0    0 -0.92088698740E+01  0.13179802893E+02 -0.40312680613E+02  0.47787277577E+02  0.20000029783E+02 0.  0.
        -12    1    1    2    0    0  0.92088698740E+01 -0.13179802893E+02  0.40312680613E+02  0.43400722423E+02  0.00000000000E+00 0.  1.
         11    1    3    3    0    0 -0.19656189855E+01  0.39096208268E+01 -0.27744498470E+02  0.28087470314E+02  0.51100000000E-03 0. -1.
        -11    1    3    3    0    0 -0.26061236333E+00 -0.19155504756E+01 -0.11002965611E+01  0.22243887278E+01  0.51100000000E-03 0.  1.
        -12    1    3    3    0    0 -0.69826385252E+01  0.11185732541E+02 -0.11467885582E+02  0.17475418535E+02  0.00000000000E+00 0.  1.
</event>
<event>
 7    1  0.4236733E-010  0.4778727E+02  0.7816164E-02  0.1312668E+00
        -11   -1    0    0    0    0  0.00000000000E+00  0.00000000000E+00  0.45593999997E+02  0.45594000000E+02  0.51100000000E-03 0. -1.
         11   -1    0    0    0    0 -0.00000000000E+00 -0.00000000000E+00 -0.45593999997E+02  0.45594000000E+02  0.51100000000E-03 0.  1.
    9900012    2    1    2    0    0  0.42917136423E+02  0.64473255962E+01 -0.41806464929E+00  0.47787269774E+02  0.19999994206E+02 0.  0.
        -12    1    1    2    0    0 -0.42917136423E+02 -0.64473255962E+01  0.41806464929E+00  0.43400730226E+02  0.00000000000E+00 0.  1.
         11    1    3    3    0    0  0.62959242254E+01  0.32953514320E+01  0.30578146033E+01  0.77361639927E+01  0.51100000000E-03 0. -1.
        -11    1    3    3    0    0  0.89444001511E+01  0.25843749862E+01 -0.76570033451E+01  0.12054500762E+02  0.51100000000E-03 0.  1.
        -12    1    3    3    0    0  0.27676812047E+02  0.56759917790E+00  0.41811240926E+01  0.27996605019E+02  0.00000000000E+00 0.  1.
</event>
<event>
 7    1  0.4236733E-010  0.4778729E+02  0.7816164E-02  0.1312668E+00
        -11   -1    0    0    0    0  0.00000000000E+00  0.00000000000E+00  0.45593999997E+02  0.45594000000E+02  0.51100000000E-03 0.  1.
         11   -1    0    0    0    0 -0.00000000000E+00 -0.00000000000E+00 -0.45593999997E+02  0.45594000000E+02  0.51100000000E-03 0. -1.
    9900012    2    1    2    0    0 -0.42280096275E+02  0.67412698718E+01  0.71112753755E+01  0.47787291503E+02  0.20000093281E+02 0.  0.
        -12    1    1    2    0    0  0.42280096275E+02 -0.67412698718E+01 -0.71112753755E+01  0.43400708497E+02  0.00000000000E+00 0.  1.
         11    1    3    3    0    0 -0.22172407484E+02  0.19409974045E+01  0.57543715857E+01  0.22989039066E+02  0.51100000000E-03 0. -1.
        -11    1    3    3    0    0 -0.18739459387E+02  0.68698487430E+01  0.48251624335E+01  0.20533980439E+02  0.51100000000E-03 0.  1.
         12    1    3    3    0    0 -0.13682294040E+01 -0.20695762757E+01 -0.34682586436E+01  0.42642719991E+01  0.00000000000E+00 0. -1.
</event>
<event>
 7    1  0.4236733E-010  0.4778729E+02  0.7816164E-02  0.1312668E+00
        -11   -1    0    0    0    0  0.00000000000E+00  0.00000000000E+00  0.45593999997E+02  0.45594000000E+02  0.51100000000E-03 0.  1.
         11   -1    0    0    0    0 -0.00000000000E+00 -0.00000000000E+00 -0.45593999997E+02  0.45594000000E+02  0.51100000000E-03 0. -1.
    9900012    2    1    2    0    0  0.26481506099E+02 -0.16196336550E+02 -0.30332001785E+02  0.47787287849E+02  0.20000076620E+02 0.  0.
        -12    1    1    2    0    0 -0.26481506099E+02  0.16196336550E+02  0.30332001785E+02  0.43400712151E+02  0.00000000000E+00 0.  1.
         11    1    3    3    0    0  0.71972362714E+01  0.19646168954E+00 -0.31947122156E+01  0.78768644487E+01  0.51100000000E-03 0. -1.
        -11    1    3    3    0    0  0.92909480863E+01 -0.10893891956E+02 -0.24222321930E+02  0.28137510164E+02  0.51100000000E-03 0.  1.
         12    1    3    3    0    0  0.99933217412E+01 -0.54989062837E+01 -0.29149676391E+01  0.11772913237E+02  0.00000000000E+00 0. -1.
</event>
<event>
 7    1  0.4236733E-010  0.4778727E+02  0.7816164E-02  0.1312668E+00
        -11   -1    0    0    0    0  0.00000000000E+00  0.00000000000E+00  0.45593999997E+02  0.45594000000E+02  0.51100000000E-03 0.  1.
         11   -1    0    0    0    0 -0.00000000000E+00 -0.00000000000E+00 -0.45593999997E+02  0.45594000000E+02  0.51100000000E-03 0. -1.
    9900012    2    1    2    0    0 -0.35844194355E+01 -0.18045909227E+02 -0.39308021229E+02  0.47787269183E+02  0.19999991514E+02 0.  0.
        -12    1    1    2    0    0  0.35844194355E+01  0.18045909227E+02  0.39308021229E+02  0.43400730817E+02  0.00000000000E+00 0.  1.
         11    1    3    3    0    0 -0.50561782582E+01 -0.37728347104E+01 -0.67956736219E+01  0.92725617047E+01  0.51100000000E-03 0.  1.
        -11    1    3    3    0    0 -0.39327250772E-01 -0.83250649078E+01 -0.37956948853E+01  0.91496203350E+01  0.51100000000E-03 0. -1.
        -12    1    3    3    0    0  0.15110860735E+01 -0.59480096090E+01 -0.28716652721E+02  0.29365087144E+02  0.00000000000E+00 0.  1.
</event>
<event>
 7    1  0.4236733E-010  0.4778726E+02  0.7816164E-02  0.1312668E+00
        -11   -1    0    0    0    0  0.00000000000E+00  0.00000000000E+00  0.45593999997E+02  0.45594000000E+02  0.51100000000E-03 0.  1.
         11   -1    0    0    0    0 -0.00000000000E+00 -0.00000000000E+00 -0.45593999997E+02  0.45594000000E+02  0.51100000000E-03 0. -1.
    9900012    2    1    2    0    0  0.13810638453E+02  0.39541999298E+02 -0.11371940232E+02  0.47787257292E+02  0.19999937297E+02 0.  0.
        -12    1    1    2    0    0 -0.13810638453E+02 -0.39541999298E+02  0.11371940232E+02  0.43400742708E+02  0.00000000000E+00 0.  1.
         11    1    3    3    0    0  0.93949575946E+01  0.73966510830E+01 -0.29251087723E+01  0.12309830910E+02  0.51100000000E-03 0. -1.
        -11    1    3    3    0    0  0.26597219834E+01  0.13582836865E+02 -0.95239046549E+01  0.16800962427E+02  0.51100000000E-03 0.  1.
        -12    1    3    3    0    0  0.17559588748E+01  0.18562511350E+02  0.10770731951E+01  0.18676463955E+02  0.00000000000E+00 0.  1.
</event>
<event>
 7    1  0.4236733E-010  0.4778727E+02  0.7816164E-02  0.1312668E+00
        -11   -1    0    0    0    0  0.00000000000E+00  0.00000000000E+00  0.45593999997E+02  0.45594000000E+02  0.51100000000E-03 0.  1.
         11   -1    0    0    0    0 -0.00000000000E+00 -0.00000000000E+00 -0.45593999997E+02  0.45594000000E+02  0.51100000000E-03 0. -1.
    9900012    2    1    2    0    0 -0.23295350481E+02 -0.36447452129E+02 -0.35402277545E+01  0.47787270360E+02  0.19999996880E+02 0.  0.
        -12    1    1    2    0    0  0.23295350481E+02  0.36447452129E+02  0.35402277545E+01  0.43400729640E+02  0.00000000000E+00 0.  1.
         11    1    3    3    0    0 -0.26233999858E+01 -0.57244192864E+01 -0.52442826368E+01  0.81947363770E+01  0.51100000000E-03 0. -1.
        -11    1    3    3    0    0  0.19294961400E+01 -0.21556671784E+01  0.12789128046E+01  0.31631431459E+01  0.51100000000E-03 0.  1.
        -12    1    3    3    0    0 -0.22601446636E+02 -0.28567365664E+02  0.42514207777E+00  0.36429390837E+02  0.00000000000E+00 0.  1.
</event>
<event>
 7    1  0.4236733E-010  0.4778727E+02  0.7816164E-02  0.1312668E+00
        -11   -1    0    0    0    0  0.00000000000E+00  0.00000000000E+00  0.45593999997E+02  0.45594000000E+02  0.51100000000E-03 0. -1.
         11   -1    0    0    0    0 -0.00000000000E+00 -0.00000000000E+00 -0.45593999997E+02  0.45594000000E+02  0.51100000000E-03 0.  1.
    9900012    2    1    2    0    0 -0.16550193383E+02  0.31953524144E+02  0.24262864830E+02  0.47787271711E+02  0.20000003041E+02 0.  0.
        -12    1    1    2    0    0  0.16550193383E+02 -0.31953524144E+02 -0.24262864830E+02  0.43400728289E+02  0.00000000000E+00 0.  1.
         11    1    3    3    0    0 -0.18434603069E+02  0.24883939633E+02  0.15595305756E+02  0.34673600964E+02  0.51100000000E-03 0. -1.
        -11    1    3    3    0    0 -0.16046757868E+01  0.23376651494E+01  0.60432453335E+01  0.66753634473E+01  0.51100000000E-03 0.  1.
         12    1    3    3    0    0  0.34890854722E+01  0.47319193616E+01  0.26243137402E+01  0.64383072996E+01  0.00000000000E+00 0. -1.
</event>
<event>
 7    1  0.4236733E-010  0.4778727E+02  0.7816164E-02  0.1312668E+00
        -11   -1    0    0    0    0  0.00000000000E+00  0.00000000000E+00  0.45593999997E+02  0.45594000000E+02  0.51100000000E-03 0.  1.
         11   -1    0    0    0    0 -0.00000000000E+00 -0.00000000000E+00 -0.45593999997E+02  0.45594000000E+02  0.51100000000E-03 0. -1.
    9900012    2    1    2    0    0  0.22593803025E+02 -0.32675047607E+02 -0.17478115881E+02  0.47787271826E+02  0.20000003564E+02 0.  0.
        -12    1    1    2    0    0 -0.22593803025E+02  0.32675047607E+02  0.17478115881E+02  0.43400728174E+02  0.00000000000E+00 0.  1.
         11    1    3    3    0    0  0.10332631826E+02 -0.13106580985E+02 -0.64539212095E+01  0.17894100839E+02  0.51100000000E-03 0. -1.
        -11    1    3    3    0    0  0.11374173143E+02 -0.78034745411E+01 -0.70404087162E-01  0.13793874966E+02  0.51100000000E-03 0.  1.
        -12    1    3    3    0    0  0.88699805648E+00 -0.11764992081E+02 -0.10953790584E+02  0.16099296021E+02  0.00000000000E+00 0.  1.
</event>
<event>
 7    1  0.4236733E-010  0.4778728E+02  0.7816164E-02  0.1312668E+00
        -11   -1    0    0    0    0  0.00000000000E+00  0.00000000000E+00  0.45593999997E+02  0.45594000000E+02  0.51100000000E-03 0. -1.
         11   -1    0    0    0    0 -0.00000000000E+00 -0.00000000000E+00 -0.45593999997E+02  0.45594000000E+02  0.51100000000E-03 0.  1.
    9900012    2    1    2    0    0  0.30694166707E+02 -0.66769157539E+01  0.29948452227E+02  0.47787275759E+02  0.20000021496E+02 0.  0.
        -12    1    1    2    0    0 -0.30694166707E+02  0.66769157539E+01 -0.29948452227E+02  0.43400724241E+02  0.00000000000E+00 0.  1.
         11    1    3    3    0    0  0.14174157261E+02 -0.25773150279E+00  0.98597032662E+01  0.17268089308E+02  0.51100000000E-03 0. -1.
        -11    1    3    3    0    0  0.18619832402E+02 -0.30338299946E+01  0.17731472105E+02  0.25890295216E+02  0.51100000000E-03 0.  1.
        -12    1    3    3    0    0 -0.20998229560E+01 -0.33853542565E+01  0.23572768565E+01  0.46288912351E+01  0.00000000000E+00 0.  1.
</event>
<event>
 7    1  0.4236733E-010  0.4778727E+02  0.7816164E-02  0.1312668E+00
        -11   -1    0    0    0    0  0.00000000000E+00  0.00000000000E+00  0.45593999997E+02  0.45594000000E+02  0.51100000000E-03 0. -1.
         11   -1    0    0    0    0 -0.00000000000E+00 -0.00000000000E+00 -0.45593999997E+02  0.45594000000E+02  0.51100000000E-03 0.  1.
    9900012    2    1    2    0    0 -0.60455031917E+01  0.25192258594E+02  0.34819901546E+02  0.47787267914E+02  0.19999985726E+02 0.  0.
        -12    1    1    2    0    0  0.60455031917E+01 -0.25192258594E+02 -0.34819901546E+02  0.43400732086E+02  0.00000000000E+00 0.  1.
         11    1    3    3    0    0 -0.69357679076E+01  0.26141987241E+02  0.25391964923E+02  0.37097981836E+02  0.51100000000E-03 0. -1.
        -11    1    3    3    0    0  0.85176061818E+00  0.46514216093E+00 -0.17196016258E+00  0.98560841067E+00  0.51100000000E-03 0.  1.
         12    1    3    3    0    0  0.38504097770E-01 -0.14148708081E+01  0.95998967855E+01  0.97036776668E+01  0.00000000000E+00 0. -1.
</event>
<event>
 7    1  0.4236733E-010  0.4778728E+02  0.7816164E-02  0.1312668E+00
        -11   -1    0    0    0    0  0.00000000000E+00  0.00000000000E+00  0.45593999997E+02  0.45594000000E+02  0.51100000000E-03 0.  1.
         11   -1    0    0    0    0 -0.00000000000E+00 -0.00000000000E+00 -0.45593999997E+02  0.45594000000E+02  0.51100000000E-03 0. -1.
    9900012    2    1    2    0    0 -0.36173830121E+02 -0.33167927222E+01 -0.23750273322E+02  0.47787279010E+02  0.20000036319E+02 0.  0.
        -12    1    1    2    0    0  0.36173830121E+02  0.33167927222E+01  0.23750273322E+02  0.43400720990E+02  0.00000000000E+00 0.  1.
         11    1    3    3    0    0 -0.44127837946E+01  0.23952044815E+01  0.91795123527E+00  0.51041453798E+01  0.51100000000E-03 0. -1.
        -11    1    3    3    0    0 -0.18990532675E+02  0.30392366841E+01 -0.11902541661E+02  0.22617422248E+02  0.51100000000E-03 0.  1.
        -12    1    3    3    0    0 -0.12770513651E+02 -0.87512338878E+01 -0.12765682896E+02  0.20065711382E+02  0.00000000000E+00 0.  1.
</event>
<event>
 7    1  0.4236733E-010  0.4778727E+02  0.7816164E-02  0.1312668E+00
        -11   -1    0    0    0    0  0.00000000000E+00  0.00000000000E+00  0.45593999997E+02  0.45594000000E+02  0.51100000000E-03 0.  1.
         11   -1    0    0    0    0 -0.00000000000E+00 -0.00000000000E+00 -0.45593999997E+02  0.45594000000E+02  0.51100000000E-03 0. -1.
    9900012    2    1    2    0    0  0.11417498722E+01  0.29275465337E+02 -0.32019786255E+02  0.47787272180E+02  0.20000005180E+02 0.  0.
        -12    1    1    2    0    0 -0.11417498722E+01 -0.29275465337E+02  0.32019786255E+02  0.43400727820E+02  0.00000000000E+00 0.  1.
         11    1    3    3    0    0 -0.31453632871E+01 -0.28534240994E+00 -0.32846788555E+01  0.45567363259E+01  0.51100000000E-03 0. -1.
        -11    1    3    3    0    0  0.11605331697E+01 -0.53245899318E+00 -0.38491432532E+01  0.40553981139E+01  0.51100000000E-03 0.  1.
         12    1    3    3    0    0  0.31265799896E+01  0.30093266740E+02 -0.24885964146E+02  0.39175137741E+02  0.00000000000E+00 0. -1.
</event>
<event>
 7    1  0.4236733E-010  0.4778729E+02  0.7816164E-02  0.1312668E+00
        -11   -1    0    0    0    0  0.00000000000E+00  0.00000000000E+00  0.45593999997E+02  0.45594000000E+02  0.51100000000E-03 0.  1.
         11   -1    0    0    0    0 -0.00000000000E+00 -0.00000000000E+00 -0.45593999997E+02  0.45594000000E+02  0.51100000000E-03 0. -1.
    9900012    2    1    2    0    0  0.18540145358E+02  0.21611791257E+02 -0.32753858145E+02  0.47787288778E+02  0.20000080853E+02 0.  0.
        -12    1    1    2    0    0 -0.18540145358E+02 -0.21611791257E+02  0.32753858145E+02  0.43400711222E+02  0.00000000000E+00 0.  1.
         11    1    3    3    0    0  0.78749232187E+01  0.46223390553E+01 -0.77913296309E+01  0.12003551629E+02  0.51100000000E-03 0. -1.
        -11    1    3    3    0    0  0.99248435546E+01  0.14726316348E+02 -0.95019260841E+01  0.20140841897E+02  0.51100000000E-03 0.  1.
        -12    1    3    3    0    0  0.74037858461E+00  0.22631358541E+01 -0.15460602430E+02  0.15642895251E+02  0.00000000000E+00 0.  1.
</event>
<event>
 7    1  0.4236733E-010  0.4778727E+02  0.7816164E-02  0.1312668E+00
        -11   -1    0    0    0    0  0.00000000000E+00  0.00000000000E+00  0.45593999997E+02  0.45594000000E+02  0.51100000000E-03 0.  1.
         11   -1    0    0    0    0 -0.00000000000E+00 -0.00000000000E+00 -0.45593999997E+02  0.45594000000E+02  0.51100000000E-03 0. -1.
    9900012    2    1    2    0    0 -0.57784269885E+01 -0.37624467830E+02 -0.20847836206E+02  0.47787273365E+02  0.20000010582E+02 0.  0.
        -12    1    1    2    0    0  0.57784269885E+01  0.37624467830E+02  0.20847836206E+02  0.43400726635E+02  0.00000000000E+00 0.  1.
         11    1    3    3    0    0 -0.19716169017E+01  0.92866635603E+00 -0.39030936548E+01  0.44703282594E+01  0.51100000000E-03 0. -1.
        -11    1    3    3    0    0  0.57397864115E+00  0.34461803129E+00 -0.59598865541E+00  0.89633465095E+00  0.51100000000E-03 0.  1.
        -12    1    3    3    0    0 -0.43807887280E+01 -0.38897752217E+02 -0.16348753896E+02  0.42420610455E+02  0.00000000000E+00 0.  1.
</event>
<event>
 7    1  0.4236733E-010  0.4778727E+02  0.7816164E-02  0.1312668E+00
        -11   -1    0    0    0    0  0.00000000000E+00  0.00000000000E+00  0.45593999997E+02  0.45594000000E+02  0.51100000000E-03 0. -1.
         11   -1    0    0    0    0 -0.00000000000E+00 -0.00000000000E+00 -0.45593999997E+02  0.45594000000E+02  0.51100000000E-03 0.  1.
    9900012    2    1    2    0    0  0.41339544757E+02 -0.18088125267E+01  0.13091739216E+02  0.47787269601E+02  0.19999993420E+02 0.  0.
        -12    1    1    2    0    0 -0.41339544757E+02  0.18088125267E+01 -0.13091739216E+02  0.43400730399E+02  0.00000000000E+00 0.  1.
         11    1    3    3    0    0  0.58275623024E+01 -0.13119883633E+01 -0.20104076027E+01  0.63026609336E+01  0.51100000000E-03 0. -1.
        -11    1    3    3    0    0 -0.97829853809E+00  0.14541800110E+00  0.28023736180E+01  0.29717860927E+01  0.51100000000E-03 0.  1.
         12    1    3    3    0    0  0.36490280992E+02 -0.64224216453E+00  0.12299773200E+02  0.38512822575E+02  0.00000000000E+00 0. -1.
</event>
<event>
 7    1  0.4236733E-010  0.4778727E+02  0.7816164E-02  0.1312668E+00
        -11   -1    0    0    0    0  0.00000000000E+00  0.00000000000E+00  0.45593999997E+02  0.45594000000E+02  0.51100000000E-03 0.  1.
         11   -1    0    0    0    0 -0.00000000000E+00 -0.00000000000E+00 -0.45593999997E+02  0.45594000000E+02  0.51100000000E-03 0. -1.
    9900012    2    1    2    0    0 -0.43240046960E+01 -0.15847568152E+02 -0.40171890181E+02  0.47787271968E+02  0.20000004213E+02 0.  0.
        -12    1    1    2    0    0  0.43240046960E+01  0.15847568152E+02  0.40171890181E+02  0.43400728032E+02  0.00000000000E+00 0.  1.
         11    1    3    3    0    0  0.12666240573E+00 -0.20438566823E+01 -0.41721700067E+00  0.20898477910E+01  0.51100000000E-03 0. -1.
        -11    1    3    3    0    0  0.44751992057E+01  0.11436713669E+01 -0.48837076450E+01  0.67220527184E+01  0.51100000000E-03 0.  1.
         12    1    3    3    0    0 -0.89258663074E+01 -0.14947382837E+02 -0.34870965535E+02  0.38975371459E+02  0.00000000000E+00 0. -1.
</event>
<event>
 7    1  0.4236733E-010  0.4778727E+02  0.7816164E-02  0.1312668E+00
        -11   -1    0    0    0    0  0.00000000000E+00  0.00000000000E+00  0.45593999997E+02  0.45594000000E+02  0.51100000000E-03 0. -1.
         11   -1    0    0    0    0 -0.00000000000E+00 -0.00000000000E+00 -0.45593999997E+02  0.45594000000E+02  0.51100000000E-03 0.  1.
    9900012    2    1    2    0    0  0.41376691864E+01  0.42183086305E+02  0.93322114839E+01  0.47787271346E+02  0.20000001375E+02 0.  0.
        -12    1    1    2    0    0 -0.41376691864E+01 -0.42183086305E+02 -0.93322114839E+01  0.43400728654E+02  0.00000000000E+00 0.  1.
         11    1    3    3    0    0  0.27024786116E+01  0.11578943706E+02  0.69374802206E+01  0.13766043734E+02  0.51100000000E-03 0. -1.
        -11    1    3    3    0    0  0.15504166755E+01  0.30708616468E+02  0.52234323557E+01  0.31188253607E+02  0.51100000000E-03 0.  1.
        -12    1    3    3    0    0 -0.11522610069E+00 -0.10447386921E+00 -0.28287010924E+01  0.28329740052E+01  0.00000000000E+00 0.  1.
</event>
<event>
 7    1  0.4236733E-010  0.4778727E+02  0.7816164E-02  0.1312668E+00
        -11   -1    0    0    0    0  0.00000000000E+00  0.00000000000E+00  0.45593999997E+02  0.45594000000E+02  0.51100000000E-03 0. -1.
         11   -1    0    0    0    0 -0.00000000000E+00 -0.00000000000E+00 -0.45593999997E+02  0.45594000000E+02  0.51100000000E-03 0.  1.
    9900012    2    1    2    0    0  0.42419928546E+02 -0.91732210303E+01 -0.15831168156E+00  0.47787269770E+02  0.19999994187E+02 0.  0.
        -12    1    1    2    0    0 -0.42419928546E+02  0.91732210303E+01  0.15831168156E+00  0.43400730230E+02  0.00000000000E+00 0.  1.
         11    1    3    3    0    0  0.13593529964E+01 -0.20844080913E+01 -0.15288512127E+01  0.29206136258E+01  0.51100000000E-03 0. -1.
        -11    1    3    3    0    0  0.22139522608E+02 -0.10949965754E+01 -0.71158811627E+01  0.23280748351E+02  0.51100000000E-03 0.  1.
         12    1    3    3    0    0  0.18921052942E+02 -0.59938163636E+01  0.84864206938E+01  0.21585907792E+02  0.00000000000E+00 0. -1.
</event>
<event>
 7    1  0.4236733E-010  0.4778727E+02  0.7816164E-02  0.1312668E+00
        -11   -1    0    0    0    0  0.00000000000E+00  0.00000000000E+00  0.45593999997E+02  0.45594000000E+02  0.51100000000E-03 0. -1.
         11   -1    0    0    0    0 -0.00000000000E+00 -0.00000000000E+00 -0.45593999997E+02  0.45594000000E+02  0.51100000000E-03 0.  1.
    9900012    2    1    2    0    0 -0.35069259466E+02 -0.25000061992E+02 -0.53635108996E+01  0.47787270648E+02  0.19999998194E+02 0.  0.
        -12    1    1    2    0    0  0.35069259466E+02  0.25000061992E+02  0.53635108996E+01  0.43400729352E+02  0.00000000000E+00 0.  1.
         11    1    3    3    0    0  0.22325745356E+00 -0.34014739499E+00  0.79677416482E+00  0.89464712134E+00  0.51100000000E-03 0. -1.
        -11    1    3    3    0    0 -0.61105103758E+01  0.88079361637E+00  0.32642127618E+01  0.69834962349E+01  0.51100000000E-03 0.  1.
         12    1    3    3    0    0 -0.29182006544E+02 -0.25540708213E+02 -0.94244978262E+01  0.39909127292E+02  0.00000000000E+00 0. -1.
</event>
<event>
 7    1  0.4236733E-010  0.4778727E+02  0.7816164E-02  0.1312668E+00
        -11   -1    0    0    0    0  0.00000000000E+00  0.00000000000E+00  0.45593999997E+02  0.45594000000E+02  0.51100000000E-03 0. -1.
         11   -1    0    0    0    0 -0.00000000000E+00 -0.00000000000E+00 -0.45593999997E+02  0.45594000000E+02  0.51100000000E-03 0.  1.
    9900012    2    1    2    0    0 -0.27026812383E+02  0.12694299214E+02  0.31496502465E+02  0.47787268581E+02  0.19999988770E+02 0.  0.
        -12    1    1    2    0    0  0.27026812383E+02 -0.12694299214E+02 -0.31496502465E+02  0.43400731419E+02  0.00000000000E+00 0.  1.
         11    1    3    3    0    0 -0.35852775032E+01  0.10154378792E+01  0.67852599544E+01  0.77411292310E+01  0.51100000000E-03 0. -1.
        -11    1    3    3    0    0 -0.47459020311E+01  0.20087869052E+01  0.16779072255E+02  0.17552665806E+02  0.51100000000E-03 0.  1.
         12    1    3    3    0    0 -0.18695632849E+02  0.96700744301E+01  0.79321702560E+01  0.22493473544E+02  0.00000000000E+00 0. -1.
</event>
<event>
 7    1  0.4236733E-010  0.4778727E+02  0.7816164E-02  0.1312668E+00
        -11   -1    0    0    0    0  0.00000000000E+00  0.00000000000E+00  0.45593999997E+02  0.45594000000E+02  0.51100000000E-03 0.  1.
         11   -1    0    0    0    0 -0.00000000000E+00 -0.00000000000E+00 -0.45593999997E+02  0.45594000000E+02  0.51100000000E-03 0. -1.
    9900012    2    1    2    0    0  0.18837740999E+01 -0.22231041646E+02 -0.37227078445E+02  0.47787272044E+02  0.20000004559E+02 0.  0.
        -12    1    1    2    0    0 -0.18837740999E+01  0.22231041646E+02  0.37227078445E+02  0.43400727956E+02  0.00000000000E+00 0.  1.
         11    1    3    3    0    0 -0.10165872906E+01 -0.12813436483E+02 -0.26542494529E+02  0.29491043052E+02  0.51100000000E-03 0. -1.
        -11    1    3    3    0    0  0.53956858375E+01 -0.92761508803E+01 -0.11439765053E+02  0.15685299664E+02  0.51100000000E-03 0.  1.
         12    1    3    3    0    0 -0.24953244470E+01 -0.14145428296E+00  0.75518113696E+00  0.26109293288E+01  0.00000000000E+00 0. -1.
</event>
<event>
 7    1  0.4236733E-010  0.4778727E+02  0.7816164E-02  0.1312668E+00
        -11   -1    0    0    0    0  0.00000000000E+00  0.00000000000E+00  0.45593999997E+02  0.45594000000E+02  0.51100000000E-03 0.  1.
         11   -1    0    0    0    0 -0.00000000000E+00 -0.00000000000E+00 -0.45593999997E+02  0.45594000000E+02  0.51100000000E-03 0. -1.
    9900012    2    1    2    0    0 -0.39715663761E+02 -0.62885638779E+01 -0.16332279118E+02  0.47787270458E+02  0.19999997325E+02 0.  0.
        -12    1    1    2    0    0  0.39715663761E+02  0.62885638779E+01  0.16332279118E+02  0.43400729542E+02  0.00000000000E+00 0.  1.
         11    1    3    3    0    0 -0.14991356478E+02 -0.34350298007E+01 -0.28353473833E+00  0.15382476751E+02  0.51100000000E-03 0. -1.
        -11    1    3    3    0    0 -0.89400703057E+01 -0.75238277402E+01 -0.69964212191E+01  0.13619205229E+02  0.51100000000E-03 0.  1.
         12    1    3    3    0    0 -0.15784236977E+02  0.46702936630E+01 -0.90523231603E+01  0.18785588477E+02  0.00000000000E+00 0. -1.
</event>
<event>
 7    1  0.4236733E-010  0.4778726E+02  0.7816164E-02  0.1312668E+00
        -11   -1    0    0    0    0  0.00000000000E+00  0.00000000000E+00  0.45593999997E+02  0.45594000000E+02  0.51100000000E-03 0.  1.
         11   -1    0    0    0    0 -0.00000000000E+00 -0.00000000000E+00 -0.45593999997E+02  0.45594000000E+02  0.51100000000E-03 0. -1.
    9900012    2    1    2    0    0 -0.66169214566E+01 -0.96396494358E+01 -0.41796144375E+02  0.47787260658E+02  0.19999952643E+02 0.  0.
        -12    1    1    2    0    0  0.66169214566E+01  0.96396494358E+01  0.41796144375E+02  0.43400739342E+02  0.00000000000E+00 0.  1.
         11    1    3    3    0    0 -0.39405907586E+01 -0.33158487215E+01 -0.10643214293E+02  0.11823752324E+02  0.51100000000E-03 0. -1.
        -11    1    3    3    0    0 -0.34827345665E+01 -0.26904780997E+00  0.67245720372E+00  0.35572497433E+01  0.51100000000E-03 0.  1.
         12    1    3    3    0    0  0.80640386844E+00 -0.60547529043E+01 -0.31825387286E+02  0.32406258591E+02  0.00000000000E+00 0. -1.
</event>
<event>
 7    1  0.4236733E-010  0.4778727E+02  0.7816164E-02  0.1312668E+00
        -11   -1    0    0    0    0  0.00000000000E+00  0.00000000000E+00  0.45593999997E+02  0.45594000000E+02  0.51100000000E-03 0. -1.
         11   -1    0    0    0    0 -0.00000000000E+00 -0.00000000000E+00 -0.45593999997E+02  0.45594000000E+02  0.51100000000E-03 0.  1.
    9900012    2    1    2    0    0 -0.30537953091E+02  0.37211604319E+01  0.30613881984E+02  0.47787269774E+02  0.19999994209E+02 0.  0.
        -12    1    1    2    0    0  0.30537953091E+02 -0.37211604319E+01 -0.30613881984E+02  0.43400730226E+02  0.00000000000E+00 0.  1.
         11    1    3    3    0    0 -0.14950283774E+02  0.68627484060E+01  0.13055054955E+02  0.21001018088E+02  0.51100000000E-03 0. -1.
        -11    1    3    3    0    0 -0.34591942327E+00  0.34931056032E+01  0.41026423572E+01  0.53993630712E+01  0.51100000000E-03 0.  1.
         12    1    3    3    0    0 -0.15241749894E+02 -0.66346935773E+01  0.13456184672E+02  0.21386888615E+02  0.00000000000E+00 0. -1.
</event>
<event>
 7    1  0.4236733E-010  0.4778727E+02  0.7816164E-02  0.1312668E+00
        -11   -1    0    0    0    0  0.00000000000E+00  0.00000000000E+00  0.45593999997E+02  0.45594000000E+02  0.51100000000E-03 0.  1.
         11   -1    0    0    0    0 -0.00000000000E+00 -0.00000000000E+00 -0.45593999997E+02  0.45594000000E+02  0.51100000000E-03 0. -1.
    9900012    2    1    2    0    0 -0.21569072793E+02 -0.67233023947E+01 -0.37056657445E+02  0.47787267780E+02  0.19999985116E+02 0.  0.
        -12    1    1    2    0    0  0.21569072793E+02  0.67233023947E+01  0.37056657445E+02  0.43400732220E+02  0.00000000000E+00 0.  1.
         11    1    3    3    0    0 -0.22101126352E+02 -0.85398741045E+01 -0.34269690660E+02  0.41662944375E+02  0.51100000000E-03 0. -1.
        -11    1    3    3    0    0 -0.50044833577E+00 -0.15225625558E+01 -0.19615704623E+01  0.25330622205E+01  0.51100000000E-03 0.  1.
        -12    1    3    3    0    0  0.10325018954E+01  0.33391342656E+01 -0.82539632293E+00  0.35912611848E+01  0.00000000000E+00 0.  1.
</event>
<event>
 7    1  0.4236733E-010  0.4778727E+02  0.7816164E-02  0.1312668E+00
        -11   -1    0    0    0    0  0.00000000000E+00  0.00000000000E+00  0.45593999997E+02  0.45594000000E+02  0.51100000000E-03 0.  1.
         11   -1    0    0    0    0 -0.00000000000E+00 -0.00000000000E+00 -0.45593999997E+02  0.45594000000E+02  0.51100000000E-03 0. -1.
    9900012    2    1    2    0    0  0.17020531586E+02  0.10904822010E+02 -0.38405854450E+02  0.47787270806E+02  0.19999998912E+02 0.  0.
        -12    1    1    2    0    0 -0.17020531586E+02 -0.10904822010E+02  0.38405854450E+02  0.43400729194E+02  0.00000000000E+00 0.  1.
         11    1    3    3    0    0  0.14050888857E+01 -0.31472927749E+01 -0.28495071756E+01  0.44720708841E+01  0.51100000000E-03 0.  1.
        -11    1    3    3    0    0 -0.12602909269E+00  0.68876577305E+01 -0.63331024173E+01  0.93575583799E+01  0.51100000000E-03 0. -1.
         12    1    3    3    0    0  0.15741471793E+02  0.71644570548E+01 -0.29223244857E+02  0.33957641542E+02  0.00000000000E+00 0. -1.
</event>
<event>
 7    1  0.4236733E-010  0.4778728E+02  0.7816164E-02  0.1312668E+00
        -11   -1    0    0    0    0  0.00000000000E+00  0.00000000000E+00  0.45593999997E+02  0.45594000000E+02  0.51100000000E-03 0.  1.
         11   -1    0    0    0    0 -0.00000000000E+00 -0.00000000000E+00 -0.45593999997E+02  0.45594000000E+02  0.51100000000E-03 0. -1.
    9900012    2    1    2    0    0  0.43362756728E+01  0.26930453985E+02 -0.33757515827E+02  0.47787279806E+02  0.20000039948E+02 0.  0.
        -12    1    1    2    0    0 -0.43362756728E+01 -0.26930453985E+02  0.33757515827E+02  0.43400720194E+02  0.00000000000E+00 0.  1.
         11    1    3    3    0    0  0.53287172004E+01  0.87786378586E+01 -0.18160031011E+02  0.20862560635E+02  0.51100000000E-03 0. -1.
        -11    1    3    3    0    0  0.18431628164E+01 -0.11627388609E+01 -0.47370914703E+00  0.22301595108E+01  0.51100000000E-03 0.  1.
        -12    1    3    3    0    0 -0.28356043440E+01  0.19314554987E+02 -0.15123775669E+02  0.24694559661E+02  0.00000000000E+00 0.  1.
</event>
<event>
 7    1  0.4236733E-010  0.4778727E+02  0.7816164E-02  0.1312668E+00
        -11   -1    0    0    0    0  0.00000000000E+00  0.00000000000E+00  0.45593999997E+02  0.45594000000E+02  0.51100000000E-03 0.  1.
         11   -1    0    0    0    0 -0.00000000000E+00 -0.00000000000E+00 -0.45593999997E+02  0.45594000000E+02  0.51100000000E-03 0. -1.
    9900012    2    1    2    0    0 -0.26965896809E+02 -0.95007799731E+01 -0.32652698960E+02  0.47787272354E+02  0.20000005972E+02 0.  0.
        -12    1    1    2    0    0  0.26965896809E+02  0.95007799731E+01  0.32652698960E+02  0.43400727646E+02  0.00000000000E+00 0.  1.
         11    1    3    3    0    0 -0.62284827134E+01 -0.26815100381E+01 -0.17921218340E+02  0.19161277620E+02  0.51100000000E-03 0. -1.
        -11    1    3    3    0    0 -0.32571553080E+01 -0.59468875337E+01 -0.60587971174E+01  0.90930498080E+01  0.51100000000E-03 0.  1.
         12    1    3    3    0    0 -0.17480258788E+02 -0.87238240132E+00 -0.86726835027E+01  0.19532944926E+02  0.00000000000E+00 0. -1.
</event>
<event>
 7    1  0.4236733E-010  0.4778727E+02  0.7816164E-02  0.1312668E+00
        -11   -1    0    0    0    0  0.00000000000E+00  0.00000000000E+00  0.45593999997E+02  0.45594000000E+02  0.51100000000E-03 0.  1.
         11   -1    0    0    0    0 -0.00000000000E+00 -0.00000000000E+00 -0.45593999997E+02  0.45594000000E+02  0.51100000000E-03 0. -1.
    9900012    2    1    2    0    0  0.41441466036E+02 -0.12427295573E+02  0.34337884087E+01  0.47787266305E+02  0.19999978389E+02 0.  0.
        -12    1    1    2    0    0 -0.41441466036E+02  0.12427295573E+02 -0.34337884087E+01  0.43400733695E+02  0.00000000000E+00 0.  1.
         11    1    3    3    0    0  0.24450250552E+02 -0.87165910922E+01  0.78355430628E+01  0.27114377140E+02  0.51100000000E-03 0. -1.
        -11    1    3    3    0    0  0.35335976891E+01  0.22373038497E+01  0.19892990457E+01  0.46313229318E+01  0.51100000000E-03 0.  1.
         12    1    3    3    0    0  0.13457617795E+02 -0.59480083306E+01 -0.63910536998E+01  0.16041566233E+02  0.00000000000E+00 0. -1.
</event>
<event>
 7    1  0.4236733E-010  0.4778727E+02  0.7816164E-02  0.1312668E+00
        -11   -1    0    0    0    0  0.00000000000E+00  0.00000000000E+00  0.45593999997E+02  0.45594000000E+02  0.51100000000E-03 0.  1.
         11   -1    0    0    0    0 -0.00000000000E+00 -0.00000000000E+00 -0.45593999997E+02  0.45594000000E+02  0.51100000000E-03 0. -1.
    9900012    2    1    2    0    0 -0.28973270747E+02 -0.86536553128E+01 -0.31133377067E+02  0.47787270333E+02  0.19999996756E+02 0.  0.
        -12    1    1    2    0    0  0.28973270747E+02  0.86536553128E+01  0.31133377067E+02  0.43400729667E+02  0.00000000000E+00 0.  1.
         11    1    3    3    0    0 -0.13285085775E+02 -0.97766212532E+01 -0.78943688045E+01  0.18286521984E+02  0.51100000000E-03 0. -1.
        -11    1    3    3    0    0 -0.11992878602E+02 -0.70412552879E+00 -0.99876623112E+01  0.15623006389E+02  0.51100000000E-03 0.  1.
        -12    1    3    3    0    0 -0.36953063699E+01  0.18270914693E+01 -0.13251345951E+02  0.13877741960E+02  0.00000000000E+00 0.  1.
</event>
<event>
 7    1  0.4236733E-010  0.4778727E+02  0.7816164E-02  0.1312668E+00
        -11   -1    0    0    0    0  0.00000000000E+00  0.00000000000E+00  0.45593999997E+02  0.45594000000E+02  0.51100000000E-03 0. -1.
         11   -1    0    0    0    0 -0.00000000000E+00 -0.00000000000E+00 -0.45593999997E+02  0.45594000000E+02  0.51100000000E-03 0.  1.
    9900012    2    1    2    0    0  0.37037225807E+02 -0.69462604243E+01  0.21531756469E+02  0.47787272288E+02  0.20000005668E+02 0.  0.
        -12    1    1    2    0    0 -0.37037225807E+02  0.69462604243E+01 -0.21531756469E+02  0.43400727712E+02  0.00000000000E+00 0.  1.
         11    1    3    3    0    0  0.74648885976E+01  0.59612639831E+01  0.30796167031E+01  0.10037194297E+02  0.51100000000E-03 0. -1.
        -11    1    3    3    0    0  0.18749189810E+01 -0.19219064410E+01  0.35035113983E+01  0.44140274050E+01  0.51100000000E-03 0.  1.
         12    1    3    3    0    0  0.27697418228E+02 -0.10985617966E+02  0.14948628367E+02  0.33336050586E+02  0.00000000000E+00 0. -1.
</event>
<event>
 7    1  0.4236733E-010  0.4778727E+02  0.7816164E-02  0.1312668E+00
        -11   -1    0    0    0    0  0.00000000000E+00  0.00000000000E+00  0.45593999997E+02  0.45594000000E+02  0.51100000000E-03 0. -1.
         11   -1    0    0    0    0 -0.00000000000E+00 -0.00000000000E+00 -0.45593999997E+02  0.45594000000E+02  0.51100000000E-03 0.  1.
    9900012    2    1    2    0    0  0.15130462044E+02  0.20085928983E+02  0.35372988626E+02  0.47787265569E+02  0.19999975035E+02 0.  0.
        -12    1    1    2    0    0 -0.15130462044E+02 -0.20085928983E+02 -0.35372988626E+02  0.43400734431E+02  0.00000000000E+00 0.  1.
         11    1    3    3    0    0 -0.14880784824E+01  0.33176356052E+00  0.60559785359E+01  0.62449436281E+01  0.51100000000E-03 0. -1.
        -11    1    3    3    0    0  0.22219895741E+00 -0.60032503580E+00 -0.12013716061E+01  0.13612701871E+01  0.51100000000E-03 0.  1.
         12    1    3    3    0    0  0.16396341569E+02  0.20354490459E+02  0.30518381697E+02  0.40181051754E+02  0.00000000000E+00 0. -1.
</event>
<event>
 7    1  0.4236733E-010  0.4778727E+02  0.7816164E-02  0.1312668E+00
        -11   -1    0    0    0    0  0.00000000000E+00  0.00000000000E+00  0.45593999997E+02  0.45594000000E+02  0.51100000000E-03 0.  1.
         11   -1    0    0    0    0 -0.00000000000E+00 -0.00000000000E+00 -0.45593999997E+02  0.45594000000E+02  0.51100000000E-03 0. -1.
    9900012    2    1    2    0    0  0.86718490435E+01  0.42196329232E+02  0.52813359569E+01  0.47787266412E+02  0.19999978881E+02 0.  0.
        -12    1    1    2    0    0 -0.86718490435E+01 -0.42196329232E+02 -0.52813359569E+01  0.43400733588E+02  0.00000000000E+00 0.  1.
         11    1    3    3    0    0  0.60800090555E+01  0.35282515543E+02  0.42339421614E+01  0.36052027400E+02  0.51100000000E-03 0. -1.
        -11    1    3    3    0    0  0.51756091285E+01  0.65649211687E+01 -0.10011959810E+01  0.84194722789E+01  0.51100000000E-03 0.  1.
        -12    1    3    3    0    0 -0.25837691405E+01  0.34889252028E+00  0.20485897764E+01  0.33157667340E+01  0.00000000000E+00 0.  1.
</event>
<event>
 7    1  0.4236733E-010  0.4778728E+02  0.7816164E-02  0.1312668E+00
        -11   -1    0    0    0    0  0.00000000000E+00  0.00000000000E+00  0.45593999997E+02  0.45594000000E+02  0.51100000000E-03 0.  1.
         11   -1    0    0    0    0 -0.00000000000E+00 -0.00000000000E+00 -0.45593999997E+02  0.45594000000E+02  0.51100000000E-03 0. -1.
    9900012    2    1    2    0    0 -0.25862629259E+02  0.34120848124E+02 -0.71073763317E+01  0.47787278033E+02  0.20000031866E+02 0.  0.
        -12    1    1    2    0    0  0.25862629259E+02 -0.34120848124E+02  0.71073763317E+01  0.43400721967E+02  0.00000000000E+00 0.  1.
         11    1    3    3    0    0 -0.94748406877E+01  0.15222735349E+02 -0.43952690699E+01  0.18461383156E+02  0.51100000000E-03 0. -1.
        -11    1    3    3    0    0  0.19122685351E+01  0.72414440816E+01 -0.10831792196E+01  0.75675994093E+01  0.51100000000E-03 0.  1.
        -12    1    3    3    0    0 -0.18300057106E+02  0.11656668694E+02 -0.16289280423E+01  0.21758295469E+02  0.00000000000E+00 0.  1.
</event>
<event>
 7    1  0.4236733E-010  0.4778727E+02  0.7816164E-02  0.1312668E+00
        -11   -1    0    0    0    0  0.00000000000E+00  0.00000000000E+00  0.45593999997E+02  0.45594000000E+02  0.51100000000E-03 0. -1.
         11   -1    0    0    0    0 -0.00000000000E+00 -0.00000000000E+00 -0.45593999997E+02  0.45594000000E+02  0.51100000000E-03 0.  1.
    9900012    2    1    2    0    0  0.13288649650E-01 -0.28151728917E+02  0.33031848797E+02  0.47787273595E+02  0.20000011627E+02 0.  0.
        -12    1    1    2    0    0 -0.13288649650E-01  0.28151728917E+02 -0.33031848797E+02  0.43400726405E+02  0.00000000000E+00 0.  1.
         11    1    3    3    0    0  0.13437417556E+01  0.77934756869E+00  0.21320312419E+00  0.15679541995E+01  0.51100000000E-03 0. -1.
        -11    1    3    3    0    0  0.55405343448E+01 -0.93880296483E+01  0.63775868761E+01  0.12629577828E+02  0.51100000000E-03 0.  1.
         12    1    3    3    0    0 -0.68709874507E+01 -0.19543046837E+02  0.26441058796E+02  0.33589741567E+02  0.00000000000E+00 0. -1.
</event>
<event>
 7    1  0.4236733E-010  0.4778727E+02  0.7816164E-02  0.1312668E+00
        -11   -1    0    0    0    0  0.00000000000E+00  0.00000000000E+00  0.45593999997E+02  0.45594000000E+02  0.51100000000E-03 0. -1.
         11   -1    0    0    0    0 -0.00000000000E+00 -0.00000000000E+00 -0.45593999997E+02  0.45594000000E+02  0.51100000000E-03 0.  1.
    9900012    2    1    2    0    0 -0.38012324723E+01 -0.11857257683E+02  0.41576186543E+02  0.47787271717E+02  0.20000003064E+02 0.  0.
        -12    1    1    2    0    0  0.38012324723E+01  0.11857257683E+02 -0.41576186543E+02  0.43400728283E+02  0.00000000000E+00 0.  1.
         11    1    3    3    0    0  0.40697824766E+01  0.11220905538E+01  0.10353977049E+02  0.11181549876E+02  0.51100000000E-03 0.  1.
        -11    1    3    3    0    0 -0.44274960488E+01 -0.26172244999E+00  0.15347923099E+02  0.15975918240E+02  0.51100000000E-03 0. -1.
         12    1    3    3    0    0 -0.34435189002E+01 -0.12717625787E+02  0.15874286395E+02  0.20629803601E+02  0.00000000000E+00 0. -1.
</event>
<event>
 7    1  0.4236733E-010  0.4778727E+02  0.7816164E-02  0.1312668E+00
        -11   -1    0    0    0    0  0.00000000000E+00  0.00000000000E+00  0.45593999997E+02  0.45594000000E+02  0.51100000000E-03 0. -1.
         11   -1    0    0    0    0 -0.00000000000E+00 -0.00000000000E+00 -0.45593999997E+02  0.45594000000E+02  0.51100000000E-03 0.  1.
    9900012    2    1    2    0    0  0.49588493281E+01  0.42587123848E+01  0.42905667232E+02  0.47787273065E+02  0.20000009213E+02 0.  0.
        -12    1    1    2    0    0 -0.49588493281E+01 -0.42587123848E+01 -0.42905667232E+02  0.43400726935E+02  0.00000000000E+00 0.  1.
         11    1    3    3    0    0 -0.96453489632E+00  0.28896844080E+01  0.31235702830E+02  0.31383908856E+02  0.51100000000E-03 0. -1.
        -11    1    3    3    0    0 -0.13521234422E+01  0.33572986258E+01  0.19848430391E+01  0.41278679747E+01  0.51100000000E-03 0.  1.
         12    1    3    3    0    0  0.72755076666E+01 -0.19882706490E+01  0.96851213631E+01  0.12275496234E+02  0.00000000000E+00 0. -1.
</event>
<event>
 7    1  0.4236733E-010  0.4778727E+02  0.7816164E-02  0.1312668E+00
        -11   -1    0    0    0    0  0.00000000000E+00  0.00000000000E+00  0.45593999997E+02  0.45594000000E+02  0.51100000000E-03 0.  1.
         11   -1    0    0    0    0 -0.00000000000E+00 -0.00000000000E+00 -0.45593999997E+02  0.45594000000E+02  0.51100000000E-03 0. -1.
    9900012    2    1    2    0    0 -0.26790020499E+02  0.13495525642E+01 -0.34118863182E+02  0.47787270568E+02  0.19999997826E+02 0.  0.
        -12    1    1    2    0    0  0.26790020499E+02 -0.13495525642E+01  0.34118863182E+02  0.43400729432E+02  0.00000000000E+00 0.  1.
         11    1    3    3    0    0 -0.93330068443E+01 -0.24420795474E+01 -0.12645726856E+02  0.15905444893E+02  0.51100000000E-03 0.  1.
        -11    1    3    3    0    0 -0.45632030368E+01 -0.56806977122E+01 -0.90916882549E+01  0.11651263624E+02  0.51100000000E-03 0. -1.
         12    1    3    3    0    0 -0.12893810617E+02  0.94723298238E+01 -0.12381448071E+02  0.20230562050E+02  0.00000000000E+00 0. -1.
</event>
<event>
 7    1  0.4236733E-010  0.4778728E+02  0.7816164E-02  0.1312668E+00
        -11   -1    0    0    0    0  0.00000000000E+00  0.00000000000E+00  0.45593999997E+02  0.45594000000E+02  0.51100000000E-03 0. -1.
         11   -1    0    0    0    0 -0.00000000000E+00 -0.00000000000E+00 -0.45593999997E+02  0.45594000000E+02  0.51100000000E-03 0.  1.
    9900012    2    1    2    0    0 -0.29266379211E+02 -0.15579539875E+02  0.28006773522E+02  0.47787281366E+02  0.20000047061E+02 0.  0.
        -12    1    1    2    0    0  0.29266379211E+02  0.15579539875E+02 -0.28006773522E+02  0.43400718634E+02  0.00000000000E+00 0.  1.
         11    1    3    3    0    0 -0.23640127313E+01 -0.14214549787E+01  0.40652034581E+01  0.49127354770E+01  0.51100000000E-03 0. -1.
        -11    1    3    3    0    0 -0.86557617850E+01 -0.30605717866E+00  0.16761199655E+02  0.18866735202E+02  0.51100000000E-03 0.  1.
         12    1    3    3    0    0 -0.18246604695E+02 -0.13852027717E+02  0.71803704091E+01  0.24007810687E+02  0.00000000000E+00 0. -1.
</event>
<event>
 7    1  0.4236733E-010  0.4778727E+02  0.7816164E-02  0.1312668E+00
        -11   -1    0    0    0    0  0.00000000000E+00  0.00000000000E+00  0.45593999997E+02  0.45594000000E+02  0.51100000000E-03 0.  1.
         11   -1    0    0    0    0 -0.00000000000E+00 -0.00000000000E+00 -0.45593999997E+02  0.45594000000E+02  0.51100000000E-03 0. -1.
    9900012    2    1    2    0    0  0.15564112645E+02  0.20944281505E+02 -0.34680233941E+02  0.47787272398E+02  0.20000006172E+02 0.  0.
        -12    1    1    2    0    0 -0.15564112645E+02 -0.20944281505E+02  0.34680233941E+02  0.43400727602E+02  0.00000000000E+00 0.  1.
         11    1    3    3    0    0  0.29913568406E+01  0.17117649932E+02 -0.23025292933E+02  0.28846598931E+02  0.51100000000E-03 0. -1.
        -11    1    3    3    0    0 -0.50198229010E+00  0.39318120296E+00  0.46163070971E+00  0.78719810163E+00  0.51100000000E-03 0.  1.
        -12    1    3    3    0    0  0.13074738094E+02  0.34334503703E+01 -0.12116571717E+02  0.18153475366E+02  0.00000000000E+00 0.  1.
</event>
<event>
 7    1  0.4236733E-010  0.4778727E+02  0.7816164E-02  0.1312668E+00
        -11   -1    0    0    0    0  0.00000000000E+00  0.00000000000E+00  0.45593999997E+02  0.45594000000E+02  0.51100000000E-03 0.  1.
         11   -1    0    0    0    0 -0.00000000000E+00 -0.00000000000E+00 -0.45593999997E+02  0.45594000000E+02  0.51100000000E-03 0. -1.
    9900012    2    1    2    0    0 -0.32953050603E+02  0.18032204462E+02 -0.21738423953E+02  0.47787273995E+02  0.20000013455E+02 0.  0.
        -12    1    1    2    0    0  0.32953050603E+02 -0.18032204462E+02  0.21738423953E+02  0.43400726005E+02  0.00000000000E+00 0.  1.
         11    1    3    3    0    0 -0.18396995038E+02  0.18690348362E+02 -0.13664253417E+02  0.29571783342E+02  0.51100000000E-03 0. -1.
        -11    1    3    3    0    0 -0.29270961474E+01  0.27975264112E+01 -0.99458906821E+00  0.41693229130E+01  0.51100000000E-03 0.  1.
        -12    1    3    3    0    0 -0.11628959417E+02 -0.34556703116E+01 -0.70795814674E+01  0.14046167740E+02  0.00000000000E+00 0.  1.
</event>
<event>
 7    1  0.4236733E-010  0.4778727E+02  0.7816164E-02  0.1312668E+00
        -11   -1    0    0    0    0  0.00000000000E+00  0.00000000000E+00  0.45593999997E+02  0.45594000000E+02  0.51100000000E-03 0.  1.
         11   -1    0    0    0    0 -0.00000000000E+00 -0.00000000000E+00 -0.45593999997E+02  0.45594000000E+02  0.51100000000E-03 0. -1.
    9900012    2    1    2    0    0 -0.40787923719E+02 -0.13710783795E+02  0.56553503897E+01  0.47787270725E+02  0.19999998544E+02 0.  0.
        -12    1    1    2    0    0  0.40787923719E+02  0.13710783795E+02 -0.56553503897E+01  0.43400729275E+02  0.00000000000E+00 0.  1.
         11    1    3    3    0    0 -0.14455164448E+02 -0.28462418849E+01 -0.16362734879E+01  0.14823301363E+02  0.51100000000E-03 0. -1.
        -11    1    3    3    0    0 -0.13402809120E+02 -0.58337562318E+01 -0.39111214850E+01  0.15131585364E+02  0.51100000000E-03 0.  1.
        -12    1    3    3    0    0 -0.12929950150E+02 -0.50307856779E+01  0.11202745363E+02  0.17832383999E+02  0.00000000000E+00 0.  1.
</event>
<event>
 7    1  0.4236733E-010  0.4778727E+02  0.7816164E-02  0.1312668E+00
        -11   -1    0    0    0    0  0.00000000000E+00  0.00000000000E+00  0.45593999997E+02  0.45594000000E+02  0.51100000000E-03 0.  1.
         11   -1    0    0    0    0 -0.00000000000E+00 -0.00000000000E+00 -0.45593999997E+02  0.45594000000E+02  0.51100000000E-03 0. -1.
    9900012    2    1    2    0    0 -0.73432781425E+01  0.41872241055E+02 -0.87415749763E+01  0.47787269154E+02  0.19999991383E+02 0.  0.
        -12    1    1    2    0    0  0.73432781425E+01 -0.41872241055E+02  0.87415749763E+01  0.43400730846E+02  0.00000000000E+00 0.  1.
         11    1    3    3    0    0 -0.61094110499E+01  0.18415869131E+02 -0.66613396420E+01  0.20514448209E+02  0.51100000000E-03 0. -1.
        -11    1    3    3    0    0 -0.62800572541E+01  0.16732822628E+02 -0.46770143070E+01  0.18474331796E+02  0.51100000000E-03 0.  1.
        -12    1    3    3    0    0  0.50461901615E+01  0.67235492965E+01  0.25967789727E+01  0.87984891499E+01  0.00000000000E+00 0.  1.
</event>
<event>
 7    1  0.4236733E-010  0.4778727E+02  0.7816164E-02  0.1312668E+00
        -11   -1    0    0    0    0  0.00000000000E+00  0.00000000000E+00  0.45593999997E+02  0.45594000000E+02  0.51100000000E-03 0. -1.
         11   -1    0    0    0    0 -0.00000000000E+00 -0.00000000000E+00 -0.45593999997E+02  0.45594000000E+02  0.51100000000E-03 0.  1.
    9900012    2    1    2    0    0  0.42694180931E+02  0.57532070266E+01  0.52660243705E+01  0.47787268565E+02  0.19999988694E+02 0.  0.
        -12    1    1    2    0    0 -0.42694180931E+02 -0.57532070266E+01 -0.52660243705E+01  0.43400731435E+02  0.00000000000E+00 0.  1.
         11    1    3    3    0    0  0.21996596303E+01 -0.64404318010E+00 -0.25092965324E+01  0.33985090048E+01  0.51100000000E-03 0. -1.
        -11    1    3    3    0    0  0.32499527206E+01 -0.38343391692E+01  0.21207220187E+00  0.50308373489E+01  0.51100000000E-03 0.  1.
         12    1    3    3    0    0  0.37244568580E+02  0.10231589376E+02  0.75632487010E+01  0.39357922211E+02  0.00000000000E+00 0. -1.
</event>
<event>
 7    1  0.4236733E-010  0.4778727E+02  0.7816164E-02  0.1312668E+00
        -11   -1    0    0    0    0  0.00000000000E+00  0.00000000000E+00  0.45593999997E+02  0.45594000000E+02  0.51100000000E-03 0. -1.
         11   -1    0    0    0    0 -0.00000000000E+00 -0.00000000000E+00 -0.45593999997E+02  0.45594000000E+02  0.51100000000E-03 0.  1.
    9900012    2    1    2    0    0  0.38526788038E+02 -0.10874356787E+02  0.16764804031E+02  0.47787266294E+02  0.19999978339E+02 0.  0.
        -12    1    1    2    0    0 -0.38526788038E+02  0.10874356787E+02 -0.16764804031E+02  0.43400733706E+02  0.00000000000E+00 0.  1.
         11    1    3    3    0    0  0.11662643475E+02 -0.77335486840E+01  0.45173475416E+01  0.14704810681E+02  0.51100000000E-03 0. -1.
        -11    1    3    3    0    0  0.53345563345E+01 -0.24758379125E+01  0.97660639025E+01  0.11400143379E+02  0.51100000000E-03 0.  1.
         12    1    3    3    0    0  0.21529588228E+02 -0.66497019055E+00  0.24813925869E+01  0.21682312234E+02  0.00000000000E+00 0. -1.
</event>
<event>
 7    1  0.4236733E-010  0.4778727E+02  0.7816164E-02  0.1312668E+00
        -11   -1    0    0    0    0  0.00000000000E+00  0.00000000000E+00  0.45593999997E+02  0.45594000000E+02  0.51100000000E-03 0.  1.
         11   -1    0    0    0    0 -0.00000000000E+00 -0.00000000000E+00 -0.45593999997E+02  0.45594000000E+02  0.51100000000E-03 0. -1.
    9900012    2    1    2    0    0  0.10828456948E+02  0.37940500131E+02 -0.18079992751E+02  0.47787272265E+02  0.20000005564E+02 0.  0.
        -12    1    1    2    0    0 -0.10828456948E+02 -0.37940500131E+02  0.18079992751E+02  0.43400727735E+02  0.00000000000E+00 0.  1.
         11    1    3    3    0    0  0.14770152204E+01  0.74944451703E+00  0.17384488108E+01  0.24011342266E+01  0.51100000000E-03 0. -1.
        -11    1    3    3    0    0  0.11697761674E+02  0.19456700768E+02 -0.86350144088E+01  0.24289180865E+02  0.51100000000E-03 0.  1.
         12    1    3    3    0    0 -0.23463199472E+01  0.17734354846E+02 -0.11183427153E+02  0.21096957174E+02  0.00000000000E+00 0. -1.
</event>
<event>
 7    1  0.4725834E-010  0.4778727E+02  0.7816164E-02  0.1312668E+00
        -11   -1    0    0    0    0  0.00000000000E+00  0.00000000000E+00  0.45593999997E+02  0.45594000000E+02  0.51100000000E-03 0. -1.
         11   -1    0    0    0    0 -0.00000000000E+00 -0.00000000000E+00 -0.45593999997E+02  0.45594000000E+02  0.51100000000E-03 0.  1.
    9900012    2    1    2    0    0 -0.60706433733E+01 -0.38943361111E+02  0.18170998182E+02  0.47787271199E+02  0.20000000703E+02 0.  0.
        -12    1    1    2    0    0  0.60706433733E+01  0.38943361111E+02 -0.18170998182E+02  0.43400728801E+02  0.00000000000E+00 0.  1.
         11    1    3    3    0    0 -0.70012046543E+00 -0.20065247623E+02  0.10477152025E+02  0.22646744703E+02  0.51100000000E-03 0. -1.
        -11    1    3    3    0    0  0.41301281100E+01 -0.35952460445E+01  0.39714455777E+01  0.67643279462E+01  0.51100000000E-03 0.  1.
        -12    1    3    3    0    0 -0.95006510179E+01 -0.15282867443E+02  0.37224005793E+01  0.18376198549E+02  0.00000000000E+00 0.  1.
</event>
<event>
 7    1  0.4236733E-010  0.4778727E+02  0.7816164E-02  0.1312668E+00
        -11   -1    0    0    0    0  0.00000000000E+00  0.00000000000E+00  0.45593999997E+02  0.45594000000E+02  0.51100000000E-03 0.  1.
         11   -1    0    0    0    0 -0.00000000000E+00 -0.00000000000E+00 -0.45593999997E+02  0.45594000000E+02  0.51100000000E-03 0. -1.
    9900012    2    1    2    0    0 -0.12158381773E+02  0.25555948447E+02 -0.32904264915E+02  0.47787269615E+02  0.19999993481E+02 0.  0.
        -12    1    1    2    0    0  0.12158381773E+02 -0.25555948447E+02  0.32904264915E+02  0.43400730385E+02  0.00000000000E+00 0.  1.
         11    1    3    3    0    0  0.70517008074E+00 -0.54363689073E+00 -0.32692253444E+01  0.33883093905E+01  0.51100000000E-03 0.  1.
        -11    1    3    3    0    0 -0.57059646260E+01  0.64081101123E+01 -0.61026737758E+00  0.86019959345E+01  0.51100000000E-03 0. -1.
         12    1    3    3    0    0 -0.71575872278E+01  0.19691475226E+02 -0.29024772193E+02  0.35796964290E+02  0.00000000000E+00 0. -1.
</event>
<event>
 7    1  0.4236733E-010  0.4778726E+02  0.7816164E-02  0.1312668E+00
        -11   -1    0    0    0    0  0.00000000000E+00  0.00000000000E+00  0.45593999997E+02  0.45594000000E+02  0.51100000000E-03 0. -1.
         11   -1    0    0    0    0 -0.00000000000E+00 -0.00000000000E+00 -0.45593999997E+02  0.45594000000E+02  0.51100000000E-03 0.  1.
    9900012    2    1    2    0    0  0.34943035003E+02 -0.24616350800E+02  0.75261902388E+01  0.47787263123E+02  0.19999963884E+02 0.  0.
        -12    1    1    2    0    0 -0.34943035003E+02  0.24616350800E+02 -0.75261902388E+01  0.43400736877E+02  0.00000000000E+00 0.  1.
         11    1    3    3    0    0  0.24303308534E+02 -0.11364320074E+02  0.33689122549E+01  0.27039751228E+02  0.51100000000E-03 0. -1.
        -11    1    3    3    0    0  0.67836529055E+01 -0.58674054136E+01  0.75779483039E+01  0.11741792614E+02  0.51100000000E-03 0.  1.
        -12    1    3    3    0    0  0.38560735637E+01 -0.73846253130E+01 -0.34206703199E+01  0.90057192817E+01  0.00000000000E+00 0.  1.
</event>
<event>
 7    1  0.4236733E-010  0.4778727E+02  0.7816164E-02  0.1312668E+00
        -11   -1    0    0    0    0  0.00000000000E+00  0.00000000000E+00  0.45593999997E+02  0.45594000000E+02  0.51100000000E-03 0.  1.
         11   -1    0    0    0    0 -0.00000000000E+00 -0.00000000000E+00 -0.45593999997E+02  0.45594000000E+02  0.51100000000E-03 0. -1.
    9900012    2    1    2    0    0  0.20679162708E+02  0.45364664724E+01 -0.37886883283E+02  0.47787271627E+02  0.20000002658E+02 0.  0.
        -12    1    1    2    0    0 -0.20679162708E+02 -0.45364664724E+01  0.37886883283E+02  0.43400728373E+02  0.00000000000E+00 0.  1.
         11    1    3    3    0    0 -0.40199394384E+00  0.54253286849E+01 -0.26702915727E+01  0.60602184626E+01  0.51100000000E-03 0.  1.
        -11    1    3    3    0    0  0.60117580888E+01  0.27774618019E+01 -0.13550949753E+02  0.15082565062E+02  0.51100000000E-03 0. -1.
        -12    1    3    3    0    0  0.15069398563E+02 -0.36663240144E+01 -0.21665641957E+02  0.26644488103E+02  0.00000000000E+00 0.  1.
</event>
<event>
 7    1  0.4236733E-010  0.4778727E+02  0.7816164E-02  0.1312668E+00
        -11   -1    0    0    0    0  0.00000000000E+00  0.00000000000E+00  0.45593999997E+02  0.45594000000E+02  0.51100000000E-03 0.  1.
         11   -1    0    0    0    0 -0.00000000000E+00 -0.00000000000E+00 -0.45593999997E+02  0.45594000000E+02  0.51100000000E-03 0. -1.
    9900012    2    1    2    0    0 -0.43757005257E+01 -0.26363841048E+02 -0.34196846742E+02  0.47787271931E+02  0.20000004040E+02 0.  0.
        -12    1    1    2    0    0  0.43757005257E+01  0.26363841048E+02  0.34196846742E+02  0.43400728069E+02  0.00000000000E+00 0.  1.
         11    1    3    3    0    0  0.10088112297E+01 -0.12440144229E+02 -0.12611118224E+02  0.17743032200E+02  0.51100000000E-03 0. -1.
        -11    1    3    3    0    0  0.50228411393E+01 -0.41877901872E+01 -0.54212099178E+01  0.84944709663E+01  0.51100000000E-03 0.  1.
         12    1    3    3    0    0 -0.10407352895E+02 -0.97359066316E+01 -0.16164518600E+02  0.21549768764E+02  0.00000000000E+00 0. -1.
</event>
<event>
 7    1  0.4236733E-010  0.4778727E+02  0.7816164E-02  0.1312668E+00
        -11   -1    0    0    0    0  0.00000000000E+00  0.00000000000E+00  0.45593999997E+02  0.45594000000E+02  0.51100000000E-03 0.  1.
         11   -1    0    0    0    0 -0.00000000000E+00 -0.00000000000E+00 -0.45593999997E+02  0.45594000000E+02  0.51100000000E-03 0. -1.
    9900012    2    1    2    0    0  0.11183800247E+02 -0.20022473393E+02 -0.36846252501E+02  0.47787272447E+02  0.20000006396E+02 0.  0.
        -12    1    1    2    0    0 -0.11183800247E+02  0.20022473393E+02  0.36846252501E+02  0.43400727553E+02  0.00000000000E+00 0.  1.
         11    1    3    3    0    0 -0.94688961562E-01 -0.87892415894E+01 -0.30600550955E+01  0.93071838471E+01  0.51100000000E-03 0. -1.
        -11    1    3    3    0    0  0.69173242710E+01 -0.83358205435E+01 -0.12412374951E+02  0.16474293047E+02  0.51100000000E-03 0.  1.
        -12    1    3    3    0    0  0.43611649372E+01 -0.28974112605E+01 -0.21373822455E+02  0.22005795554E+02  0.00000000000E+00 0.  1.
</event>
<event>
 7    1  0.4236733E-010  0.4778727E+02  0.7816164E-02  0.1312668E+00
        -11   -1    0    0    0    0  0.00000000000E+00  0.00000000000E+00  0.45593999997E+02  0.45594000000E+02  0.51100000000E-03 0.  1.
         11   -1    0    0    0    0 -0.00000000000E+00 -0.00000000000E+00 -0.45593999997E+02  0.45594000000E+02  0.51100000000E-03 0. -1.
    9900012    2    1    2    0    0  0.17846835146E+02 -0.13456833352E+02 -0.37202520612E+02  0.47787269264E+02  0.19999991881E+02 0.  0.
        -12    1    1    2    0    0 -0.17846835146E+02  0.13456833352E+02  0.37202520612E+02  0.43400730736E+02  0.00000000000E+00 0.  1.
         11    1    3    3    0    0  0.46562517367E+00 -0.13083510879E+01 -0.76625585352E+01  0.77873867849E+01  0.51100000000E-03 0. -1.
        -11    1    3    3    0    0  0.15420220750E+02 -0.16263022057E+02 -0.24654635834E+02  0.33318465793E+02  0.51100000000E-03 0.  1.
        -12    1    3    3    0    0  0.19609892218E+01  0.41145397928E+01 -0.48853262424E+01  0.66814166858E+01  0.00000000000E+00 0.  1.
</event>
<event>
 7    1  0.4236733E-010  0.4778729E+02  0.7816164E-02  0.1312668E+00
        -11   -1    0    0    0    0  0.00000000000E+00  0.00000000000E+00  0.45593999997E+02  0.45594000000E+02  0.51100000000E-03 0.  1.
         11   -1    0    0    0    0 -0.00000000000E+00 -0.00000000000E+00 -0.45593999997E+02  0.45594000000E+02  0.51100000000E-03 0. -1.
    9900012    2    1    2    0    0 -0.31039766925E+00  0.38752053490E+02 -0.19539802460E+02  0.47787287142E+02  0.20000073395E+02 0.  0.
        -12    1    1    2    0    0  0.31039766925E+00 -0.38752053490E+02  0.19539802460E+02  0.43400712858E+02  0.00000000000E+00 0.  1.
         11    1    3    3    0    0  0.36537549754E+01  0.46926830648E+01  0.22798274774E+00  0.59517372389E+01  0.51100000000E-03 0. -1.
        -11    1    3    3    0    0 -0.21096471450E+01  0.14503480460E+01 -0.57473874198E+01  0.62917869437E+01  0.51100000000E-03 0.  1.
         12    1    3    3    0    0 -0.18545054996E+01  0.32609022379E+02 -0.14020397788E+02  0.35543762959E+02  0.00000000000E+00 0. -1.
</event>
<event>
 7    1  0.4236733E-010  0.4778727E+02  0.7816164E-02  0.1312668E+00
        -11   -1    0    0    0    0  0.00000000000E+00  0.00000000000E+00  0.45593999997E+02  0.45594000000E+02  0.51100000000E-03 0.  1.
         11   -1    0    0    0    0 -0.00000000000E+00 -0.00000000000E+00 -0.45593999997E+02  0.45594000000E+02  0.51100000000E-03 0. -1.
    9900012    2    1    2    0    0 -0.37121185091E+01 -0.43177186111E+02 -0.23609104436E+01  0.47787272790E+02  0.20000007958E+02 0.  0.
        -12    1    1    2    0    0  0.37121185091E+01  0.43177186111E+02  0.23609104436E+01  0.43400727210E+02  0.00000000000E+00 0.  1.
         11    1    3    3    0    0 -0.20839069311E+01 -0.30426286758E+02 -0.13360800436E+00  0.30497859685E+02  0.51100000000E-03 0. -1.
        -11    1    3    3    0    0 -0.44676296292E+01 -0.11455513357E+02 -0.48450090143E+01  0.13215998388E+02  0.51100000000E-03 0.  1.
         12    1    3    3    0    0  0.28394180512E+01 -0.12953859955E+01  0.26177065751E+01  0.40734147174E+01  0.00000000000E+00 0. -1.
</event>
<event>
 7    1  0.4236733E-010  0.4778727E+02  0.7816164E-02  0.1312668E+00
        -11   -1    0    0    0    0  0.00000000000E+00  0.00000000000E+00  0.45593999997E+02  0.45594000000E+02  0.51100000000E-03 0. -1.
         11   -1    0    0    0    0 -0.00000000000E+00 -0.00000000000E+00 -0.45593999997E+02  0.45594000000E+02  0.51100000000E-03 0.  1.
    9900012    2    1    2    0    0  0.33179436411E+02  0.26386591699E+02  0.93003110333E+01  0.47787274115E+02  0.20000014001E+02 0.  0.
        -12    1    1    2    0    0 -0.33179436411E+02 -0.26386591699E+02 -0.93003110333E+01  0.43400725885E+02  0.00000000000E+00 0.  1.
         11    1    3    3    0    0  0.93620889365E+01  0.72551485043E+01  0.10733591768E+00  0.11844720779E+02  0.51100000000E-03 0.  1.
        -11    1    3    3    0    0  0.19559038296E+02  0.10327571285E+02  0.12757361448E+02  0.25533604898E+02  0.51100000000E-03 0. -1.
         12    1    3    3    0    0  0.42583091780E+01  0.88038719094E+01 -0.35643863328E+01  0.10408948438E+02  0.00000000000E+00 0. -1.
</event>
<event>
 7    1  0.4236733E-010  0.4778727E+02  0.7816164E-02  0.1312668E+00
        -11   -1    0    0    0    0  0.00000000000E+00  0.00000000000E+00  0.45593999997E+02  0.45594000000E+02  0.51100000000E-03 0.  1.
         11   -1    0    0    0    0 -0.00000000000E+00 -0.00000000000E+00 -0.45593999997E+02  0.45594000000E+02  0.51100000000E-03 0. -1.
    9900012    2    1    2    0    0  0.33485281107E+01  0.40477702055E+02 -0.15295957005E+02  0.47787270688E+02  0.19999998374E+02 0.  0.
        -12    1    1    2    0    0 -0.33485281107E+01 -0.40477702055E+02  0.15295957005E+02  0.43400729312E+02  0.00000000000E+00 0.  1.
         11    1    3    3    0    0 -0.27751194962E+01  0.57964476707E+01 -0.35761501175E+01  0.73545185935E+01  0.51100000000E-03 0. -1.
        -11    1    3    3    0    0  0.50503847105E+00  0.24819807909E+02 -0.10375469788E+01  0.24846618130E+02  0.51100000000E-03 0.  1.
         12    1    3    3    0    0  0.56186091358E+01  0.98614464746E+01 -0.10682259909E+02  0.15586133964E+02  0.00000000000E+00 0. -1.
</event>
<event>
 7    1  0.4236733E-010  0.4778730E+02  0.7816164E-02  0.1312668E+00
        -11   -1    0    0    0    0  0.00000000000E+00  0.00000000000E+00  0.45593999997E+02  0.45594000000E+02  0.51100000000E-03 0.  1.
         11   -1    0    0    0    0 -0.00000000000E+00 -0.00000000000E+00 -0.45593999997E+02  0.45594000000E+02  0.51100000000E-03 0. -1.
    9900012    2    1    2    0    0 -0.34737835249E+02 -0.84011954607E+01 -0.24623637524E+02  0.47787299454E+02  0.20000129532E+02 0.  0.
        -12    1    1    2    0    0  0.34737835249E+02  0.84011954607E+01  0.24623637524E+02  0.43400700546E+02  0.00000000000E+00 0.  1.
         11    1    3    3    0    0 -0.18175735315E+02 -0.13637042694E+02 -0.13053976211E+02  0.26205583048E+02  0.51100000000E-03 0.  1.
        -11    1    3    3    0    0 -0.50513873654E+01 -0.79910885592E+00 -0.22415260582E+01  0.55838632334E+01  0.51100000000E-03 0. -1.
        -12    1    3    3    0    0 -0.11510712568E+02  0.60349560891E+01 -0.93281352549E+01  0.15997853173E+02  0.00000000000E+00 0.  1.
</event>
<event>
 7    1  0.4236733E-010  0.4778728E+02  0.7816164E-02  0.1312668E+00
        -11   -1    0    0    0    0  0.00000000000E+00  0.00000000000E+00  0.45593999997E+02  0.45594000000E+02  0.51100000000E-03 0. -1.
         11   -1    0    0    0    0 -0.00000000000E+00 -0.00000000000E+00 -0.45593999997E+02  0.45594000000E+02  0.51100000000E-03 0.  1.
    9900012    2    1    2    0    0  0.70192796353E+01  0.41639670528E+00  0.42827311042E+02  0.47787282911E+02  0.20000054102E+02 0.  0.
        -12    1    1    2    0    0 -0.70192796353E+01 -0.41639670528E+00 -0.42827311042E+02  0.43400717089E+02  0.00000000000E+00 0.  1.
         11    1    3    3    0    0  0.40003421320E+00 -0.15884047939E+01  0.25140517975E+02  0.25193822685E+02  0.51100000000E-03 0. -1.
        -11    1    3    3    0    0 -0.33836518943E+01 -0.10989605764E+01  0.38866356881E+01  0.52690370774E+01  0.51100000000E-03 0.  1.
         12    1    3    3    0    0  0.10002897316E+02  0.31037620755E+01  0.13800157378E+02  0.17324423148E+02  0.00000000000E+00 0. -1.
</event>
<event>
 7    1  0.4236733E-010  0.4778727E+02  0.7816164E-02  0.1312668E+00
        -11   -1    0    0    0    0  0.00000000000E+00  0.00000000000E+00  0.45593999997E+02  0.45594000000E+02  0.51100000000E-03 0. -1.
         11   -1    0    0    0    0 -0.00000000000E+00 -0.00000000000E+00 -0.45593999997E+02  0.45594000000E+02  0.51100000000E-03 0.  1.
    9900012    2    1    2    0    0  0.27046160369E+02 -0.19648452743E+02  0.27677919738E+02  0.47787265825E+02  0.19999976201E+02 0.  0.
        -12    1    1    2    0    0 -0.27046160369E+02  0.19648452743E+02 -0.27677919738E+02  0.43400734175E+02  0.00000000000E+00 0.  1.
         11    1    3    3    0    0  0.18117345103E+02 -0.14434732878E+02  0.19139171617E+02  0.30048420878E+02  0.51100000000E-03 0. -1.
        -11    1    3    3    0    0  0.11410013264E+02 -0.53740358625E+01  0.53619107530E+01  0.13704698148E+02  0.51100000000E-03 0.  1.
         12    1    3    3    0    0 -0.24811979983E+01  0.16031599685E+00  0.31768373687E+01  0.40341467986E+01  0.00000000000E+00 0. -1.
</event>
<event>
 7    1  0.4236733E-010  0.4778727E+02  0.7816164E-02  0.1312668E+00
        -11   -1    0    0    0    0  0.00000000000E+00  0.00000000000E+00  0.45593999997E+02  0.45594000000E+02  0.51100000000E-03 0.  1.
         11   -1    0    0    0    0 -0.00000000000E+00 -0.00000000000E+00 -0.45593999997E+02  0.45594000000E+02  0.51100000000E-03 0. -1.
    9900012    2    1    2    0    0 -0.32887543281E+02  0.20076880357E+02  0.19973765685E+02  0.47787274850E+02  0.20000017349E+02 0.  0.
        -12    1    1    2    0    0  0.32887543281E+02 -0.20076880357E+02 -0.19973765685E+02  0.43400725150E+02  0.00000000000E+00 0.  1.
         11    1    3    3    0    0 -0.11690323148E+02  0.53717038639E+01  0.29294554842E+01  0.13194717405E+02  0.51100000000E-03 0. -1.
        -11    1    3    3    0    0 -0.21673749473E+02  0.76036907252E+01  0.13483912226E+02  0.26634252722E+02  0.51100000000E-03 0.  1.
        -12    1    3    3    0    0  0.47652933952E+00  0.71014857679E+01  0.35603979746E+01  0.79583047227E+01  0.00000000000E+00 0.  1.
</event>
<event>
 7    1  0.4236733E-010  0.4778727E+02  0.7816164E-02  0.1312668E+00
        -11   -1    0    0    0    0  0.00000000000E+00  0.00000000000E+00  0.45593999997E+02  0.45594000000E+02  0.51100000000E-03 0.  1.
         11   -1    0    0    0    0 -0.00000000000E+00 -0.00000000000E+00 -0.45593999997E+02  0.45594000000E+02  0.51100000000E-03 0. -1.
    9900012    2    1    2    0    0  0.14361875704E+02  0.33720313519E+02  0.23244354843E+02  0.47787273628E+02  0.20000011779E+02 0.  0.
        -12    1    1    2    0    0 -0.14361875704E+02 -0.33720313519E+02 -0.23244354843E+02  0.43400726372E+02  0.00000000000E+00 0.  1.
         11    1    3    3    0    0  0.86595279737E+01  0.75043261279E+01  0.34614542243E+01  0.11970129530E+02  0.51100000000E-03 0. -1.
        -11    1    3    3    0    0 -0.30595384671E+01  0.19897112604E+01  0.60238669926E+00  0.36989993955E+01  0.51100000000E-03 0.  1.
        -12    1    3    3    0    0  0.87618861973E+01  0.24226276131E+02  0.19180513919E+02  0.32118144702E+02  0.00000000000E+00 0.  1.
</event>
<event>
 7    1  0.5016813E-010  0.4778727E+02  0.7816164E-02  0.1312668E+00
        -11   -1    0    0    0    0  0.00000000000E+00  0.00000000000E+00  0.45593999997E+02  0.45594000000E+02  0.51100000000E-03 0. -1.
         11   -1    0    0    0    0 -0.00000000000E+00 -0.00000000000E+00 -0.45593999997E+02  0.45594000000E+02  0.51100000000E-03 0.  1.
    9900012    2    1    2    0    0 -0.39794859132E+02 -0.43011285646E+01  0.16777744505E+02  0.47787271539E+02  0.20000002256E+02 0.  0.
        -12    1    1    2    0    0  0.39794859132E+02  0.43011285646E+01 -0.16777744505E+02  0.43400728461E+02  0.00000000000E+00 0.  1.
         11    1    3    3    0    0 -0.14667647087E+02  0.30472044733E+01  0.44438506826E+01  0.15626040296E+02  0.51100000000E-03 0.  1.
        -11    1    3    3    0    0 -0.87409240787E+01  0.37834418280E+00  0.10915593375E+02  0.13989177140E+02  0.51100000000E-03 0. -1.
        -12    1    3    3    0    0 -0.16386287966E+02 -0.77266772207E+01  0.14183004477E+01  0.18172054103E+02  0.00000000000E+00 0.  1.
</event>
<event>
 7    1  0.4236733E-010  0.4778727E+02  0.7816164E-02  0.1312668E+00
        -11   -1    0    0    0    0  0.00000000000E+00  0.00000000000E+00  0.45593999997E+02  0.45594000000E+02  0.51100000000E-03 0.  1.
         11   -1    0    0    0    0 -0.00000000000E+00 -0.00000000000E+00 -0.45593999997E+02  0.45594000000E+02  0.51100000000E-03 0. -1.
    9900012    2    1    2    0    0  0.16915074839E+02 -0.14693724017E+02 -0.37169853210E+02  0.47787271089E+02  0.20000000204E+02 0.  0.
        -12    1    1    2    0    0 -0.16915074839E+02  0.14693724017E+02  0.37169853210E+02  0.43400728911E+02  0.00000000000E+00 0.  1.
         11    1    3    3    0    0  0.11216024821E+02 -0.14412605664E+02 -0.14809578512E+02  0.23512678086E+02  0.51100000000E-03 0. -1.
        -11    1    3    3    0    0 -0.22007982903E+00  0.14629820031E+01 -0.50246479160E+00  0.15624412310E+01  0.51100000000E-03 0.  1.
         12    1    3    3    0    0  0.59191298471E+01 -0.17441003560E+01 -0.21857809907E+02  0.22712151772E+02  0.00000000000E+00 0. -1.
</event>
<event>
 7    1  0.4236733E-010  0.4778728E+02  0.7816164E-02  0.1312668E+00
        -11   -1    0    0    0    0  0.00000000000E+00  0.00000000000E+00  0.45593999997E+02  0.45594000000E+02  0.51100000000E-03 0. -1.
         11   -1    0    0    0    0 -0.00000000000E+00 -0.00000000000E+00 -0.45593999997E+02  0.45594000000E+02  0.51100000000E-03 0.  1.
    9900012    2    1    2    0    0  0.28694213697E+02  0.11382057688E+02  0.30507599264E+02  0.47787277083E+02  0.20000027531E+02 0.  0.
        -12    1    1    2    0    0 -0.28694213697E+02 -0.11382057688E+02 -0.30507599264E+02  0.43400722917E+02  0.00000000000E+00 0.  1.
         11    1    3    3    0    0  0.16826917251E+02  0.28093712052E+01  0.14432068970E+02  0.22345521380E+02  0.51100000000E-03 0. -1.
        -11    1    3    3    0    0  0.43403109777E+01 -0.30052003240E+01  0.75497698519E+01  0.92124130090E+01  0.51100000000E-03 0.  1.
        -12    1    3    3    0    0  0.75269854683E+01  0.11577886807E+02  0.85257604422E+01  0.16229342694E+02  0.00000000000E+00 0.  1.
</event>
<event>
 7    1  0.4236733E-010  0.4778727E+02  0.7816164E-02  0.1312668E+00
        -11   -1    0    0    0    0  0.00000000000E+00  0.00000000000E+00  0.45593999997E+02  0.45594000000E+02  0.51100000000E-03 0.  1.
         11   -1    0    0    0    0 -0.00000000000E+00 -0.00000000000E+00 -0.45593999997E+02  0.45594000000E+02  0.51100000000E-03 0. -1.
    9900012    2    1    2    0    0  0.47550604760E+01  0.23943770125E+02 -0.35884660287E+02  0.47787267612E+02  0.19999984350E+02 0.  0.
        -12    1    1    2    0    0 -0.47550604760E+01 -0.23943770125E+02  0.35884660287E+02  0.43400732388E+02  0.00000000000E+00 0.  1.
         11    1    3    3    0    0  0.15582885628E+01  0.51181889971E+01 -0.13949034583E+02  0.14939869073E+02  0.51100000000E-03 0. -1.
        -11    1    3    3    0    0 -0.41902251060E+01  0.66366981121E+01 -0.15148905258E+02  0.17061450086E+02  0.51100000000E-03 0.  1.
        -12    1    3    3    0    0  0.73869970192E+01  0.12188883016E+02 -0.67867204451E+01  0.15785948452E+02  0.00000000000E+00 0.  1.
</event>
<event>
 7    1  0.4236733E-010  0.4778727E+02  0.7816164E-02  0.1312668E+00
        -11   -1    0    0    0    0  0.00000000000E+00  0.00000000000E+00  0.45593999997E+02  0.45594000000E+02  0.51100000000E-03 0.  1.
         11   -1    0    0    0    0 -0.00000000000E+00 -0.00000000000E+00 -0.45593999997E+02  0.45594000000E+02  0.51100000000E-03 0. -1.
    9900012    2    1    2    0    0 -0.15291592615E+02 -0.19402858859E+02 -0.35683599757E+02  0.47787273874E+02  0.20000012903E+02 0.  0.
        -12    1    1    2    0    0  0.15291592615E+02  0.19402858859E+02  0.35683599757E+02  0.43400726126E+02  0.00000000000E+00 0.  1.
         11    1    3    3    0    0 -0.78437580594E+01 -0.56870164743E+01 -0.79874583281E+01  0.12556519728E+02  0.51100000000E-03 0. -1.
        -11    1    3    3    0    0 -0.39234337829E+01 -0.49422780332E+01 -0.37677171964E+00  0.63215031437E+01  0.51100000000E-03 0.  1.
        -12    1    3    3    0    0 -0.35244007728E+01 -0.87735643517E+01 -0.27319369709E+02  0.28909251003E+02  0.00000000000E+00 0.  1.
</event>
<event>
 7    1  0.4236733E-010  0.4778727E+02  0.7816164E-02  0.1312668E+00
        -11   -1    0    0    0    0  0.00000000000E+00  0.00000000000E+00  0.45593999997E+02  0.45594000000E+02  0.51100000000E-03 0.  1.
         11   -1    0    0    0    0 -0.00000000000E+00 -0.00000000000E+00 -0.45593999997E+02  0.45594000000E+02  0.51100000000E-03 0. -1.
    9900012    2    1    2    0    0  0.15918367865E+02  0.14475270070E+02 -0.37692109172E+02  0.47787274512E+02  0.20000015809E+02 0.  0.
        -12    1    1    2    0    0 -0.15918367865E+02 -0.14475270070E+02  0.37692109172E+02  0.43400725488E+02  0.00000000000E+00 0.  1.
         11    1    3    3    0    0  0.10903252154E+01 -0.19341101101E+00  0.16456781788E+01  0.19835508121E+01  0.51100000000E-03 0. -1.
        -11    1    3    3    0    0  0.11598901806E+00  0.19175944814E+01 -0.10347160156E-01  0.19211271099E+01  0.51100000000E-03 0.  1.
         12    1    3    3    0    0  0.14712053632E+02  0.12751086600E+02 -0.39327440190E+02  0.43882596590E+02  0.00000000000E+00 0. -1.
</event>
<event>
 7    1  0.4236733E-010  0.4778731E+02  0.7816164E-02  0.1312668E+00
        -11   -1    0    0    0    0  0.00000000000E+00  0.00000000000E+00  0.45593999997E+02  0.45594000000E+02  0.51100000000E-03 0.  1.
         11   -1    0    0    0    0 -0.00000000000E+00 -0.00000000000E+00 -0.45593999997E+02  0.45594000000E+02  0.51100000000E-03 0. -1.
    9900012    2    1    2    0    0 -0.18778734840E+02  0.31580224221E+01 -0.39000075841E+02  0.47787309874E+02  0.20000177038E+02 0.  0.
        -12    1    1    2    0    0  0.18778734840E+02 -0.31580224221E+01  0.39000075841E+02  0.43400690126E+02  0.00000000000E+00 0.  1.
         11    1    3    3    0    0 -0.48150908594E+01 -0.57277293873E+00 -0.11800609351E+01  0.49905623827E+01  0.51100000000E-03 0.  1.
        -11    1    3    3    0    0 -0.54924497861E+01 -0.37978340757E+01 -0.58510147732E+01  0.88783400733E+01  0.51100000000E-03 0. -1.
         12    1    3    3    0    0 -0.84711941946E+01  0.75286294365E+01 -0.31969000133E+02  0.33918407418E+02  0.00000000000E+00 0. -1.
</event>
<event>
 7    1  0.4885000E-010  0.4778727E+02  0.7816164E-02  0.1312668E+00
        -11   -1    0    0    0    0  0.00000000000E+00  0.00000000000E+00  0.45593999997E+02  0.45594000000E+02  0.51100000000E-03 0. -1.
         11   -1    0    0    0    0 -0.00000000000E+00 -0.00000000000E+00 -0.45593999997E+02  0.45594000000E+02  0.51100000000E-03 0.  1.
    9900012    2    1    2    0    0 -0.23407480184E+02 -0.24043314292E+02  0.27525116564E+02  0.47787272673E+02  0.20000007424E+02 0.  0.
        -12    1    1    2    0    0  0.23407480184E+02  0.24043314292E+02 -0.27525116564E+02  0.43400727327E+02  0.00000000000E+00 0.  1.
         11    1    3    3    0    0 -0.15795448466E+02 -0.13126048960E+02  0.20154135377E+02  0.28774616012E+02  0.51100000000E-03 0. -1.
        -11    1    3    3    0    0 -0.47596699785E+01 -0.12828497289E+02  0.74471259285E+01  0.15578333860E+02  0.51100000000E-03 0.  1.
        -12    1    3    3    0    0 -0.28523617389E+01  0.19112319566E+01 -0.76144742274E-01  0.34343228013E+01  0.00000000000E+00 0.  1.
</event>
<event>
 7    1  0.4236733E-010  0.4778728E+02  0.7816164E-02  0.1312668E+00
        -11   -1    0    0    0    0  0.00000000000E+00  0.00000000000E+00  0.45593999997E+02  0.45594000000E+02  0.51100000000E-03 0.  1.
         11   -1    0    0    0    0 -0.00000000000E+00 -0.00000000000E+00 -0.45593999997E+02  0.45594000000E+02  0.51100000000E-03 0. -1.
    9900012    2    1    2    0    0  0.26884531502E+02  0.33055789287E+02 -0.82558875192E+01  0.47787275142E+02  0.20000018682E+02 0.  0.
        -12    1    1    2    0    0 -0.26884531502E+02 -0.33055789287E+02  0.82558875192E+01  0.43400724858E+02  0.00000000000E+00 0.  1.
         11    1    3    3    0    0  0.33074804453E+01  0.11300161063E+02 -0.27393896193E+01  0.12088727091E+02  0.51100000000E-03 0. -1.
        -11    1    3    3    0    0  0.30983111748E+01  0.12288263311E+02 -0.12155364001E+01  0.12731004530E+02  0.51100000000E-03 0.  1.
        -12    1    3    3    0    0  0.20478739882E+02  0.94673649133E+01 -0.43009614998E+01  0.22967543520E+02  0.00000000000E+00 0.  1.
</event>
<event>
 7    1  0.4236733E-010  0.4778728E+02  0.7816164E-02  0.1312668E+00
        -11   -1    0    0    0    0  0.00000000000E+00  0.00000000000E+00  0.45593999997E+02  0.45594000000E+02  0.51100000000E-03 0.  1.
         11   -1    0    0    0    0 -0.00000000000E+00 -0.00000000000E+00 -0.45593999997E+02  0.45594000000E+02  0.51100000000E-03 0. -1.
    9900012    2    1    2    0    0 -0.14787572625E+02  0.54459618716E+00 -0.40800171508E+02  0.47787275533E+02  0.20000020467E+02 0.  0.
        -12    1    1    2    0    0  0.14787572625E+02 -0.54459618716E+00  0.40800171508E+02  0.43400724467E+02  0.00000000000E+00 0.  1.
         11    1    3    3    0    0 -0.23896928511E+01  0.19255926394E+01 -0.16629061024E+02  0.16909884971E+02  0.51100000000E-03 0.  1.
        -11    1    3    3    0    0 -0.21177668276E+01  0.33272559767E+01 -0.17082961980E+02  0.17532346076E+02  0.51100000000E-03 0. -1.
        -12    1    3    3    0    0 -0.10280112947E+02 -0.47082524290E+01 -0.70881485047E+01  0.13345044487E+02  0.00000000000E+00 0.  1.
</event>
<event>
 7    1  0.4236733E-010  0.4778726E+02  0.7816164E-02  0.1312668E+00
        -11   -1    0    0    0    0  0.00000000000E+00  0.00000000000E+00  0.45593999997E+02  0.45594000000E+02  0.51100000000E-03 0.  1.
         11   -1    0    0    0    0 -0.00000000000E+00 -0.00000000000E+00 -0.45593999997E+02  0.45594000000E+02  0.51100000000E-03 0. -1.
    9900012    2    1    2    0    0  0.38891508697E+02 -0.74379105326E+01 -0.17769407996E+02  0.47787264725E+02  0.19999971188E+02 0.  0.
        -12    1    1    2    0    0 -0.38891508697E+02  0.74379105326E+01  0.17769407996E+02  0.43400735275E+02  0.00000000000E+00 0.  1.
         11    1    3    3    0    0  0.37313174501E+01  0.35698228723E+01 -0.57192185315E+01  0.77055711097E+01  0.51100000000E-03 0. -1.
        -11    1    3    3    0    0  0.15923565008E+02 -0.30838232087E+01 -0.10277749113E+02  0.19201614912E+02  0.51100000000E-03 0.  1.
        -12    1    3    3    0    0  0.19236626239E+02 -0.79239101962E+01 -0.17724403522E+01  0.20880078703E+02  0.00000000000E+00 0.  1.
</event>
<event>
 7    1  0.4236733E-010  0.4778727E+02  0.7816164E-02  0.1312668E+00
        -11   -1    0    0    0    0  0.00000000000E+00  0.00000000000E+00  0.45593999997E+02  0.45594000000E+02  0.51100000000E-03 0.  1.
         11   -1    0    0    0    0 -0.00000000000E+00 -0.00000000000E+00 -0.45593999997E+02  0.45594000000E+02  0.51100000000E-03 0. -1.
    9900012    2    1    2    0    0  0.16765161127E+02 -0.36032911884E+02 -0.17440808391E+02  0.47787272313E+02  0.20000005783E+02 0.  0.
        -12    1    1    2    0    0 -0.16765161127E+02  0.36032911884E+02  0.17440808391E+02  0.43400727687E+02  0.00000000000E+00 0.  1.
         11    1    3    3    0    0  0.58504611179E+00 -0.14857090504E+02 -0.57363998983E+01  0.15936803358E+02  0.51100000000E-03 0. -1.
        -11    1    3    3    0    0  0.53143279888E+01 -0.12793634142E+02 -0.11690947608E+02  0.18127256074E+02  0.51100000000E-03 0.  1.
        -12    1    3    3    0    0  0.10865787026E+02 -0.83821872379E+01 -0.13460884319E-01  0.13723212881E+02  0.00000000000E+00 0.  1.
</event>
<event>
 7    1  0.4236733E-010  0.4778727E+02  0.7816164E-02  0.1312668E+00
        -11   -1    0    0    0    0  0.00000000000E+00  0.00000000000E+00  0.45593999997E+02  0.45594000000E+02  0.51100000000E-03 0. -1.
         11   -1    0    0    0    0 -0.00000000000E+00 -0.00000000000E+00 -0.45593999997E+02  0.45594000000E+02  0.51100000000E-03 0.  1.
    9900012    2    1    2    0    0 -0.28590655523E+02 -0.23812697766E+02  0.22341732100E+02  0.47787272456E+02  0.20000006436E+02 0.  0.
        -12    1    1    2    0    0  0.28590655523E+02  0.23812697766E+02 -0.22341732100E+02  0.43400727544E+02  0.00000000000E+00 0.  1.
         11    1    3    3    0    0 -0.20382256533E+01 -0.74954416888E+01  0.10464567067E+02  0.13032389423E+02  0.51100000000E-03 0. -1.
        -11    1    3    3    0    0 -0.10970901920E+01  0.12130446010E+01 -0.22133876084E-01  0.16357182713E+01  0.51100000000E-03 0.  1.
        -12    1    3    3    0    0 -0.25455339677E+02 -0.17530300678E+02  0.11899298909E+02  0.33119164761E+02  0.00000000000E+00 0.  1.
</event>
<event>
 7    1  0.4236733E-010  0.4778728E+02  0.7816164E-02  0.1312668E+00
        -11   -1    0    0    0    0  0.00000000000E+00  0.00000000000E+00  0.45593999997E+02  0.45594000000E+02  0.51100000000E-03 0.  1.
         11   -1    0    0    0    0 -0.00000000000E+00 -0.00000000000E+00 -0.45593999997E+02  0.45594000000E+02  0.51100000000E-03 0. -1.
    9900012    2    1    2    0    0  0.31463043039E+02 -0.69653694216E+01 -0.29072025623E+02  0.47787284312E+02  0.20000060490E+02 0.  0.
        -12    1    1    2    0    0 -0.31463043039E+02  0.69653694216E+01  0.29072025623E+02  0.43400715688E+02  0.00000000000E+00 0.  1.
         11    1    3    3    0    0  0.18117787484E+02 -0.46720595856E+01 -0.19516076966E+02  0.27036264987E+02  0.51100000000E-03 0. -1.
        -11    1    3    3    0    0  0.14399159488E+02  0.14838584621E+01 -0.79363860241E+01  0.16508296499E+02  0.51100000000E-03 0.  1.
         12    1    3    3    0    0 -0.10539039329E+01 -0.37771682981E+01 -0.16195626328E+01  0.42427228255E+01  0.00000000000E+00 0. -1.
</event>
<event>
 7    1  0.4236733E-010  0.4778730E+02  0.7816164E-02  0.1312668E+00
        -11   -1    0    0    0    0  0.00000000000E+00  0.00000000000E+00  0.45593999997E+02  0.45594000000E+02  0.51100000000E-03 0. -1.
         11   -1    0    0    0    0 -0.00000000000E+00 -0.00000000000E+00 -0.45593999997E+02  0.45594000000E+02  0.51100000000E-03 0.  1.
    9900012    2    1    2    0    0  0.27846701879E+02 -0.29963711039E+02  0.14503726438E+02  0.47787298792E+02  0.20000126511E+02 0.  0.
        -12    1    1    2    0    0 -0.27846701879E+02  0.29963711039E+02 -0.14503726438E+02  0.43400701208E+02  0.00000000000E+00 0.  1.
         11    1    3    3    0    0  0.15301978850E+02 -0.16114728340E+02  0.17225502007E+02  0.28116773390E+02  0.51100000000E-03 0. -1.
        -11    1    3    3    0    0  0.43811320048E+01 -0.16936857736E+01  0.34784132204E+00  0.47099769628E+01  0.51100000000E-03 0.  1.
         12    1    3    3    0    0  0.81635910244E+01 -0.12155296925E+02 -0.30696168907E+01  0.14960548440E+02  0.00000000000E+00 0. -1.
</event>
<event>
 7    1  0.4236733E-010  0.4778727E+02  0.7816164E-02  0.1312668E+00
        -11   -1    0    0    0    0  0.00000000000E+00  0.00000000000E+00  0.45593999997E+02  0.45594000000E+02  0.51100000000E-03 0. -1.
         11   -1    0    0    0    0 -0.00000000000E+00 -0.00000000000E+00 -0.45593999997E+02  0.45594000000E+02  0.51100000000E-03 0.  1.
    9900012    2    1    2    0    0  0.37004323773E+02  0.13045971987E+02  0.18550096079E+02  0.47787269274E+02  0.19999991928E+02 0.  0.
        -12    1    1    2    0    0 -0.37004323773E+02 -0.13045971987E+02 -0.18550096079E+02  0.43400730726E+02  0.00000000000E+00 0.  1.
         11    1    3    3    0    0  0.17061010751E+02  0.81263577661E+01 -0.63835207009E+00  0.18908285803E+02  0.51100000000E-03 0. -1.
        -11    1    3    3    0    0  0.60138651945E+01 -0.94446862731E+00  0.31980599162E+01  0.68764949687E+01  0.51100000000E-03 0.  1.
         12    1    3    3    0    0  0.13929447828E+02  0.58640828483E+01  0.15990388233E+02  0.22002488502E+02  0.00000000000E+00 0. -1.
</event>
<event>
 7    1  0.4236733E-010  0.4778727E+02  0.7816164E-02  0.1312668E+00
        -11   -1    0    0    0    0  0.00000000000E+00  0.00000000000E+00  0.45593999997E+02  0.45594000000E+02  0.51100000000E-03 0.  1.
         11   -1    0    0    0    0 -0.00000000000E+00 -0.00000000000E+00 -0.45593999997E+02  0.45594000000E+02  0.51100000000E-03 0. -1.
    9900012    2    1    2    0    0  0.28827345925E+00  0.27202502128E+02 -0.33816626153E+02  0.47787269269E+02  0.19999991905E+02 0.  0.
        -12    1    1    2    0    0 -0.28827345925E+00 -0.27202502128E+02  0.33816626153E+02  0.43400730731E+02  0.00000000000E+00 0.  1.
         11    1    3    3    0    0  0.59169994682E+01  0.80803241445E+01 -0.14574508067E+02  0.17683857233E+02  0.51100000000E-03 0. -1.
        -11    1    3    3    0    0  0.35290255391E+01  0.71104537945E+01 -0.80387478899E+01  0.11297523725E+02  0.51100000000E-03 0.  1.
        -12    1    3    3    0    0 -0.91577515481E+01  0.12011724189E+02 -0.11203370196E+02  0.18805888311E+02  0.00000000000E+00 0.  1.
</event>
<event>
 7    1  0.4236733E-010  0.4778727E+02  0.7816164E-02  0.1312668E+00
        -11   -1    0    0    0    0  0.00000000000E+00  0.00000000000E+00  0.45593999997E+02  0.45594000000E+02  0.51100000000E-03 0.  1.
         11   -1    0    0    0    0 -0.00000000000E+00 -0.00000000000E+00 -0.45593999997E+02  0.45594000000E+02  0.51100000000E-03 0. -1.
    9900012    2    1    2    0    0  0.40665112664E+02 -0.10254725561E+02 -0.11171954434E+02  0.47787270165E+02  0.19999995990E+02 0.  0.
        -12    1    1    2    0    0 -0.40665112664E+02  0.10254725561E+02  0.11171954434E+02  0.43400729835E+02  0.00000000000E+00 0.  1.
         11    1    3    3    0    0  0.14888415845E+02 -0.45000914053E+01 -0.10550134694E+02  0.18794177060E+02  0.51100000000E-03 0. -1.
        -11    1    3    3    0    0  0.55842525912E+01  0.20772298031E+01 -0.38528863503E+01  0.70953149434E+01  0.51100000000E-03 0.  1.
         12    1    3    3    0    0  0.20192444228E+02 -0.78318639587E+01  0.32310666101E+01  0.21897778161E+02  0.00000000000E+00 0. -1.
</event>
<event>
 7    1  0.4236733E-010  0.4778727E+02  0.7816164E-02  0.1312668E+00
        -11   -1    0    0    0    0  0.00000000000E+00  0.00000000000E+00  0.45593999997E+02  0.45594000000E+02  0.51100000000E-03 0.  1.
         11   -1    0    0    0    0 -0.00000000000E+00 -0.00000000000E+00 -0.45593999997E+02  0.45594000000E+02  0.51100000000E-03 0. -1.
    9900012    2    1    2    0    0 -0.59372923034E+01  0.86432348666E+01 -0.42114915593E+02  0.47787273459E+02  0.20000011010E+02 0.  0.
        -12    1    1    2    0    0  0.59372923034E+01 -0.86432348666E+01  0.42114915593E+02  0.43400726541E+02  0.00000000000E+00 0.  1.
         11    1    3    3    0    0 -0.68342997057E+01  0.22268317913E+01 -0.18684468892E+02  0.20019385863E+02  0.51100000000E-03 0. -1.
        -11    1    3    3    0    0 -0.79279536515E-01  0.48638498254E+01 -0.24929203264E+02  0.25399379835E+02  0.51100000000E-03 0.  1.
        -12    1    3    3    0    0  0.97628693885E+00  0.15525532500E+01  0.14987565626E+01  0.23685077613E+01  0.00000000000E+00 0.  1.
</event>
<event>
 7    1  0.4236733E-010  0.4778727E+02  0.7816164E-02  0.1312668E+00
        -11   -1    0    0    0    0  0.00000000000E+00  0.00000000000E+00  0.45593999997E+02  0.45594000000E+02  0.51100000000E-03 0.  1.
         11   -1    0    0    0    0 -0.00000000000E+00 -0.00000000000E+00 -0.45593999997E+02  0.45594000000E+02  0.51100000000E-03 0. -1.
    9900012    2    1    2    0    0 -0.22702666297E+02  0.34061231462E+02 -0.14423754760E+02  0.47787271353E+02  0.20000001407E+02 0.  0.
        -12    1    1    2    0    0  0.22702666297E+02 -0.34061231462E+02  0.14423754760E+02  0.43400728647E+02  0.00000000000E+00 0.  1.
         11    1    3    3    0    0 -0.23482203859E+01  0.10116537103E+02  0.12345472581E+01  0.10458612199E+02  0.51100000000E-03 0. -1.
        -11    1    3    3    0    0 -0.82118478263E+01  0.19109670165E+02 -0.90455388170E+01  0.22681175263E+02  0.51100000000E-03 0.  1.
        -12    1    3    3    0    0 -0.12142598084E+02  0.48350241943E+01 -0.66127632012E+01  0.14647483892E+02  0.00000000000E+00 0.  1.
</event>
<event>
 7    1  0.4236733E-010  0.4778727E+02  0.7816164E-02  0.1312668E+00
        -11   -1    0    0    0    0  0.00000000000E+00  0.00000000000E+00  0.45593999997E+02  0.45594000000E+02  0.51100000000E-03 0. -1.
         11   -1    0    0    0    0 -0.00000000000E+00 -0.00000000000E+00 -0.45593999997E+02  0.45594000000E+02  0.51100000000E-03 0.  1.
    9900012    2    1    2    0    0 -0.20718794781E+02  0.23045433659E+02  0.30385240885E+02  0.47787270360E+02  0.19999996878E+02 0.  0.
        -12    1    1    2    0    0  0.20718794781E+02 -0.23045433659E+02 -0.30385240885E+02  0.43400729640E+02  0.00000000000E+00 0.  1.
         11    1    3    3    0    0 -0.69080540059E+01  0.53568417642E+01  0.71307620275E+01  0.11281167102E+02  0.51100000000E-03 0. -1.
        -11    1    3    3    0    0 -0.72017631910E+00  0.89981889741E+01  0.74858653387E+00  0.90579490397E+01  0.51100000000E-03 0.  1.
         12    1    3    3    0    0 -0.13090564456E+02  0.86904029202E+01  0.22505892324E+02  0.27448154218E+02  0.00000000000E+00 0. -1.
</event>
<event>
 7    1  0.4236733E-010  0.4778727E+02  0.7816164E-02  0.1312668E+00
        -11   -1    0    0    0    0  0.00000000000E+00  0.00000000000E+00  0.45593999997E+02  0.45594000000E+02  0.51100000000E-03 0.  1.
         11   -1    0    0    0    0 -0.00000000000E+00 -0.00000000000E+00 -0.45593999997E+02  0.45594000000E+02  0.51100000000E-03 0. -1.
    9900012    2    1    2    0    0 -0.29230521609E+02 -0.28620763917E+02 -0.14493162600E+02  0.47787270941E+02  0.19999999528E+02 0.  0.
        -12    1    1    2    0    0  0.29230521609E+02  0.28620763917E+02  0.14493162600E+02  0.43400729059E+02  0.00000000000E+00 0.  1.
         11    1    3    3    0    0 -0.15906416301E+02 -0.12626125858E+02 -0.13364549218E+02  0.24311402876E+02  0.51100000000E-03 0. -1.
        -11    1    3    3    0    0 -0.41735690153E+01 -0.11073615016E+02 -0.43342334756E+01  0.12602746048E+02  0.51100000000E-03 0.  1.
         12    1    3    3    0    0 -0.91505362924E+01 -0.49210230429E+01  0.32056200937E+01  0.10873122018E+02  0.00000000000E+00 0. -1.
</event>
<event>
 7    1  0.4236733E-010  0.4778725E+02  0.7816164E-02  0.1312668E+00
        -11   -1    0    0    0    0  0.00000000000E+00  0.00000000000E+00  0.45593999997E+02  0.45594000000E+02  0.51100000000E-03 0.  1.
         11   -1    0    0    0    0 -0.00000000000E+00 -0.00000000000E+00 -0.45593999997E+02  0.45594000000E+02  0.51100000000E-03 0. -1.
    9900012    2    1    2    0    0 -0.18778797895E+02  0.34518338570E+02 -0.18424616997E+02  0.47787245865E+02  0.19999885194E+02 0.  0.
        -12    1    1    2    0    0  0.18778797895E+02 -0.34518338570E+02  0.18424616997E+02  0.43400754135E+02  0.00000000000E+00 0.  1.
         11    1    3    3    0    0 -0.15431621658E+02  0.12713464828E+02 -0.51733175800E+01  0.20652611215E+02  0.51100000000E-03 0. -1.
        -11    1    3    3    0    0 -0.25516281359E+00  0.70775904473E+01  0.18950498152E-02  0.70821888180E+01  0.51100000000E-03 0.  1.
         12    1    3    3    0    0 -0.30920134227E+01  0.14727283295E+02 -0.13253194467E+02  0.20052445832E+02  0.00000000000E+00 0. -1.
</event>
<event>
 7    1  0.4236733E-010  0.4778727E+02  0.7816164E-02  0.1312668E+00
        -11   -1    0    0    0    0  0.00000000000E+00  0.00000000000E+00  0.45593999997E+02  0.45594000000E+02  0.51100000000E-03 0.  1.
         11   -1    0    0    0    0 -0.00000000000E+00 -0.00000000000E+00 -0.45593999997E+02  0.45594000000E+02  0.51100000000E-03 0. -1.
    9900012    2    1    2    0    0  0.38885558195E+01  0.81539314788E+01 -0.42450155430E+02  0.47787272346E+02  0.20000005932E+02 0.  0.
        -12    1    1    2    0    0 -0.38885558195E+01 -0.81539314788E+01  0.42450155430E+02  0.43400727654E+02  0.00000000000E+00 0.  1.
         11    1    3    3    0    0 -0.43746255315E+01  0.48207538075E+01 -0.19163328107E+02  0.20238828035E+02  0.51100000000E-03 0. -1.
        -11    1    3    3    0    0 -0.18374870023E+01  0.41515299230E+01 -0.82268733554E+01  0.93964357419E+01  0.51100000000E-03 0.  1.
        -12    1    3    3    0    0  0.10100668353E+02 -0.81835225174E+00 -0.15059953967E+02  0.18152008569E+02  0.00000000000E+00 0.  1.
</event>
<event>
 7    1  0.4236733E-010  0.4778728E+02  0.7816164E-02  0.1312668E+00
        -11   -1    0    0    0    0  0.00000000000E+00  0.00000000000E+00  0.45593999997E+02  0.45594000000E+02  0.51100000000E-03 0. -1.
         11   -1    0    0    0    0 -0.00000000000E+00 -0.00000000000E+00 -0.45593999997E+02  0.45594000000E+02  0.51100000000E-03 0.  1.
    9900012    2    1    2    0    0  0.73025828215E+01 -0.40242136035E+02  0.14521203124E+02  0.47787279168E+02  0.20000037040E+02 0.  0.
        -12    1    1    2    0    0 -0.73025828215E+01  0.40242136035E+02 -0.14521203124E+02  0.43400720832E+02  0.00000000000E+00 0.  1.
         11    1    3    3    0    0 -0.88005524964E+00 -0.32510176022E+02  0.12007509931E+02  0.34667943943E+02  0.51100000000E-03 0. -1.
        -11    1    3    3    0    0  0.34356301604E-01 -0.12763995714E+00  0.19554925150E+01  0.19599549871E+01  0.51100000000E-03 0.  1.
         12    1    3    3    0    0  0.81482817695E+01 -0.76043200559E+01  0.55820067869E+00  0.11159380238E+02  0.00000000000E+00 0. -1.
</event>
<event>
 7    1  0.4264471E-010  0.4778727E+02  0.7816164E-02  0.1312668E+00
        -11   -1    0    0    0    0  0.00000000000E+00  0.00000000000E+00  0.45593999997E+02  0.45594000000E+02  0.51100000000E-03 0.  1.
         11   -1    0    0    0    0 -0.00000000000E+00 -0.00000000000E+00 -0.45593999997E+02  0.45594000000E+02  0.51100000000E-03 0. -1.
    9900012    2    1    2    0    0  0.19565190299E+02  0.34099801821E+02 -0.18385589278E+02  0.47787273637E+02  0.20000011821E+02 0.  0.
        -12    1    1    2    0    0 -0.19565190299E+02 -0.34099801821E+02  0.18385589278E+02  0.43400726363E+02  0.00000000000E+00 0.  1.
         11    1    3    3    0    0  0.28423986198E+01  0.74028723227E+01 -0.71711482625E+01  0.10691450613E+02  0.51100000000E-03 0. -1.
        -11    1    3    3    0    0  0.19881211435E+02  0.22368400987E+02 -0.86262235458E+01  0.31145138686E+02  0.51100000000E-03 0.  1.
        -12    1    3    3    0    0 -0.31584197552E+01  0.43285285115E+01 -0.25882174698E+01  0.59506843385E+01  0.00000000000E+00 0.  1.
</event>
<event>
 7    1  0.4236733E-010  0.4778727E+02  0.7816164E-02  0.1312668E+00
        -11   -1    0    0    0    0  0.00000000000E+00  0.00000000000E+00  0.45593999997E+02  0.45594000000E+02  0.51100000000E-03 0. -1.
         11   -1    0    0    0    0 -0.00000000000E+00 -0.00000000000E+00 -0.45593999997E+02  0.45594000000E+02  0.51100000000E-03 0.  1.
    9900012    2    1    2    0    0 -0.26476923756E+02 -0.32887290490E+02 -0.10050965613E+02  0.47787271007E+02  0.19999999831E+02 0.  0.
        -12    1    1    2    0    0  0.26476923756E+02  0.32887290490E+02  0.10050965613E+02  0.43400728993E+02  0.00000000000E+00 0.  1.
         11    1    3    3    0    0 -0.13169473067E+02 -0.19470652589E+02 -0.43207089529E+01  0.23899997055E+02  0.51100000000E-03 0. -1.
        -11    1    3    3    0    0 -0.82707503877E+01 -0.65606195966E+01  0.37002722456E+01  0.11186556951E+02  0.51100000000E-03 0.  1.
        -12    1    3    3    0    0 -0.50367003011E+01 -0.68560183048E+01 -0.94305289056E+01  0.12700717002E+02  0.00000000000E+00 0.  1.
</event>
<event>
 7    1  0.4236733E-010  0.4778728E+02  0.7816164E-02  0.1312668E+00
        -11   -1    0    0    0    0  0.00000000000E+00  0.00000000000E+00  0.45593999997E+02  0.45594000000E+02  0.51100000000E-03 0.  1.
         11   -1    0    0    0    0 -0.00000000000E+00 -0.00000000000E+00 -0.45593999997E+02  0.45594000000E+02  0.51100000000E-03 0. -1.
    9900012    2    1    2    0    0  0.23728228486E+02 -0.62671106864E+00 -0.36334574623E+02  0.47787275273E+02  0.20000019279E+02 0.  0.
        -12    1    1    2    0    0 -0.23728228486E+02  0.62671106864E+00  0.36334574623E+02  0.43400724727E+02  0.00000000000E+00 0.  1.
         11    1    3    3    0    0  0.14765835014E+02 -0.40427141078E+01 -0.22818455117E+02  0.27478269873E+02  0.51100000000E-03 0. -1.
        -11    1    3    3    0    0  0.74410395047E+01  0.85480798981E+00 -0.15157999290E+02  0.16907534071E+02  0.51100000000E-03 0.  1.
         12    1    3    3    0    0  0.15213539664E+01  0.25611950493E+01  0.16418797849E+01  0.34014713287E+01  0.00000000000E+00 0. -1.
</event>
<event>
 7    1  0.4236733E-010  0.4778724E+02  0.7816164E-02  0.1312668E+00
        -11   -1    0    0    0    0  0.00000000000E+00  0.00000000000E+00  0.45593999997E+02  0.45594000000E+02  0.51100000000E-03 0.  1.
         11   -1    0    0    0    0 -0.00000000000E+00 -0.00000000000E+00 -0.45593999997E+02  0.45594000000E+02  0.51100000000E-03 0. -1.
    9900012    2    1    2    0    0  0.15675826606E+02  0.31883791131E+02 -0.24926250057E+02  0.47787244032E+02  0.19999876839E+02 0.  0.
        -12    1    1    2    0    0 -0.15675826606E+02 -0.31883791131E+02  0.24926250057E+02  0.43400755968E+02  0.00000000000E+00 0.  1.
         11    1    3    3    0    0  0.12380175239E+02  0.25476111441E+02 -0.25543148731E+02  0.38141230191E+02  0.51100000000E-03 0. -1.
        -11    1    3    3    0    0  0.19594662659E+01 -0.92111383795E+00 -0.57610137032E-01  0.21659358113E+01  0.51100000000E-03 0.  1.
        -12    1    3    3    0    0  0.13361851012E+01  0.73287935279E+01  0.67450881083E+00  0.74800780300E+01  0.00000000000E+00 0.  1.
</event>
<event>
 7    1  0.4236733E-010  0.4778728E+02  0.7816164E-02  0.1312668E+00
        -11   -1    0    0    0    0  0.00000000000E+00  0.00000000000E+00  0.45593999997E+02  0.45594000000E+02  0.51100000000E-03 0.  1.
         11   -1    0    0    0    0 -0.00000000000E+00 -0.00000000000E+00 -0.45593999997E+02  0.45594000000E+02  0.51100000000E-03 0. -1.
    9900012    2    1    2    0    0 -0.28169092481E+02  0.32792996185E+02  0.38398423344E+01  0.47787276974E+02  0.20000027036E+02 0.  0.
        -12    1    1    2    0    0  0.28169092481E+02 -0.32792996185E+02 -0.38398423344E+01  0.43400723026E+02  0.00000000000E+00 0.  1.
         11    1    3    3    0    0 -0.25808913609E+01  0.11019738567E+02  0.38434856988E+01  0.11952741145E+02  0.51100000000E-03 0. -1.
        -11    1    3    3    0    0 -0.85511192227E+00  0.61375126813E+00 -0.29694635697E+01  0.31504953851E+01  0.51100000000E-03 0.  1.
        -12    1    3    3    0    0 -0.24733089198E+02  0.21159506350E+02  0.29658202054E+01  0.32684040444E+02  0.00000000000E+00 0.  1.
</event>
<event>
 7    1  0.4236733E-010  0.4778727E+02  0.7816164E-02  0.1312668E+00
        -11   -1    0    0    0    0  0.00000000000E+00  0.00000000000E+00  0.45593999997E+02  0.45594000000E+02  0.51100000000E-03 0.  1.
         11   -1    0    0    0    0 -0.00000000000E+00 -0.00000000000E+00 -0.45593999997E+02  0.45594000000E+02  0.51100000000E-03 0. -1.
    9900012    2    1    2    0    0 -0.35926864098E+02 -0.23539719616E+02  0.62261640236E+01  0.47787273255E+02  0.20000010080E+02 0.  0.
        -12    1    1    2    0    0  0.35926864098E+02  0.23539719616E+02 -0.62261640236E+01  0.43400726745E+02  0.00000000000E+00 0.  1.
         11    1    3    3    0    0  0.52502816119E+00 -0.51347922217E+01 -0.15044517807E+01  0.53763483102E+01  0.51100000000E-03 0. -1.
        -11    1    3    3    0    0 -0.86811708234E+01 -0.45434932214E+01  0.56333224383E+01  0.11302228960E+02  0.51100000000E-03 0.  1.
         12    1    3    3    0    0 -0.27770721436E+02 -0.13861434173E+02  0.20972933660E+01  0.31108695985E+02  0.00000000000E+00 0. -1.
</event>
<event>
 7    1  0.4236733E-010  0.4778726E+02  0.7816164E-02  0.1312668E+00
        -11   -1    0    0    0    0  0.00000000000E+00  0.00000000000E+00  0.45593999997E+02  0.45594000000E+02  0.51100000000E-03 0.  1.
         11   -1    0    0    0    0 -0.00000000000E+00 -0.00000000000E+00 -0.45593999997E+02  0.45594000000E+02  0.51100000000E-03 0. -1.
    9900012    2    1    2    0    0  0.37042627404E+02  0.10520850915E+02 -0.20019477886E+02  0.47787262175E+02  0.19999959559E+02 0.  0.
        -12    1    1    2    0    0 -0.37042627404E+02 -0.10520850915E+02  0.20019477886E+02  0.43400737825E+02  0.00000000000E+00 0.  1.
         11    1    3    3    0    0  0.10153005755E+02  0.90162863844E+01 -0.26612734107E+01  0.13836882686E+02  0.51100000000E-03 0.  1.
        -11    1    3    3    0    0  0.50527972900E+01 -0.20781667836E+01  0.53901507790E+00  0.54899977367E+01  0.51100000000E-03 0. -1.
         12    1    3    3    0    0  0.21836824359E+02  0.35827313143E+01 -0.17897219554E+02  0.28460381752E+02  0.00000000000E+00 0. -1.
</event>
<event>
 7    1  0.4236733E-010  0.4778727E+02  0.7816164E-02  0.1312668E+00
        -11   -1    0    0    0    0  0.00000000000E+00  0.00000000000E+00  0.45593999997E+02  0.45594000000E+02  0.51100000000E-03 0.  1.
         11   -1    0    0    0    0 -0.00000000000E+00 -0.00000000000E+00 -0.45593999997E+02  0.45594000000E+02  0.51100000000E-03 0. -1.
    9900012    2    1    2    0    0  0.37925989038E+02  0.13504319182E+02 -0.16213452913E+02  0.47787270323E+02  0.19999996712E+02 0.  0.
        -12    1    1    2    0    0 -0.37925989038E+02 -0.13504319182E+02  0.16213452913E+02  0.43400729677E+02  0.00000000000E+00 0.  1.
         11    1    3    3    0    0  0.15990216712E+02  0.12463117392E+02 -0.62467338527E+01  0.21214099314E+02  0.51100000000E-03 0.  1.
        -11    1    3    3    0    0  0.59810812249E+01  0.19590524346E+01 -0.84273267542E+01  0.10518129850E+02  0.51100000000E-03 0. -1.
        -12    1    3    3    0    0  0.15954691101E+02 -0.91785064468E+00 -0.15393923064E+01  0.16055041159E+02  0.00000000000E+00 0.  1.
</event>
<event>
 7    1  0.5123125E-010  0.4778726E+02  0.7816164E-02  0.1312668E+00
        -11   -1    0    0    0    0  0.00000000000E+00  0.00000000000E+00  0.45593999997E+02  0.45594000000E+02  0.51100000000E-03 0.  1.
         11   -1    0    0    0    0 -0.00000000000E+00 -0.00000000000E+00 -0.45593999997E+02  0.45594000000E+02  0.51100000000E-03 0. -1.
    9900012    2    1    2    0    0 -0.29174446992E+02  0.21078322500E+02 -0.24252430564E+02  0.47787257783E+02  0.19999939536E+02 0.  0.
        -12    1    1    2    0    0  0.29174446992E+02 -0.21078322500E+02  0.24252430564E+02  0.43400742217E+02  0.00000000000E+00 0.  1.
         11    1    3    3    0    0 -0.18745796198E+02  0.82764463164E+01 -0.96708982695E+01  0.22659009518E+02  0.51100000000E-03 0. -1.
        -11    1    3    3    0    0 -0.10999243129E+02  0.88368853197E+01 -0.15560182553E+02  0.21004598852E+02  0.51100000000E-03 0.  1.
        -12    1    3    3    0    0  0.57059233444E+00  0.39649908635E+01  0.97865025853E+00  0.41236494139E+01  0.00000000000E+00 0.  1.
</event>
<event>
 7    1  0.4236733E-010  0.4778727E+02  0.7816164E-02  0.1312668E+00
        -11   -1    0    0    0    0  0.00000000000E+00  0.00000000000E+00  0.45593999997E+02  0.45594000000E+02  0.51100000000E-03 0. -1.
         11   -1    0    0    0    0 -0.00000000000E+00 -0.00000000000E+00 -0.45593999997E+02  0.45594000000E+02  0.51100000000E-03 0.  1.
    9900012    2    1    2    0    0  0.30393165966E+02  0.27020110751E+01  0.30863861542E+02  0.47787270161E+02  0.19999995973E+02 0.  0.
        -12    1    1    2    0    0 -0.30393165966E+02 -0.27020110751E+01 -0.30863861542E+02  0.43400729839E+02  0.00000000000E+00 0.  1.
         11    1    3    3    0    0  0.24809332016E+02  0.12843523913E+01  0.27650950665E+02  0.37171596537E+02  0.51100000000E-03 0. -1.
        -11    1    3    3    0    0  0.38517325489E+01 -0.27373791097E+01  0.38160667685E+01  0.60738335392E+01  0.51100000000E-03 0.  1.
        -12    1    3    3    0    0  0.17321014012E+01  0.41550377935E+01 -0.60315589204E+00  0.45418400852E+01  0.00000000000E+00 0.  1.
</event>
<event>
 7    1  0.4236733E-010  0.4778727E+02  0.7816164E-02  0.1312668E+00
        -11   -1    0    0    0    0  0.00000000000E+00  0.00000000000E+00  0.45593999997E+02  0.45594000000E+02  0.51100000000E-03 0.  1.
         11   -1    0    0    0    0 -0.00000000000E+00 -0.00000000000E+00 -0.45593999997E+02  0.45594000000E+02  0.51100000000E-03 0. -1.
    9900012    2    1    2    0    0  0.21736381034E+02  0.81302415289E+01 -0.36674952394E+02  0.47787271655E+02  0.20000002782E+02 0.  0.
        -12    1    1    2    0    0 -0.21736381034E+02 -0.81302415289E+01  0.36674952394E+02  0.43400728345E+02  0.00000000000E+00 0.  1.
         11    1    3    3    0    0  0.19401974923E+02  0.35363537760E+01 -0.15766877030E+02  0.25249491886E+02  0.51100000000E-03 0. -1.
        -11    1    3    3    0    0 -0.80130322840E+00  0.97496498388E+00 -0.19325553202E+00  0.12767112224E+01  0.51100000000E-03 0.  1.
         12    1    3    3    0    0  0.31357093396E+01  0.36189227690E+01 -0.20714819832E+02  0.21261068546E+02  0.00000000000E+00 0. -1.
</event>
<event>
 7    1  0.4236733E-010  0.4778728E+02  0.7816164E-02  0.1312668E+00
        -11   -1    0    0    0    0  0.00000000000E+00  0.00000000000E+00  0.45593999997E+02  0.45594000000E+02  0.51100000000E-03 0.  1.
         11   -1    0    0    0    0 -0.00000000000E+00 -0.00000000000E+00 -0.45593999997E+02  0.45594000000E+02  0.51100000000E-03 0. -1.
    9900012    2    1    2    0    0  0.36311828681E+02 -0.32468163689E+00 -0.23769066435E+02  0.47787276048E+02  0.20000022815E+02 0.  0.
        -12    1    1    2    0    0 -0.36311828681E+02  0.32468163689E+00  0.23769066435E+02  0.43400723952E+02  0.00000000000E+00 0.  1.
         11    1    3    3    0    0  0.35471407138E+01  0.54312994387E+01 -0.43174721723E+01  0.77924185627E+01  0.51100000000E-03 0.  1.
        -11    1    3    3    0    0  0.24653351491E+01 -0.27892203341E+01  0.25145352644E+00  0.37310664168E+01  0.51100000000E-03 0. -1.
         12    1    3    3    0    0  0.30299352818E+02 -0.29667607415E+01 -0.19703047789E+02  0.36263791069E+02  0.00000000000E+00 0. -1.
</event>
<event>
 7    1  0.4236733E-010  0.4778727E+02  0.7816164E-02  0.1312668E+00
        -11   -1    0    0    0    0  0.00000000000E+00  0.00000000000E+00  0.45593999997E+02  0.45594000000E+02  0.51100000000E-03 0.  1.
         11   -1    0    0    0    0 -0.00000000000E+00 -0.00000000000E+00 -0.45593999997E+02  0.45594000000E+02  0.51100000000E-03 0. -1.
    9900012    2    1    2    0    0  0.35720431108E+02 -0.17414024463E+02 -0.17447812403E+02  0.47787267239E+02  0.19999982650E+02 0.  0.
        -12    1    1    2    0    0 -0.35720431108E+02  0.17414024463E+02  0.17447812403E+02  0.43400732761E+02  0.00000000000E+00 0.  1.
         11    1    3    3    0    0  0.33260067661E+02 -0.10406781290E+02 -0.14816248503E+02  0.37868910964E+02  0.51100000000E-03 0. -1.
        -11    1    3    3    0    0  0.45711694292E+00  0.91019012334E+00 -0.12873437766E+01  0.16415408068E+01  0.51100000000E-03 0.  1.
         12    1    3    3    0    0  0.20032465036E+01 -0.79174332960E+01 -0.13442201239E+01  0.82768154681E+01  0.00000000000E+00 0. -1.
</event>
<event>
 7    1  0.4236733E-010  0.4778728E+02  0.7816164E-02  0.1312668E+00
        -11   -1    0    0    0    0  0.00000000000E+00  0.00000000000E+00  0.45593999997E+02  0.45594000000E+02  0.51100000000E-03 0.  1.
         11   -1    0    0    0    0 -0.00000000000E+00 -0.00000000000E+00 -0.45593999997E+02  0.45594000000E+02  0.51100000000E-03 0. -1.
    9900012    2    1    2    0    0  0.10695413264E+02 -0.95789202992E+00 -0.42051319151E+02  0.47787275762E+02  0.20000021510E+02 0.  0.
        -12    1    1    2    0    0 -0.10695413264E+02  0.95789202992E+00  0.42051319151E+02  0.43400724238E+02  0.00000000000E+00 0.  1.
         11    1    3    3    0    0  0.87893179534E+01 -0.62784494420E+01 -0.17621822253E+02  0.20668808801E+02  0.51100000000E-03 0. -1.
        -11    1    3    3    0    0 -0.61537186973E+00 -0.17757684036E+01 -0.14676139234E+02  0.14795982530E+02  0.51100000000E-03 0.  1.
        -12    1    3    3    0    0  0.25214671799E+01  0.70963258156E+01 -0.97533576639E+01  0.12322484431E+02  0.00000000000E+00 0.  1.
</event>
<event>
 7    1  0.4236733E-010  0.4778727E+02  0.7816164E-02  0.1312668E+00
        -11   -1    0    0    0    0  0.00000000000E+00  0.00000000000E+00  0.45593999997E+02  0.45594000000E+02  0.51100000000E-03 0.  1.
         11   -1    0    0    0    0 -0.00000000000E+00 -0.00000000000E+00 -0.45593999997E+02  0.45594000000E+02  0.51100000000E-03 0. -1.
    9900012    2    1    2    0    0  0.65785180804E+01 -0.37610489187E+02 -0.20634855442E+02  0.47787273552E+02  0.20000011435E+02 0.  0.
        -12    1    1    2    0    0 -0.65785180804E+01  0.37610489187E+02  0.20634855442E+02  0.43400726448E+02  0.00000000000E+00 0.  1.
         11    1    3    3    0    0 -0.68274427301E+00 -0.10814339111E+02 -0.59859968609E+01  0.12379346866E+02  0.51100000000E-03 0. -1.
        -11    1    3    3    0    0  0.43662278279E+01 -0.20707342333E+02 -0.22336369682E+01  0.21280204565E+02  0.51100000000E-03 0.  1.
         12    1    3    3    0    0  0.28950345256E+01 -0.60888077434E+01 -0.12415221613E+02  0.14127722122E+02  0.00000000000E+00 0. -1.
</event>
<event>
 7    1  0.4236733E-010  0.4778727E+02  0.7816164E-02  0.1312668E+00
        -11   -1    0    0    0    0  0.00000000000E+00  0.00000000000E+00  0.45593999997E+02  0.45594000000E+02  0.51100000000E-03 0.  1.
         11   -1    0    0    0    0 -0.00000000000E+00 -0.00000000000E+00 -0.45593999997E+02  0.45594000000E+02  0.51100000000E-03 0. -1.
    9900012    2    1    2    0    0  0.30606476533E+02 -0.22887846841E+02 -0.20567286862E+02  0.47787271577E+02  0.20000002427E+02 0.  0.
        -12    1    1    2    0    0 -0.30606476533E+02  0.22887846841E+02  0.20567286862E+02  0.43400728423E+02  0.00000000000E+00 0.  1.
         11    1    3    3    0    0  0.30751786634E+02 -0.19582156622E+02 -0.19000301349E+02  0.41111369361E+02  0.51100000000E-03 0. -1.
        -11    1    3    3    0    0  0.21272453465E+01  0.35260969963E+00 -0.80882389177E+00  0.23029769242E+01  0.51100000000E-03 0.  1.
         12    1    3    3    0    0 -0.22725554471E+01 -0.36582999191E+01 -0.75816162076E+00  0.43729252911E+01  0.00000000000E+00 0. -1.
</event>
<event>
 7    1  0.4236733E-010  0.4778728E+02  0.7816164E-02  0.1312668E+00
        -11   -1    0    0    0    0  0.00000000000E+00  0.00000000000E+00  0.45593999997E+02  0.45594000000E+02  0.51100000000E-03 0.  1.
         11   -1    0    0    0    0 -0.00000000000E+00 -0.00000000000E+00 -0.45593999997E+02  0.45594000000E+02  0.51100000000E-03 0. -1.
    9900012    2    1    2    0    0 -0.25474875621E+02  0.33462062169E+02 -0.10721188279E+02  0.47787276842E+02  0.20000026432E+02 0.  0.
        -12    1    1    2    0    0  0.25474875621E+02 -0.33462062169E+02  0.10721188279E+02  0.43400723158E+02  0.00000000000E+00 0.  1.
         11    1    3    3    0    0 -0.53103696959E+01  0.57965857959E+01 -0.27980243990E+01  0.83444217293E+01  0.51100000000E-03 0. -1.
        -11    1    3    3    0    0 -0.20256947813E+01  0.12749645165E+02 -0.93123269896E+01  0.15917799012E+02  0.51100000000E-03 0.  1.
        -12    1    3    3    0    0 -0.18138811144E+02  0.14915831209E+02  0.13891631098E+01  0.23525056100E+02  0.00000000000E+00 0.  1.
</event>
<event>
 7    1  0.4236733E-010  0.4778733E+02  0.7816164E-02  0.1312668E+00
        -11   -1    0    0    0    0  0.00000000000E+00  0.00000000000E+00  0.45593999997E+02  0.45594000000E+02  0.51100000000E-03 0. -1.
         11   -1    0    0    0    0 -0.00000000000E+00 -0.00000000000E+00 -0.45593999997E+02  0.45594000000E+02  0.51100000000E-03 0.  1.
    9900012    2    1    2    0    0  0.33847087131E+02 -0.11444322777E+02  0.24637788959E+02  0.47787326320E+02  0.20000252022E+02 0.  0.
        -12    1    1    2    0    0 -0.33847087131E+02  0.11444322777E+02 -0.24637788959E+02  0.43400673680E+02  0.00000000000E+00 0.  1.
         11    1    3    3    0    0  0.13434419963E+02 -0.72009680282E+01  0.12257400972E+02  0.19559689648E+02  0.51100000000E-03 0. -1.
        -11    1    3    3    0    0  0.12443720548E+02 -0.96399439237E+01  0.78800396242E+01  0.17603116902E+02  0.51100000000E-03 0.  1.
        -12    1    3    3    0    0  0.79689466199E+01  0.53965891745E+01  0.45003483627E+01  0.10624519770E+02  0.00000000000E+00 0.  1.
</event>
<event>
 7    1  0.4236733E-010  0.4778728E+02  0.7816164E-02  0.1312668E+00
        -11   -1    0    0    0    0  0.00000000000E+00  0.00000000000E+00  0.45593999997E+02  0.45594000000E+02  0.51100000000E-03 0.  1.
         11   -1    0    0    0    0 -0.00000000000E+00 -0.00000000000E+00 -0.45593999997E+02  0.45594000000E+02  0.51100000000E-03 0. -1.
    9900012    2    1    2    0    0  0.23211491383E+02 -0.20733757471E+02 -0.30248317351E+02  0.47787277268E+02  0.20000028378E+02 0.  0.
        -12    1    1    2    0    0 -0.23211491383E+02  0.20733757471E+02  0.30248317351E+02  0.43400722732E+02  0.00000000000E+00 0.  1.
         11    1    3    3    0    0  0.38548400388E+01 -0.15646440800E+00  0.12469293179E+01  0.40545167185E+01  0.51100000000E-03 0. -1.
        -11    1    3    3    0    0  0.87366847092E+01 -0.86745188374E+01 -0.60921894374E+01  0.13736510080E+02  0.51100000000E-03 0.  1.
         12    1    3    3    0    0  0.10619966635E+02 -0.11902774226E+02 -0.25403057231E+02  0.29996250470E+02  0.00000000000E+00 0. -1.
</event>
<event>
 7    1  0.4236733E-010  0.4778727E+02  0.7816164E-02  0.1312668E+00
        -11   -1    0    0    0    0  0.00000000000E+00  0.00000000000E+00  0.45593999997E+02  0.45594000000E+02  0.51100000000E-03 0.  1.
         11   -1    0    0    0    0 -0.00000000000E+00 -0.00000000000E+00 -0.45593999997E+02  0.45594000000E+02  0.51100000000E-03 0. -1.
    9900012    2    1    2    0    0 -0.15538566446E+02  0.38457797129E+02 -0.12773969287E+02  0.47787268456E+02  0.19999988198E+02 0.  0.
        -12    1    1    2    0    0  0.15538566446E+02 -0.38457797129E+02  0.12773969287E+02  0.43400731544E+02  0.00000000000E+00 0.  1.
         11    1    3    3    0    0 -0.15884701612E+01  0.11375556437E+02 -0.72952458619E+01  0.13606878192E+02  0.51100000000E-03 0. -1.
        -11    1    3    3    0    0 -0.14209153854E+01  0.17260194436E+02 -0.57790624904E+01  0.18257351288E+02  0.51100000000E-03 0.  1.
        -12    1    3    3    0    0 -0.12529180900E+02  0.98220462561E+01  0.30033906508E+00  0.15923038976E+02  0.00000000000E+00 0.  1.
</event>
<event>
 7    1  0.4236733E-010  0.4778727E+02  0.7816164E-02  0.1312668E+00
        -11   -1    0    0    0    0  0.00000000000E+00  0.00000000000E+00  0.45593999997E+02  0.45594000000E+02  0.51100000000E-03 0.  1.
         11   -1    0    0    0    0 -0.00000000000E+00 -0.00000000000E+00 -0.45593999997E+02  0.45594000000E+02  0.51100000000E-03 0. -1.
    9900012    2    1    2    0    0 -0.14400711296E+02  0.50059622498E+01 -0.40634749938E+02  0.47787273665E+02  0.20000011948E+02 0.  0.
        -12    1    1    2    0    0  0.14400711296E+02 -0.50059622498E+01  0.40634749938E+02  0.43400726335E+02  0.00000000000E+00 0.  1.
         11    1    3    3    0    0 -0.13824369770E+01 -0.21479048454E+01 -0.69430774842E+00  0.26470154384E+01  0.51100000000E-03 0. -1.
        -11    1    3    3    0    0 -0.57292143147E+01  0.83741384192E-01 -0.23340452017E+01  0.61869763655E+01  0.51100000000E-03 0.  1.
         12    1    3    3    0    0 -0.72890600041E+01  0.70701257110E+01 -0.37606396988E+02  0.38953281861E+02  0.00000000000E+00 0. -1.
</event>
<event>
 7    1  0.4236733E-010  0.4778728E+02  0.7816164E-02  0.1312668E+00
        -11   -1    0    0    0    0  0.00000000000E+00  0.00000000000E+00  0.45593999997E+02  0.45594000000E+02  0.51100000000E-03 0.  1.
         11   -1    0    0    0    0 -0.00000000000E+00 -0.00000000000E+00 -0.45593999997E+02  0.45594000000E+02  0.51100000000E-03 0. -1.
    9900012    2    1    2    0    0  0.61423692601E+01 -0.96960024082E+01 -0.41855478454E+02  0.47787282962E+02  0.20000054336E+02 0.  0.
        -12    1    1    2    0    0 -0.61423692601E+01  0.96960024082E+01  0.41855478454E+02  0.43400717038E+02  0.00000000000E+00 0.  1.
         11    1    3    3    0    0 -0.32306447318E+00 -0.13838042392E+01 -0.92332498984E+01  0.93419585085E+01  0.51100000000E-03 0. -1.
        -11    1    3    3    0    0  0.25783334651E+00  0.27637121589E+01 -0.21155961062E+02  0.21337274232E+02  0.51100000000E-03 0.  1.
         12    1    3    3    0    0  0.62076003867E+01 -0.11075910328E+02 -0.11466267494E+02  0.17108050222E+02  0.00000000000E+00 0. -1.
</event>
<event>
 7    1  0.4236733E-010  0.4778728E+02  0.7816164E-02  0.1312668E+00
        -11   -1    0    0    0    0  0.00000000000E+00  0.00000000000E+00  0.45593999997E+02  0.45594000000E+02  0.51100000000E-03 0.  1.
         11   -1    0    0    0    0 -0.00000000000E+00 -0.00000000000E+00 -0.45593999997E+02  0.45594000000E+02  0.51100000000E-03 0. -1.
    9900012    2    1    2    0    0  0.23296891247E+02  0.28898862146E+02 -0.22488519903E+02  0.47787275323E+02  0.20000019507E+02 0.  0.
        -12    1    1    2    0    0 -0.23296891247E+02 -0.28898862146E+02  0.22488519903E+02  0.43400724677E+02  0.00000000000E+00 0.  1.
         11    1    3    3    0    0  0.14847692036E+02  0.18285924925E+02 -0.75488193220E+01  0.24734867750E+02  0.51100000000E-03 0. -1.
        -11    1    3    3    0    0  0.62973745980E+01  0.18015480293E+00 -0.27782902880E+01  0.68853670757E+01  0.51100000000E-03 0.  1.
         12    1    3    3    0    0  0.21518246124E+01  0.10432782418E+02 -0.12161410293E+02  0.16167040497E+02  0.00000000000E+00 0. -1.
</event>
<event>
 7    1  0.4236733E-010  0.4778727E+02  0.7816164E-02  0.1312668E+00
        -11   -1    0    0    0    0  0.00000000000E+00  0.00000000000E+00  0.45593999997E+02  0.45594000000E+02  0.51100000000E-03 0.  1.
         11   -1    0    0    0    0 -0.00000000000E+00 -0.00000000000E+00 -0.45593999997E+02  0.45594000000E+02  0.51100000000E-03 0. -1.
    9900012    2    1    2    0    0  0.23632016341E+01  0.23312681624E+02 -0.36531590945E+02  0.47787274390E+02  0.20000015255E+02 0.  0.
        -12    1    1    2    0    0 -0.23632016341E+01 -0.23312681624E+02  0.36531590945E+02  0.43400725610E+02  0.00000000000E+00 0.  1.
         11    1    3    3    0    0 -0.37330459234E+01  0.57548403124E+01 -0.36436550511E+01  0.77672415489E+01  0.51100000000E-03 0. -1.
        -11    1    3    3    0    0  0.20784125552E+00 -0.98368902541E+00  0.68594022958E+00  0.12171098331E+01  0.51100000000E-03 0.  1.
         12    1    3    3    0    0  0.58884063019E+01  0.18541530337E+02 -0.33573876124E+02  0.38802923008E+02  0.00000000000E+00 0. -1.
</event>
<event>
 7    1  0.4236733E-010  0.4778727E+02  0.7816164E-02  0.1312668E+00
        -11   -1    0    0    0    0  0.00000000000E+00  0.00000000000E+00  0.45593999997E+02  0.45594000000E+02  0.51100000000E-03 0.  1.
         11   -1    0    0    0    0 -0.00000000000E+00 -0.00000000000E+00 -0.45593999997E+02  0.45594000000E+02  0.51100000000E-03 0. -1.
    9900012    2    1    2    0    0 -0.20464819049E+02  0.34198830930E+02 -0.17182971617E+02  0.47787269945E+02  0.19999994988E+02 0.  0.
        -12    1    1    2    0    0  0.20464819049E+02 -0.34198830930E+02  0.17182971617E+02  0.43400730055E+02  0.00000000000E+00 0.  1.
         11    1    3    3    0    0 -0.11601442132E+02  0.25438021475E+02 -0.17370225690E+02  0.32915211330E+02  0.51100000000E-03 0. -1.
        -11    1    3    3    0    0 -0.63901416442E+01  0.99039047437E+01 -0.11397513421E+01  0.11841464132E+02  0.51100000000E-03 0.  1.
         12    1    3    3    0    0 -0.24732352725E+01 -0.11430952879E+01  0.13270054158E+01  0.30305944835E+01  0.00000000000E+00 0. -1.
</event>
<event>
 7    1  0.4236733E-010  0.4778727E+02  0.7816164E-02  0.1312668E+00
        -11   -1    0    0    0    0  0.00000000000E+00  0.00000000000E+00  0.45593999997E+02  0.45594000000E+02  0.51100000000E-03 0. -1.
         11   -1    0    0    0    0 -0.00000000000E+00 -0.00000000000E+00 -0.45593999997E+02  0.45594000000E+02  0.51100000000E-03 0.  1.
    9900012    2    1    2    0    0 -0.11341130418E+02 -0.12027313443E+02  0.40129112511E+02  0.47787272140E+02  0.20000004995E+02 0.  0.
        -12    1    1    2    0    0  0.11341130418E+02  0.12027313443E+02 -0.40129112511E+02  0.43400727860E+02  0.00000000000E+00 0.  1.
         11    1    3    3    0    0 -0.54194237340E+01  0.31527641179E+01  0.12343051034E+02  0.13844167879E+02  0.51100000000E-03 0. -1.
        -11    1    3    3    0    0 -0.51943341549E+01 -0.10038033581E+01  0.70671106076E+01  0.88279545250E+01  0.51100000000E-03 0.  1.
         12    1    3    3    0    0 -0.72737252945E+00 -0.14176274203E+02  0.20718950870E+02  0.25115149736E+02  0.00000000000E+00 0. -1.
</event>
<event>
 7    1  0.4236733E-010  0.4778730E+02  0.7816164E-02  0.1312668E+00
        -11   -1    0    0    0    0  0.00000000000E+00  0.00000000000E+00  0.45593999997E+02  0.45594000000E+02  0.51100000000E-03 0.  1.
         11   -1    0    0    0    0 -0.00000000000E+00 -0.00000000000E+00 -0.45593999997E+02  0.45594000000E+02  0.51100000000E-03 0. -1.
    9900012    2    1    2    0    0  0.35952302441E+02 -0.83071329195E+01  0.22848297094E+02  0.47787295072E+02  0.20000109551E+02 0.  0.
        -12    1    1    2    0    0 -0.35952302441E+02  0.83071329195E+01 -0.22848297094E+02  0.43400704928E+02  0.00000000000E+00 0.  1.
         11    1    3    3    0    0  0.27638057147E+01 -0.19375198176E+00  0.70463278852E+01  0.75714528847E+01  0.51100000000E-03 0. -1.
        -11    1    3    3    0    0  0.28301298510E+02 -0.47280813933E+01  0.18006006756E+02  0.33875279048E+02  0.51100000000E-03 0.  1.
         12    1    3    3    0    0  0.48871982161E+01 -0.33852995444E+01 -0.22040375477E+01  0.63405631391E+01  0.00000000000E+00 0. -1.
</event>
<event>
 7    1  0.4236733E-010  0.4778727E+02  0.7816164E-02  0.1312668E+00
        -11   -1    0    0    0    0  0.00000000000E+00  0.00000000000E+00  0.45593999997E+02  0.45594000000E+02  0.51100000000E-03 0.  1.
         11   -1    0    0    0    0 -0.00000000000E+00 -0.00000000000E+00 -0.45593999997E+02  0.45594000000E+02  0.51100000000E-03 0. -1.
    9900012    2    1    2    0    0 -0.23472043112E+02  0.36492584505E+02  0.98879699372E+00  0.47787271306E+02  0.20000001192E+02 0.  0.
        -12    1    1    2    0    0  0.23472043112E+02 -0.36492584505E+02 -0.98879699372E+00  0.43400728694E+02  0.00000000000E+00 0.  1.
         11    1    3    3    0    0  0.10007581525E+01 -0.17858074622E+01  0.66062664370E-01  0.20481674025E+01  0.51100000000E-03 0.  1.
        -11    1    3    3    0    0 -0.11448242792E+02  0.14921812994E+02  0.23759780937E+01  0.18957004991E+02  0.51100000000E-03 0. -1.
        -12    1    3    3    0    0 -0.13024558472E+02  0.23356578973E+02 -0.14532437644E+01  0.26782098913E+02  0.00000000000E+00 0.  1.
</event>
<event>
 7    1  0.4236733E-010  0.4778727E+02  0.7816164E-02  0.1312668E+00
        -11   -1    0    0    0    0  0.00000000000E+00  0.00000000000E+00  0.45593999997E+02  0.45594000000E+02  0.51100000000E-03 0.  1.
         11   -1    0    0    0    0 -0.00000000000E+00 -0.00000000000E+00 -0.45593999997E+02  0.45594000000E+02  0.51100000000E-03 0. -1.
    9900012    2    1    2    0    0 -0.20667922711E+02  0.25767537815E+02 -0.28151277935E+02  0.47787268628E+02  0.19999988984E+02 0.  0.
        -12    1    1    2    0    0  0.20667922711E+02 -0.25767537815E+02  0.28151277935E+02  0.43400731372E+02  0.00000000000E+00 0.  1.
         11    1    3    3    0    0 -0.10074530766E+02  0.71150444682E+01 -0.81840695382E+01  0.14801993866E+02  0.51100000000E-03 0. -1.
        -11    1    3    3    0    0 -0.11441222966E+02  0.48779221537E+01 -0.88738776455E+01  0.15278789619E+02  0.51100000000E-03 0.  1.
        -12    1    3    3    0    0  0.84783102064E+00  0.13774571193E+02 -0.11093330751E+02  0.17706485144E+02  0.00000000000E+00 0.  1.
</event>
<event>
 7    1  0.4236733E-010  0.4778727E+02  0.7816164E-02  0.1312668E+00
        -11   -1    0    0    0    0  0.00000000000E+00  0.00000000000E+00  0.45593999997E+02  0.45594000000E+02  0.51100000000E-03 0.  1.
         11   -1    0    0    0    0 -0.00000000000E+00 -0.00000000000E+00 -0.45593999997E+02  0.45594000000E+02  0.51100000000E-03 0. -1.
    9900012    2    1    2    0    0 -0.26755126351E+02  0.26124409358E+02 -0.22029570142E+02  0.47787268313E+02  0.19999987546E+02 0.  0.
        -12    1    1    2    0    0  0.26755126351E+02 -0.26124409358E+02  0.22029570142E+02  0.43400731687E+02  0.00000000000E+00 0.  1.
         11    1    3    3    0    0 -0.30946670223E+01  0.16346698640E+01 -0.13452511960E+01  0.37495080457E+01  0.51100000000E-03 0. -1.
        -11    1    3    3    0    0 -0.49347792894E+01 -0.17703447728E+01 -0.75979700544E+01  0.92312142461E+01  0.51100000000E-03 0.  1.
        -12    1    3    3    0    0 -0.18725680039E+02  0.26260084267E+02 -0.13086348891E+02  0.34806546021E+02  0.00000000000E+00 0.  1.
</event>
<event>
 7    1  0.4236733E-010  0.4778728E+02  0.7816164E-02  0.1312668E+00
        -11   -1    0    0    0    0  0.00000000000E+00  0.00000000000E+00  0.45593999997E+02  0.45594000000E+02  0.51100000000E-03 0. -1.
         11   -1    0    0    0    0 -0.00000000000E+00 -0.00000000000E+00 -0.45593999997E+02  0.45594000000E+02  0.51100000000E-03 0.  1.
    9900012    2    1    2    0    0 -0.26675156389E+02  0.18203444956E+02  0.28994715421E+02  0.47787275364E+02  0.20000019693E+02 0.  0.
        -12    1    1    2    0    0  0.26675156389E+02 -0.18203444956E+02 -0.28994715421E+02  0.43400724636E+02  0.00000000000E+00 0.  1.
         11    1    3    3    0    0 -0.89709304918E+01  0.61552825820E+01  0.37568241213E+01  0.11509944626E+02  0.51100000000E-03 0. -1.
        -11    1    3    3    0    0 -0.10372253091E+02  0.10560281864E+02  0.66248961304E+01  0.16217041537E+02  0.51100000000E-03 0.  1.
         12    1    3    3    0    0 -0.73319728059E+01  0.14878805107E+01  0.18612995169E+02  0.20060289200E+02  0.00000000000E+00 0. -1.
</event>
<event>
 7    1  0.4236733E-010  0.4778727E+02  0.7816164E-02  0.1312668E+00
        -11   -1    0    0    0    0  0.00000000000E+00  0.00000000000E+00  0.45593999997E+02  0.45594000000E+02  0.51100000000E-03 0. -1.
         11   -1    0    0    0    0 -0.00000000000E+00 -0.00000000000E+00 -0.45593999997E+02  0.45594000000E+02  0.51100000000E-03 0.  1.
    9900012    2    1    2    0    0 -0.42856180125E+02  0.68077400519E+01  0.79134649197E+00  0.47787265803E+02  0.19999976103E+02 0.  0.
        -12    1    1    2    0    0  0.42856180125E+02 -0.68077400519E+01 -0.79134649197E+00  0.43400734197E+02  0.00000000000E+00 0.  1.
         11    1    3    3    0    0 -0.63013594327E+00 -0.77023769909E-02  0.16454648991E+01  0.17620118130E+01  0.51100000000E-03 0. -1.
        -11    1    3    3    0    0 -0.31068194439E+02  0.37909306952E+01  0.69708122019E+01  0.32065496788E+02  0.51100000000E-03 0.  1.
         12    1    3    3    0    0 -0.11157849743E+02  0.30245117337E+01 -0.78249306091E+01  0.13959757203E+02  0.00000000000E+00 0. -1.
</event>
<event>
 7    1  0.4236733E-010  0.4778727E+02  0.7816164E-02  0.1312668E+00
        -11   -1    0    0    0    0  0.00000000000E+00  0.00000000000E+00  0.45593999997E+02  0.45594000000E+02  0.51100000000E-03 0.  1.
         11   -1    0    0    0    0 -0.00000000000E+00 -0.00000000000E+00 -0.45593999997E+02  0.45594000000E+02  0.51100000000E-03 0. -1.
    9900012    2    1    2    0    0  0.37258019250E+02 -0.21040938219E+02  0.72623797993E+01  0.47787271436E+02  0.20000001785E+02 0.  0.
        -12    1    1    2    0    0 -0.37258019250E+02  0.21040938219E+02 -0.72623797993E+01  0.43400728564E+02  0.00000000000E+00 0.  1.
         11    1    3    3    0    0  0.22740686789E+02 -0.11516215485E+02  0.19295861159E+01  0.25563359669E+02  0.51100000000E-03 0. -1.
        -11    1    3    3    0    0  0.14622144936E+02 -0.12109507689E+02  0.45886896592E+01  0.19532111306E+02  0.51100000000E-03 0.  1.
        -12    1    3    3    0    0 -0.10481247529E+00  0.25847849558E+01  0.74410402422E+00  0.26918004609E+01  0.00000000000E+00 0.  1.
</event>
<event>
 7    1  0.4236733E-010  0.4778727E+02  0.7816164E-02  0.1312668E+00
        -11   -1    0    0    0    0  0.00000000000E+00  0.00000000000E+00  0.45593999997E+02  0.45594000000E+02  0.51100000000E-03 0.  1.
         11   -1    0    0    0    0 -0.00000000000E+00 -0.00000000000E+00 -0.45593999997E+02  0.45594000000E+02  0.51100000000E-03 0. -1.
    9900012    2    1    2    0    0 -0.34047988413E+02  0.64525620270E+01 -0.26128953206E+02  0.47787271120E+02  0.20000000345E+02 0.  0.
        -12    1    1    2    0    0  0.34047988413E+02 -0.64525620270E+01  0.26128953206E+02  0.43400728880E+02  0.00000000000E+00 0.  1.
         11    1    3    3    0    0 -0.27864180493E+02  0.27803913428E+01 -0.18395365371E+02  0.33504217614E+02  0.51100000000E-03 0. -1.
        -11    1    3    3    0    0 -0.84264005607E+01  0.14349931921E+01 -0.69583525521E+01  0.11021891960E+02  0.51100000000E-03 0.  1.
        -12    1    3    3    0    0  0.22425926411E+01  0.22371774921E+01 -0.77523528341E+00  0.32611615461E+01  0.00000000000E+00 0.  1.
</event>
<event>
 7    1  0.4236733E-010  0.4778727E+02  0.7816164E-02  0.1312668E+00
        -11   -1    0    0    0    0  0.00000000000E+00  0.00000000000E+00  0.45593999997E+02  0.45594000000E+02  0.51100000000E-03 0.  1.
         11   -1    0    0    0    0 -0.00000000000E+00 -0.00000000000E+00 -0.45593999997E+02  0.45594000000E+02  0.51100000000E-03 0. -1.
    9900012    2    1    2    0    0  0.12611076149E+02  0.12568092065E+02 -0.39580641162E+02  0.47787270345E+02  0.19999996809E+02 0.  0.
        -12    1    1    2    0    0 -0.12611076149E+02 -0.12568092065E+02  0.39580641162E+02  0.43400729655E+02  0.00000000000E+00 0.  1.
         11    1    3    3    0    0  0.92490617826E+01  0.51337310300E+01 -0.16214577801E+02  0.19360084496E+02  0.51100000000E-03 0. -1.
        -11    1    3    3    0    0  0.36753992960E+01  0.97363366127E+01 -0.86602897757E+01  0.13539033565E+02  0.51100000000E-03 0.  1.
        -12    1    3    3    0    0 -0.31338492983E+00 -0.23019755772E+01 -0.14705773585E+02  0.14888152284E+02  0.00000000000E+00 0.  1.
</event>
<event>
 7    1  0.4236733E-010  0.4778727E+02  0.7816164E-02  0.1312668E+00
        -11   -1    0    0    0    0  0.00000000000E+00  0.00000000000E+00  0.45593999997E+02  0.45594000000E+02  0.51100000000E-03 0.  1.
         11   -1    0    0    0    0 -0.00000000000E+00 -0.00000000000E+00 -0.45593999997E+02  0.45594000000E+02  0.51100000000E-03 0. -1.
    9900012    2    1    2    0    0  0.33186773299E+01  0.15664353366E+02 -0.40339038410E+02  0.47787267225E+02  0.19999982584E+02 0.  0.
        -12    1    1    2    0    0 -0.33186773299E+01 -0.15664353366E+02  0.40339038410E+02  0.43400732775E+02  0.00000000000E+00 0.  1.
         11    1    3    3    0    0 -0.33402380334E+01  0.84853040657E+01 -0.14489889631E+02  0.17120586350E+02  0.51100000000E-03 0. -1.
        -11    1    3    3    0    0  0.25326670562E+01  0.78189183379E+01 -0.54901802156E+01  0.98839245977E+01  0.51100000000E-03 0.  1.
        -12    1    3    3    0    0  0.41262483071E+01 -0.63986903790E+00 -0.20358968564E+02  0.20782756277E+02  0.00000000000E+00 0.  1.
</event>
<event>
 7    1  0.4236733E-010  0.4778727E+02  0.7816164E-02  0.1312668E+00
        -11   -1    0    0    0    0  0.00000000000E+00  0.00000000000E+00  0.45593999997E+02  0.45594000000E+02  0.51100000000E-03 0.  1.
         11   -1    0    0    0    0 -0.00000000000E+00 -0.00000000000E+00 -0.45593999997E+02  0.45594000000E+02  0.51100000000E-03 0. -1.
    9900012    2    1    2    0    0 -0.39935362879E+02  0.15042753277E+02 -0.79060397059E+01  0.47787273068E+02  0.20000009225E+02 0.  0.
        -12    1    1    2    0    0  0.39935362879E+02 -0.15042753277E+02  0.79060397059E+01  0.43400726932E+02  0.00000000000E+00 0.  1.
         11    1    3    3    0    0 -0.16353357402E+02 -0.29307852750E+01  0.96509182551E+00  0.16641911043E+02  0.51100000000E-03 0. -1.
        -11    1    3    3    0    0 -0.25953660241E+00  0.92744362315E+00 -0.19333889367E+00  0.98228871063E+00  0.51100000000E-03 0.  1.
        -12    1    3    3    0    0 -0.23322468874E+02  0.17046094929E+02 -0.86777926377E+01  0.30163073315E+02  0.00000000000E+00 0.  1.
</event>
<event>
 7    1  0.4236733E-010  0.4778727E+02  0.7816164E-02  0.1312668E+00
        -11   -1    0    0    0    0  0.00000000000E+00  0.00000000000E+00  0.45593999997E+02  0.45594000000E+02  0.51100000000E-03 0.  1.
         11   -1    0    0    0    0 -0.00000000000E+00 -0.00000000000E+00 -0.45593999997E+02  0.45594000000E+02  0.51100000000E-03 0. -1.
    9900012    2    1    2    0    0 -0.82805401237E+01  0.22365346050E+02 -0.36260824094E+02  0.47787269446E+02  0.19999992713E+02 0.  0.
        -12    1    1    2    0    0  0.82805401237E+01 -0.22365346050E+02  0.36260824094E+02  0.43400730554E+02  0.00000000000E+00 0.  1.
         11    1    3    3    0    0 -0.23343753800E+01  0.86276435437E+01 -0.66335849950E+01  0.11130588110E+02  0.51100000000E-03 0.  1.
        -11    1    3    3    0    0 -0.35739843529E+01  0.79206893436E+01 -0.28390059175E+01  0.91416978014E+01  0.51100000000E-03 0. -1.
         12    1    3    3    0    0 -0.23721803907E+01  0.58170131626E+01 -0.26788233181E+02  0.27514983534E+02  0.00000000000E+00 0. -1.
</event>
<event>
 7    1  0.4236733E-010  0.4778727E+02  0.7816164E-02  0.1312668E+00
        -11   -1    0    0    0    0  0.00000000000E+00  0.00000000000E+00  0.45593999997E+02  0.45594000000E+02  0.51100000000E-03 0.  1.
         11   -1    0    0    0    0 -0.00000000000E+00 -0.00000000000E+00 -0.45593999997E+02  0.45594000000E+02  0.51100000000E-03 0. -1.
    9900012    2    1    2    0    0 -0.27108100754E+02  0.28866695864E+02 -0.17761983416E+02  0.47787270612E+02  0.19999998026E+02 0.  0.
        -12    1    1    2    0    0  0.27108100754E+02 -0.28866695864E+02  0.17761983416E+02  0.43400729388E+02  0.00000000000E+00 0.  1.
         11    1    3    3    0    0 -0.41520145490E+01  0.12462295885E+02 -0.48991658229E+01  0.14019624445E+02  0.51100000000E-03 0. -1.
        -11    1    3    3    0    0 -0.24985700376E+01  0.54413964588E+01  0.18745971587E+01  0.62742140881E+01  0.51100000000E-03 0.  1.
         12    1    3    3    0    0 -0.20457516167E+02  0.10963003520E+02 -0.14737414752E+02  0.27493432079E+02  0.00000000000E+00 0. -1.
</event>
<event>
 7    1  0.4236733E-010  0.4778727E+02  0.7816164E-02  0.1312668E+00
        -11   -1    0    0    0    0  0.00000000000E+00  0.00000000000E+00  0.45593999997E+02  0.45594000000E+02  0.51100000000E-03 0.  1.
         11   -1    0    0    0    0 -0.00000000000E+00 -0.00000000000E+00 -0.45593999997E+02  0.45594000000E+02  0.51100000000E-03 0. -1.
    9900012    2    1    2    0    0 -0.21072820545E+02 -0.30832428915E+01 -0.37816042647E+02  0.47787271504E+02  0.20000002096E+02 0.  0.
        -12    1    1    2    0    0  0.21072820545E+02  0.30832428915E+01  0.37816042647E+02  0.43400728496E+02  0.00000000000E+00 0.  1.
         11    1    3    3    0    0 -0.44417806574E+01  0.25406651423E+01 -0.20491202947E+01  0.55121038649E+01  0.51100000000E-03 0. -1.
        -11    1    3    3    0    0 -0.16522381603E+02  0.22758207067E+00 -0.24072642676E+02  0.29198167975E+02  0.51100000000E-03 0.  1.
         12    1    3    3    0    0 -0.10865828500E+00 -0.58514901045E+01 -0.11694279677E+02  0.13076999665E+02  0.00000000000E+00 0. -1.
</event>
<event>
 7    1  0.4236733E-010  0.4778729E+02  0.7816164E-02  0.1312668E+00
        -11   -1    0    0    0    0  0.00000000000E+00  0.00000000000E+00  0.45593999997E+02  0.45594000000E+02  0.51100000000E-03 0. -1.
         11   -1    0    0    0    0 -0.00000000000E+00 -0.00000000000E+00 -0.45593999997E+02  0.45594000000E+02  0.51100000000E-03 0.  1.
    9900012    2    1    2    0    0 -0.99823790928E+01 -0.38363189137E+02 -0.17670290434E+02  0.47787293357E+02  0.20000101730E+02 0.  0.
        -12    1    1    2    0    0  0.99823790928E+01  0.38363189137E+02  0.17670290434E+02  0.43400706643E+02  0.00000000000E+00 0.  1.
         11    1    3    3    0    0  0.56100716132E+00 -0.10980165179E+02 -0.80260852872E+01  0.13612376784E+02  0.51100000000E-03 0. -1.
        -11    1    3    3    0    0  0.21184068194E+00 -0.36924735730E+01 -0.71349202035E+01  0.80365617109E+01  0.51100000000E-03 0.  1.
         12    1    3    3    0    0 -0.10755226936E+02 -0.23690550384E+02 -0.25092849436E+01  0.26138354862E+02  0.00000000000E+00 0. -1.
</event>
<event>
 7    1  0.4236733E-010  0.4778729E+02  0.7816164E-02  0.1312668E+00
        -11   -1    0    0    0    0  0.00000000000E+00  0.00000000000E+00  0.45593999997E+02  0.45594000000E+02  0.51100000000E-03 0.  1.
         11   -1    0    0    0    0 -0.00000000000E+00 -0.00000000000E+00 -0.45593999997E+02  0.45594000000E+02  0.51100000000E-03 0. -1.
    9900012    2    1    2    0    0  0.30643340486E+02  0.11723115287E+02 -0.28410843159E+02  0.47787288518E+02  0.20000079667E+02 0.  0.
        -12    1    1    2    0    0 -0.30643340486E+02 -0.11723115287E+02  0.28410843159E+02  0.43400711482E+02  0.00000000000E+00 0.  1.
         11    1    3    3    0    0  0.11289268425E+02  0.14725754488E+00 -0.98691177465E+01  0.14995624419E+02  0.51100000000E-03 0. -1.
        -11    1    3    3    0    0  0.57352090906E+01 -0.82539266107E+00 -0.11856935239E+02  0.13197000033E+02  0.51100000000E-03 0.  1.
        -12    1    3    3    0    0  0.13618862971E+02  0.12401250403E+02 -0.66847901734E+01  0.19594664066E+02  0.00000000000E+00 0.  1.
</event>
<event>
 7    1  0.4236733E-010  0.4778726E+02  0.7816164E-02  0.1312668E+00
        -11   -1    0    0    0    0  0.00000000000E+00  0.00000000000E+00  0.45593999997E+02  0.45594000000E+02  0.51100000000E-03 0.  1.
         11   -1    0    0    0    0 -0.00000000000E+00 -0.00000000000E+00 -0.45593999997E+02  0.45594000000E+02  0.51100000000E-03 0. -1.
    9900012    2    1    2    0    0  0.20082735459E+02 -0.32144963697E+02 -0.21142595653E+02  0.47787259159E+02  0.19999945809E+02 0.  0.
        -12    1    1    2    0    0 -0.20082735459E+02  0.32144963697E+02  0.21142595653E+02  0.43400740841E+02  0.00000000000E+00 0.  1.
         11    1    3    3    0    0  0.50545886802E+01 -0.73386159626E+01  0.27172768192E+01  0.93159940181E+01  0.51100000000E-03 0. -1.
        -11    1    3    3    0    0  0.12946224174E+02 -0.22807100915E+02 -0.17616254041E+02  0.31592736178E+02  0.51100000000E-03 0.  1.
        -12    1    3    3    0    0  0.20819226048E+01 -0.19992468198E+01 -0.62436184312E+01  0.68785289629E+01  0.00000000000E+00 0.  1.
</event>
<event>
 7    1  0.4236733E-010  0.4778727E+02  0.7816164E-02  0.1312668E+00
        -11   -1    0    0    0    0  0.00000000000E+00  0.00000000000E+00  0.45593999997E+02  0.45594000000E+02  0.51100000000E-03 0.  1.
         11   -1    0    0    0    0 -0.00000000000E+00 -0.00000000000E+00 -0.45593999997E+02  0.45594000000E+02  0.51100000000E-03 0. -1.
    9900012    2    1    2    0    0 -0.29522730515E+02  0.20939454887E+02 -0.23949341156E+02  0.47787270400E+02  0.19999997061E+02 0.  0.
        -12    1    1    2    0    0  0.29522730515E+02 -0.20939454887E+02  0.23949341156E+02  0.43400729600E+02  0.00000000000E+00 0.  1.
         11    1    3    3    0    0 -0.80489462006E+01  0.72595373381E+01 -0.13316945837E+02  0.17170540585E+02  0.51100000000E-03 0. -1.
        -11    1    3    3    0    0 -0.20839849106E+02  0.12572507775E+02 -0.13245007001E+02  0.27709158653E+02  0.51100000000E-03 0.  1.
        -12    1    3    3    0    0 -0.63393520826E+00  0.11074097738E+01  0.26126116826E+01  0.29075711615E+01  0.00000000000E+00 0.  1.
</event>
<event>
 7    1  0.4236733E-010  0.4778727E+02  0.7816164E-02  0.1312668E+00
        -11   -1    0    0    0    0  0.00000000000E+00  0.00000000000E+00  0.45593999997E+02  0.45594000000E+02  0.51100000000E-03 0.  1.
         11   -1    0    0    0    0 -0.00000000000E+00 -0.00000000000E+00 -0.45593999997E+02  0.45594000000E+02  0.51100000000E-03 0. -1.
    9900012    2    1    2    0    0 -0.10651478020E+02 -0.13358231304E+01 -0.42052167011E+02  0.47787272382E+02  0.20000006100E+02 0.  0.
        -12    1    1    2    0    0  0.10651478020E+02  0.13358231304E+01  0.42052167011E+02  0.43400727618E+02  0.00000000000E+00 0.  1.
         11    1    3    3    0    0 -0.82194878357E+01 -0.29856081768E+01 -0.28227923533E+02  0.29551472107E+02  0.51100000000E-03 0. -1.
        -11    1    3    3    0    0 -0.66907480786E+01 -0.10193290656E+00 -0.10870479337E+02  0.12764945023E+02  0.51100000000E-03 0.  1.
        -12    1    3    3    0    0  0.42587578942E+01  0.17517179529E+01 -0.29537641410E+01  0.54708552521E+01  0.00000000000E+00 0.  1.
</event>
<event>
 7    1  0.4236733E-010  0.4778727E+02  0.7816164E-02  0.1312668E+00
        -11   -1    0    0    0    0  0.00000000000E+00  0.00000000000E+00  0.45593999997E+02  0.45594000000E+02  0.51100000000E-03 0. -1.
         11   -1    0    0    0    0 -0.00000000000E+00 -0.00000000000E+00 -0.45593999997E+02  0.45594000000E+02  0.51100000000E-03 0.  1.
    9900012    2    1    2    0    0  0.55912310480E+01 -0.20935369398E+02  0.37604143773E+02  0.47787272064E+02  0.20000004650E+02 0.  0.
        -12    1    1    2    0    0 -0.55912310480E+01  0.20935369398E+02 -0.37604143773E+02  0.43400727936E+02  0.00000000000E+00 0.  1.
         11    1    3    3    0    0 -0.41565868470E+01 -0.56522295865E+01  0.14624340684E+02  0.16220242114E+02  0.51100000000E-03 0. -1.
        -11    1    3    3    0    0  0.47611352655E+01 -0.57836283552E+01  0.18465411974E+02  0.19927122361E+02  0.51100000000E-03 0.  1.
         12    1    3    3    0    0  0.49866826295E+01 -0.94995114559E+01  0.45143911147E+01  0.11639907589E+02  0.00000000000E+00 0. -1.
</event>
<event>
 7    1  0.4236733E-010  0.4778727E+02  0.7816164E-02  0.1312668E+00
        -11   -1    0    0    0    0  0.00000000000E+00  0.00000000000E+00  0.45593999997E+02  0.45594000000E+02  0.51100000000E-03 0.  1.
         11   -1    0    0    0    0 -0.00000000000E+00 -0.00000000000E+00 -0.45593999997E+02  0.45594000000E+02  0.51100000000E-03 0. -1.
    9900012    2    1    2    0    0  0.66171749644E+01  0.13362296562E+02 -0.40758867901E+02  0.47787270899E+02  0.19999999339E+02 0.  0.
        -12    1    1    2    0    0 -0.66171749644E+01 -0.13362296562E+02  0.40758867901E+02  0.43400729101E+02  0.00000000000E+00 0.  1.
         11    1    3    3    0    0  0.73298325591E+00  0.67128774127E+01 -0.60171927488E+01  0.90446999093E+01  0.51100000000E-03 0. -1.
        -11    1    3    3    0    0  0.57235302865E+01  0.72543994376E+01 -0.86941554714E+01  0.12687531271E+02  0.51100000000E-03 0.  1.
        -12    1    3    3    0    0  0.16066142203E+00 -0.60498028817E+00 -0.26047519680E+02  0.26055039719E+02  0.00000000000E+00 0.  1.
</event>
<event>
 7    1  0.4236733E-010  0.4778727E+02  0.7816164E-02  0.1312668E+00
        -11   -1    0    0    0    0  0.00000000000E+00  0.00000000000E+00  0.45593999997E+02  0.45594000000E+02  0.51100000000E-03 0. -1.
         11   -1    0    0    0    0 -0.00000000000E+00 -0.00000000000E+00 -0.45593999997E+02  0.45594000000E+02  0.51100000000E-03 0.  1.
    9900012    2    1    2    0    0  0.19881304368E+02  0.38480271449E+02  0.27614776636E+01  0.47787270593E+02  0.19999997942E+02 0.  0.
        -12    1    1    2    0    0 -0.19881304368E+02 -0.38480271449E+02 -0.27614776636E+01  0.43400729407E+02  0.00000000000E+00 0.  1.
         11    1    3    3    0    0  0.14478586689E+02  0.19488362624E+02 -0.12388563959E+01  0.24309679465E+02  0.51100000000E-03 0.  1.
        -11    1    3    3    0    0  0.84067276749E+01  0.15682099383E+02  0.49997305645E+00  0.17800316980E+02  0.51100000000E-03 0. -1.
         12    1    3    3    0    0 -0.30040099962E+01  0.33098094418E+01  0.35003610030E+01  0.56772741479E+01  0.00000000000E+00 0. -1.
</event>
<event>
 7    1  0.4236733E-010  0.4778727E+02  0.7816164E-02  0.1312668E+00
        -11   -1    0    0    0    0  0.00000000000E+00  0.00000000000E+00  0.45593999997E+02  0.45594000000E+02  0.51100000000E-03 0. -1.
         11   -1    0    0    0    0 -0.00000000000E+00 -0.00000000000E+00 -0.45593999997E+02  0.45594000000E+02  0.51100000000E-03 0.  1.
    9900012    2    1    2    0    0 -0.40768888798E+02  0.29555279473E+01 -0.14587172288E+02  0.47787273801E+02  0.20000012567E+02 0.  0.
        -12    1    1    2    0    0  0.40768888798E+02 -0.29555279473E+01  0.14587172288E+02  0.43400726199E+02  0.00000000000E+00 0.  1.
         11    1    3    3    0    0 -0.23549996318E+02 -0.77858370438E+01 -0.80991464583E+01  0.26092484716E+02  0.51100000000E-03 0. -1.
        -11    1    3    3    0    0 -0.11418648045E+01  0.11996985765E+01 -0.17478268081E+01  0.24079100312E+01  0.51100000000E-03 0.  1.
         12    1    3    3    0    0 -0.16077027676E+02  0.95416664147E+01 -0.47401990219E+01  0.19286879053E+02  0.00000000000E+00 0. -1.
</event>
<event>
 7    1  0.4236733E-010  0.4778727E+02  0.7816164E-02  0.1312668E+00
        -11   -1    0    0    0    0  0.00000000000E+00  0.00000000000E+00  0.45593999997E+02  0.45594000000E+02  0.51100000000E-03 0.  1.
         11   -1    0    0    0    0 -0.00000000000E+00 -0.00000000000E+00 -0.45593999997E+02  0.45594000000E+02  0.51100000000E-03 0. -1.
    9900012    2    1    2    0    0 -0.33805782381E+02  0.20953709919E+02 -0.17370500901E+02  0.47787272088E+02  0.20000004758E+02 0.  0.
        -12    1    1    2    0    0  0.33805782381E+02 -0.20953709919E+02  0.17370500901E+02  0.43400727912E+02  0.00000000000E+00 0.  1.
         11    1    3    3    0    0 -0.59296675677E+01  0.59699075736E+01 -0.58299264069E+01  0.10236639882E+02  0.51100000000E-03 0. -1.
        -11    1    3    3    0    0 -0.63076007045E+01  0.70600074560E+01 -0.11072205019E+02  0.14567884410E+02  0.51100000000E-03 0.  1.
         12    1    3    3    0    0 -0.21568514109E+02  0.79237948891E+01 -0.46836947448E+00  0.22982747797E+02  0.00000000000E+00 0. -1.
</event>
<event>
 7    1  0.4236733E-010  0.4778727E+02  0.7816164E-02  0.1312668E+00
        -11   -1    0    0    0    0  0.00000000000E+00  0.00000000000E+00  0.45593999997E+02  0.45594000000E+02  0.51100000000E-03 0.  1.
         11   -1    0    0    0    0 -0.00000000000E+00 -0.00000000000E+00 -0.45593999997E+02  0.45594000000E+02  0.51100000000E-03 0. -1.
    9900012    2    1    2    0    0  0.41102934460E+02 -0.76249500112E+01 -0.11663281540E+02  0.47787271663E+02  0.20000002819E+02 0.  0.
        -12    1    1    2    0    0 -0.41102934460E+02  0.76249500112E+01  0.11663281540E+02  0.43400728337E+02  0.00000000000E+00 0.  1.
         11    1    3    3    0    0  0.18257302790E+02 -0.20477795124E+01 -0.64462767201E+01  0.19469899587E+02  0.51100000000E-03 0. -1.
        -11    1    3    3    0    0  0.90700434882E+01 -0.29534530974E+01 -0.96908073752E+01  0.13597805776E+02  0.51100000000E-03 0.  1.
        -12    1    3    3    0    0  0.13775588182E+02 -0.26237174014E+01  0.44738025549E+01  0.14719566300E+02  0.00000000000E+00 0.  1.
</event>
<event>
 7    1  0.4236733E-010  0.4778727E+02  0.7816164E-02  0.1312668E+00
        -11   -1    0    0    0    0  0.00000000000E+00  0.00000000000E+00  0.45593999997E+02  0.45594000000E+02  0.51100000000E-03 0. -1.
         11   -1    0    0    0    0 -0.00000000000E+00 -0.00000000000E+00 -0.45593999997E+02  0.45594000000E+02  0.51100000000E-03 0.  1.
    9900012    2    1    2    0    0  0.15617797030E+02  0.29393555625E+01  0.40386485078E+02  0.47787267608E+02  0.19999984333E+02 0.  0.
        -12    1    1    2    0    0 -0.15617797030E+02 -0.29393555625E+01 -0.40386485078E+02  0.43400732392E+02  0.00000000000E+00 0.  1.
         11    1    3    3    0    0  0.99729035632E+01 -0.28173873218E+00  0.36652700378E+02  0.37986295259E+02  0.51100000000E-03 0. -1.
        -11    1    3    3    0    0  0.37338919903E+01 -0.13360785273E+01  0.25651500674E+01  0.47230340202E+01  0.51100000000E-03 0.  1.
         12    1    3    3    0    0  0.19110014762E+01  0.45571728221E+01  0.11686346323E+01  0.50779383293E+01  0.00000000000E+00 0. -1.
</event>
<event>
 7    1  0.4236733E-010  0.4778727E+02  0.7816164E-02  0.1312668E+00
        -11   -1    0    0    0    0  0.00000000000E+00  0.00000000000E+00  0.45593999997E+02  0.45594000000E+02  0.51100000000E-03 0.  1.
         11   -1    0    0    0    0 -0.00000000000E+00 -0.00000000000E+00 -0.45593999997E+02  0.45594000000E+02  0.51100000000E-03 0. -1.
    9900012    2    1    2    0    0 -0.32631330369E+02  0.25609026601E+02 -0.12767030727E+02  0.47787273754E+02  0.20000012356E+02 0.  0.
        -12    1    1    2    0    0  0.32631330369E+02 -0.25609026601E+02  0.12767030727E+02  0.43400726246E+02  0.00000000000E+00 0.  1.
         11    1    3    3    0    0  0.12604334534E+01  0.18982108481E+01  0.15246004954E+01  0.27415878330E+01  0.51100000000E-03 0.  1.
        -11    1    3    3    0    0 -0.22875558059E+01 -0.17701330130E+00 -0.31414629022E+01  0.38901201397E+01  0.51100000000E-03 0. -1.
         12    1    3    3    0    0 -0.31604208016E+02  0.23887829054E+02 -0.11150168321E+02  0.41155565782E+02  0.00000000000E+00 0. -1.
</event>
<event>
 7    1  0.4236733E-010  0.4778727E+02  0.7816164E-02  0.1312668E+00
        -11   -1    0    0    0    0  0.00000000000E+00  0.00000000000E+00  0.45593999997E+02  0.45594000000E+02  0.51100000000E-03 0.  1.
         11   -1    0    0    0    0 -0.00000000000E+00 -0.00000000000E+00 -0.45593999997E+02  0.45594000000E+02  0.51100000000E-03 0. -1.
    9900012    2    1    2    0    0  0.62219414019E+01 -0.13822190799E+02 -0.40667651160E+02  0.47787270004E+02  0.19999995257E+02 0.  0.
        -12    1    1    2    0    0 -0.62219414019E+01  0.13822190799E+02  0.40667651160E+02  0.43400729996E+02  0.00000000000E+00 0.  1.
         11    1    3    3    0    0  0.67854170122E+00 -0.12030551476E+02 -0.19409367860E+02  0.22845527979E+02  0.51100000000E-03 0. -1.
        -11    1    3    3    0    0  0.83308391469E+01 -0.42054626334E+01 -0.14514280362E+02  0.17255524667E+02  0.51100000000E-03 0.  1.
        -12    1    3    3    0    0 -0.27874394461E+01  0.24138233107E+01 -0.67440029387E+01  0.76862173583E+01  0.00000000000E+00 0.  1.
</event>
<event>
 7    1  0.4797533E-010  0.4778724E+02  0.7816164E-02  0.1312668E+00
        -11   -1    0    0    0    0  0.00000000000E+00  0.00000000000E+00  0.45593999997E+02  0.45594000000E+02  0.51100000000E-03 0.  1.
         11   -1    0    0    0    0 -0.00000000000E+00 -0.00000000000E+00 -0.45593999997E+02  0.45594000000E+02  0.51100000000E-03 0. -1.
    9900012    2    1    2    0    0 -0.54201601378E-01 -0.32561678047E+02 -0.28694256504E+02  0.47787237663E+02  0.19999847802E+02 0.  0.
        -12    1    1    2    0    0  0.54201601378E-01  0.32561678047E+02  0.28694256504E+02  0.43400762337E+02  0.00000000000E+00 0.  1.
         11    1    3    3    0    0  0.52317144602E+01 -0.16881737008E+02 -0.16975965145E+02  0.24506066055E+02  0.51100000000E-03 0. -1.
        -11    1    3    3    0    0  0.28849931229E+01 -0.45776867368E+01 -0.36576954986E+00  0.54233005453E+01  0.51100000000E-03 0.  1.
        -12    1    3    3    0    0 -0.81709091845E+01 -0.11102254302E+02 -0.11352521810E+02  0.17857871064E+02  0.00000000000E+00 0.  1.
</event>
<event>
 7    1  0.4236733E-010  0.4778727E+02  0.7816164E-02  0.1312668E+00
        -11   -1    0    0    0    0  0.00000000000E+00  0.00000000000E+00  0.45593999997E+02  0.45594000000E+02  0.51100000000E-03 0.  1.
         11   -1    0    0    0    0 -0.00000000000E+00 -0.00000000000E+00 -0.45593999997E+02  0.45594000000E+02  0.51100000000E-03 0. -1.
    9900012    2    1    2    0    0 -0.18334685721E+02 -0.31384823939E+02 -0.23716137552E+02  0.47787273571E+02  0.20000011519E+02 0.  0.
        -12    1    1    2    0    0  0.18334685721E+02  0.31384823939E+02  0.23716137552E+02  0.43400726429E+02  0.00000000000E+00 0.  1.
         11    1    3    3    0    0 -0.34292446695E+01 -0.48895300820E+00 -0.53332264764E+01  0.63594102680E+01  0.51100000000E-03 0. -1.
        -11    1    3    3    0    0 -0.59081532762E+00 -0.14526181697E+02 -0.11750747647E+02  0.18693289918E+02  0.51100000000E-03 0.  1.
        -12    1    3    3    0    0 -0.14314625724E+02 -0.16369689234E+02 -0.66321634287E+01  0.22734573385E+02  0.00000000000E+00 0.  1.
</event>
<event>
 7    1  0.4236733E-010  0.4778727E+02  0.7816164E-02  0.1312668E+00
        -11   -1    0    0    0    0  0.00000000000E+00  0.00000000000E+00  0.45593999997E+02  0.45594000000E+02  0.51100000000E-03 0.  1.
         11   -1    0    0    0    0 -0.00000000000E+00 -0.00000000000E+00 -0.45593999997E+02  0.45594000000E+02  0.51100000000E-03 0. -1.
    9900012    2    1    2    0    0  0.29578885514E+02  0.22415032119E+02 -0.22500650158E+02  0.47787269699E+02  0.19999993864E+02 0.  0.
        -12    1    1    2    0    0 -0.29578885514E+02 -0.22415032119E+02  0.22500650158E+02  0.43400730301E+02  0.00000000000E+00 0.  1.
         11    1    3    3    0    0  0.16822260894E+02  0.80812341910E+01 -0.99601176104E+01  0.21154166273E+02  0.51100000000E-03 0. -1.
        -11    1    3    3    0    0  0.12928369447E+02  0.16700745645E+02 -0.11393210614E+02  0.23997143372E+02  0.51100000000E-03 0.  1.
         12    1    3    3    0    0 -0.17174482686E+00 -0.23669477174E+01 -0.11473219340E+01  0.26359600533E+01  0.00000000000E+00 0. -1.
</event>
<event>
 7    1  0.4363619E-010  0.4778727E+02  0.7816164E-02  0.1312668E+00
        -11   -1    0    0    0    0  0.00000000000E+00  0.00000000000E+00  0.45593999997E+02  0.45594000000E+02  0.51100000000E-03 0. -1.
         11   -1    0    0    0    0 -0.00000000000E+00 -0.00000000000E+00 -0.45593999997E+02  0.45594000000E+02  0.51100000000E-03 0.  1.
    9900012    2    1    2    0    0  0.39437536220E+02 -0.18079319322E+02  0.12008688880E+01  0.47787272629E+02  0.20000007223E+02 0.  0.
        -12    1    1    2    0    0 -0.39437536220E+02  0.18079319322E+02 -0.12008688880E+01  0.43400727371E+02  0.00000000000E+00 0.  1.
         11    1    3    3    0    0  0.27415984205E+02 -0.11639497285E+02  0.24458053404E+01  0.29884712664E+02  0.51100000000E-03 0. -1.
        -11    1    3    3    0    0  0.10830297290E+02 -0.39199677279E+01  0.38086859392E+01  0.12131264370E+02  0.51100000000E-03 0.  1.
        -12    1    3    3    0    0  0.11912547252E+01 -0.25198543094E+01 -0.50536223916E+01  0.57712955944E+01  0.00000000000E+00 0.  1.
</event>
<event>
 7    1  0.4236733E-010  0.4778727E+02  0.7816164E-02  0.1312668E+00
        -11   -1    0    0    0    0  0.00000000000E+00  0.00000000000E+00  0.45593999997E+02  0.45594000000E+02  0.51100000000E-03 0.  1.
         11   -1    0    0    0    0 -0.00000000000E+00 -0.00000000000E+00 -0.45593999997E+02  0.45594000000E+02  0.51100000000E-03 0. -1.
    9900012    2    1    2    0    0  0.23945340139E+02 -0.66377352934E+01 -0.35583483740E+02  0.47787272364E+02  0.20000006018E+02 0.  0.
        -12    1    1    2    0    0 -0.23945340139E+02  0.66377352934E+01  0.35583483740E+02  0.43400727636E+02  0.00000000000E+00 0.  1.
         11    1    3    3    0    0  0.21546905418E+00  0.16194226830E+01 -0.13056913045E+02  0.13158720883E+02  0.51100000000E-03 0. -1.
        -11    1    3    3    0    0  0.62062725432E-01  0.25984292729E+00  0.47418051600E+00  0.54425871755E+00  0.51100000000E-03 0.  1.
        -12    1    3    3    0    0  0.23667808360E+02 -0.85170009037E+01 -0.23000751211E+02  0.34084292764E+02  0.00000000000E+00 0.  1.
</event>
<event>
 7    1  0.4236733E-010  0.4778726E+02  0.7816164E-02  0.1312668E+00
        -11   -1    0    0    0    0  0.00000000000E+00  0.00000000000E+00  0.45593999997E+02  0.45594000000E+02  0.51100000000E-03 0. -1.
         11   -1    0    0    0    0 -0.00000000000E+00 -0.00000000000E+00 -0.45593999997E+02  0.45594000000E+02  0.51100000000E-03 0.  1.
    9900012    2    1    2    0    0 -0.23461888625E+02 -0.27188537189E+02  0.24371040573E+02  0.47787258175E+02  0.19999941325E+02 0.  0.
        -12    1    1    2    0    0  0.23461888625E+02  0.27188537189E+02 -0.24371040573E+02  0.43400741825E+02  0.00000000000E+00 0.  1.
         11    1    3    3    0    0 -0.10424663684E+02 -0.19958352742E+02  0.22200425651E+02  0.31620695066E+02  0.51100000000E-03 0.  1.
        -11    1    3    3    0    0 -0.48649838815E+01 -0.12262001473E+01  0.32357990050E+01  0.59700946752E+01  0.51100000000E-03 0. -1.
        -12    1    3    3    0    0 -0.81722410594E+01 -0.60039842995E+01 -0.10651840832E+01  0.10196468434E+02  0.00000000000E+00 0.  1.
</event>
<event>
 7    1  0.4236733E-010  0.4778727E+02  0.7816164E-02  0.1312668E+00
        -11   -1    0    0    0    0  0.00000000000E+00  0.00000000000E+00  0.45593999997E+02  0.45594000000E+02  0.51100000000E-03 0. -1.
         11   -1    0    0    0    0 -0.00000000000E+00 -0.00000000000E+00 -0.45593999997E+02  0.45594000000E+02  0.51100000000E-03 0.  1.
    9900012    2    1    2    0    0  0.30008012308E+01 -0.40148941446E+02  0.16207446023E+02  0.47787267127E+02  0.19999982141E+02 0.  0.
        -12    1    1    2    0    0 -0.30008012308E+01  0.40148941446E+02 -0.16207446023E+02  0.43400732873E+02  0.00000000000E+00 0.  1.
         11    1    3    3    0    0 -0.38694344708E+01 -0.67574484207E+01  0.21263847520E+01  0.80719975630E+01  0.51100000000E-03 0. -1.
        -11    1    3    3    0    0  0.58678581805E+01 -0.33317240084E+01  0.46500593879E+01  0.81948274580E+01  0.51100000000E-03 0.  1.
         12    1    3    3    0    0  0.10023775211E+01 -0.30059769017E+02  0.94310018828E+01  0.31520442106E+02  0.00000000000E+00 0. -1.
</event>
<event>
 7    1  0.4236733E-010  0.4778727E+02  0.7816164E-02  0.1312668E+00
        -11   -1    0    0    0    0  0.00000000000E+00  0.00000000000E+00  0.45593999997E+02  0.45594000000E+02  0.51100000000E-03 0.  1.
         11   -1    0    0    0    0 -0.00000000000E+00 -0.00000000000E+00 -0.45593999997E+02  0.45594000000E+02  0.51100000000E-03 0. -1.
    9900012    2    1    2    0    0  0.24800649670E+02 -0.23923856079E+02  0.26385611672E+02  0.47787267091E+02  0.19999981973E+02 0.  0.
        -12    1    1    2    0    0 -0.24800649670E+02  0.23923856079E+02 -0.26385611672E+02  0.43400732909E+02  0.00000000000E+00 0.  1.
         11    1    3    3    0    0  0.75536894923E+01 -0.13554405319E+02  0.46921160219E+01  0.16210986445E+02  0.51100000000E-03 0. -1.
        -11    1    3    3    0    0  0.24945518451E+01 -0.26301176122E+01 -0.67348355951E+00  0.36869890057E+01  0.51100000000E-03 0.  1.
        -12    1    3    3    0    0  0.14752408333E+02 -0.77393331477E+01  0.22366979210E+02  0.27889291640E+02  0.00000000000E+00 0.  1.
</event>
<event>
 7    1  0.4236733E-010  0.4778728E+02  0.7816164E-02  0.1312668E+00
        -11   -1    0    0    0    0  0.00000000000E+00  0.00000000000E+00  0.45593999997E+02  0.45594000000E+02  0.51100000000E-03 0. -1.
         11   -1    0    0    0    0 -0.00000000000E+00 -0.00000000000E+00 -0.45593999997E+02  0.45594000000E+02  0.51100000000E-03 0.  1.
    9900012    2    1    2    0    0  0.21140009347E+02 -0.61255497311E+01  0.37405887998E+02  0.47787276370E+02  0.20000024282E+02 0.  0.
        -12    1    1    2    0    0 -0.21140009347E+02  0.61255497311E+01 -0.37405887998E+02  0.43400723630E+02  0.00000000000E+00 0.  1.
         11    1    3    3    0    0  0.12952442963E+02 -0.67654075397E+01  0.26566368697E+02  0.30320099998E+02  0.51100000000E-03 0. -1.
        -11    1    3    3    0    0  0.41078003232E+01 -0.50824301903E+01  0.40073414722E+01  0.76657619367E+01  0.51100000000E-03 0.  1.
         12    1    3    3    0    0  0.40797660608E+01  0.57222879989E+01  0.68321778283E+01  0.98014144352E+01  0.00000000000E+00 0. -1.
</event>
<event>
 7    1  0.4236733E-010  0.4778727E+02  0.7816164E-02  0.1312668E+00
        -11   -1    0    0    0    0  0.00000000000E+00  0.00000000000E+00  0.45593999997E+02  0.45594000000E+02  0.51100000000E-03 0. -1.
         11   -1    0    0    0    0 -0.00000000000E+00 -0.00000000000E+00 -0.45593999997E+02  0.45594000000E+02  0.51100000000E-03 0.  1.
    9900012    2    1    2    0    0  0.13441351295E+02 -0.40400974603E+02  0.84091770788E+01  0.47787274976E+02  0.20000017925E+02 0.  0.
        -12    1    1    2    0    0 -0.13441351295E+02  0.40400974603E+02 -0.84091770788E+01  0.43400725024E+02  0.00000000000E+00 0.  1.
         11    1    3    3    0    0  0.75915795400E+01 -0.69991533290E+01  0.37391767334E+01  0.10981879172E+02  0.51100000000E-03 0. -1.
        -11    1    3    3    0    0  0.65840268953E+01 -0.18248619260E+02  0.84658249199E+01  0.21166759480E+02  0.51100000000E-03 0.  1.
        -12    1    3    3    0    0 -0.73425514035E+00 -0.15153202014E+02 -0.37958245745E+01  0.15638636324E+02  0.00000000000E+00 0.  1.
</event>
<event>
 7    1  0.4236733E-010  0.4778728E+02  0.7816164E-02  0.1312668E+00
        -11   -1    0    0    0    0  0.00000000000E+00  0.00000000000E+00  0.45593999997E+02  0.45594000000E+02  0.51100000000E-03 0.  1.
         11   -1    0    0    0    0 -0.00000000000E+00 -0.00000000000E+00 -0.45593999997E+02  0.45594000000E+02  0.51100000000E-03 0. -1.
    9900012    2    1    2    0    0  0.20029219649E+01  0.90030826793E+01 -0.42409378266E+02  0.47787279280E+02  0.20000037550E+02 0.  0.
        -12    1    1    2    0    0 -0.20029219649E+01 -0.90030826793E+01  0.42409378266E+02  0.43400720720E+02  0.00000000000E+00 0.  1.
         11    1    3    3    0    0  0.72698509877E+00  0.23531761598E+01 -0.11638827220E+02  0.11896564407E+02  0.51100000000E-03 0. -1.
        -11    1    3    3    0    0  0.52200579121E-01 -0.16974930377E+01  0.16635565828E+01  0.23773153512E+01  0.51100000000E-03 0.  1.
        -12    1    3    3    0    0  0.12237362870E+01  0.83473995572E+01 -0.32434107628E+02  0.33513399522E+02  0.00000000000E+00 0.  1.
</event>
<event>
 7    1  0.4236733E-010  0.4778727E+02  0.7816164E-02  0.1312668E+00
        -11   -1    0    0    0    0  0.00000000000E+00  0.00000000000E+00  0.45593999997E+02  0.45594000000E+02  0.51100000000E-03 0.  1.
         11   -1    0    0    0    0 -0.00000000000E+00 -0.00000000000E+00 -0.45593999997E+02  0.45594000000E+02  0.51100000000E-03 0. -1.
    9900012    2    1    2    0    0 -0.37059993501E+02 -0.13345828718E+02 -0.18222766125E+02  0.47787268811E+02  0.19999989817E+02 0.  0.
        -12    1    1    2    0    0  0.37059993501E+02  0.13345828718E+02  0.18222766125E+02  0.43400731189E+02  0.00000000000E+00 0.  1.
         11    1    3    3    0    0 -0.59644654187E+01 -0.61919752007E+01 -0.47924209602E+01  0.98429011748E+01  0.51100000000E-03 0. -1.
        -11    1    3    3    0    0 -0.18887571466E+02 -0.45701537110E+01  0.24150873911E+00  0.19434119161E+02  0.51100000000E-03 0.  1.
        -12    1    3    3    0    0 -0.12207956617E+02 -0.25836998060E+01 -0.13671853904E+02  0.18510248475E+02  0.00000000000E+00 0.  1.
</event>
<event>
 7    1  0.4236733E-010  0.4778727E+02  0.7816164E-02  0.1312668E+00
        -11   -1    0    0    0    0  0.00000000000E+00  0.00000000000E+00  0.45593999997E+02  0.45594000000E+02  0.51100000000E-03 0.  1.
         11   -1    0    0    0    0 -0.00000000000E+00 -0.00000000000E+00 -0.45593999997E+02  0.45594000000E+02  0.51100000000E-03 0. -1.
    9900012    2    1    2    0    0 -0.23306810869E+02 -0.31980558596E+02 -0.17823006582E+02  0.47787272764E+02  0.20000007839E+02 0.  0.
        -12    1    1    2    0    0  0.23306810869E+02  0.31980558596E+02  0.17823006582E+02  0.43400727236E+02  0.00000000000E+00 0.  1.
         11    1    3    3    0    0 -0.13504343957E+02 -0.14719022666E+02 -0.13039040411E+02  0.23854423260E+02  0.51100000000E-03 0. -1.
        -11    1    3    3    0    0 -0.12153500504E+02 -0.13456194589E+02 -0.63220971226E+01  0.19202751355E+02  0.51100000000E-03 0.  1.
        -12    1    3    3    0    0  0.23510335919E+01 -0.38053413415E+01  0.15381309516E+01  0.47300981490E+01  0.00000000000E+00 0.  1.
</event>
<event>
 7    1  0.4236733E-010  0.4778727E+02  0.7816164E-02  0.1312668E+00
        -11   -1    0    0    0    0  0.00000000000E+00  0.00000000000E+00  0.45593999997E+02  0.45594000000E+02  0.51100000000E-03 0.  1.
         11   -1    0    0    0    0 -0.00000000000E+00 -0.00000000000E+00 -0.45593999997E+02  0.45594000000E+02  0.51100000000E-03 0. -1.
    9900012    2    1    2    0    0  0.42095599563E+02  0.63850955092E+00 -0.10543995044E+02  0.47787273871E+02  0.20000012888E+02 0.  0.
        -12    1    1    2    0    0 -0.42095599563E+02 -0.63850955092E+00  0.10543995044E+02  0.43400726129E+02  0.00000000000E+00 0.  1.
         11    1    3    3    0    0  0.56316002554E+01 -0.33859076037E+01 -0.10624388559E+01  0.66564305992E+01  0.51100000000E-03 0. -1.
        -11    1    3    3    0    0  0.13616927235E+02  0.36801464412E+01 -0.11490145427E+02  0.18193065364E+02  0.51100000000E-03 0.  1.
        -12    1    3    3    0    0  0.22847072072E+02  0.34427071340E+00  0.20085892387E+01  0.22937777908E+02  0.00000000000E+00 0.  1.
</event>
<event>
 7    1  0.4236733E-010  0.4778727E+02  0.7816164E-02  0.1312668E+00
        -11   -1    0    0    0    0  0.00000000000E+00  0.00000000000E+00  0.45593999997E+02  0.45594000000E+02  0.51100000000E-03 0.  1.
         11   -1    0    0    0    0 -0.00000000000E+00 -0.00000000000E+00 -0.45593999997E+02  0.45594000000E+02  0.51100000000E-03 0. -1.
    9900012    2    1    2    0    0 -0.42251736223E+02  0.98481053838E+01  0.11955135582E+01  0.47787266755E+02  0.19999980445E+02 0.  0.
        -12    1    1    2    0    0  0.42251736223E+02 -0.98481053838E+01 -0.11955135582E+01  0.43400733245E+02  0.00000000000E+00 0.  1.
         11    1    3    3    0    0 -0.34568582431E+01  0.68742862701E+00  0.35634389190E+01  0.50120379309E+01  0.51100000000E-03 0. -1.
        -11    1    3    3    0    0 -0.78403697912E+01 -0.23283793601E+01 -0.51096512880E+01  0.96437174085E+01  0.51100000000E-03 0.  1.
         12    1    3    3    0    0 -0.30954508189E+02  0.11489056117E+02  0.27417259272E+01  0.33131511416E+02  0.00000000000E+00 0. -1.
</event>
<event>
 7    1  0.4236733E-010  0.4778728E+02  0.7816164E-02  0.1312668E+00
        -11   -1    0    0    0    0  0.00000000000E+00  0.00000000000E+00  0.45593999997E+02  0.45594000000E+02  0.51100000000E-03 0.  1.
         11   -1    0    0    0    0 -0.00000000000E+00 -0.00000000000E+00 -0.45593999997E+02  0.45594000000E+02  0.51100000000E-03 0. -1.
    9900012    2    1    2    0    0  0.16766946613E+02 -0.39425358569E+02 -0.69377786530E+01  0.47787283765E+02  0.20000057999E+02 0.  0.
        -12    1    1    2    0    0 -0.16766946613E+02  0.39425358569E+02  0.69377786530E+01  0.43400716235E+02  0.00000000000E+00 0.  1.
         11    1    3    3    0    0  0.58101673077E+01 -0.77575319032E+01 -0.10154385428E+01  0.97451762974E+01  0.51100000000E-03 0. -1.
        -11    1    3    3    0    0  0.26125735855E+01  0.28559150671E+00 -0.42223219406E+01  0.49734400650E+01  0.51100000000E-03 0.  1.
         12    1    3    3    0    0  0.83442057197E+01 -0.31953418173E+02 -0.17000181695E+01  0.33068667403E+02  0.00000000000E+00 0. -1.
</event>
<event>
 7    1  0.4236733E-010  0.4778727E+02  0.7816164E-02  0.1312668E+00
        -11   -1    0    0    0    0  0.00000000000E+00  0.00000000000E+00  0.45593999997E+02  0.45594000000E+02  0.51100000000E-03 0.  1.
         11   -1    0    0    0    0 -0.00000000000E+00 -0.00000000000E+00 -0.45593999997E+02  0.45594000000E+02  0.51100000000E-03 0. -1.
    9900012    2    1    2    0    0  0.20470359201E+02 -0.75660719654E+01 -0.37514562322E+02  0.47787269165E+02  0.19999991430E+02 0.  0.
        -12    1    1    2    0    0 -0.20470359201E+02  0.75660719654E+01  0.37514562322E+02  0.43400730835E+02  0.00000000000E+00 0.  1.
         11    1    3    3    0    0  0.12763853884E+02 -0.59984397820E+01 -0.10019432240E+02  0.17299892152E+02  0.51100000000E-03 0. -1.
        -11    1    3    3    0    0 -0.58089265393E+00 -0.33857377768E+01 -0.29872150403E+01  0.45523741637E+01  0.51100000000E-03 0.  1.
         12    1    3    3    0    0  0.82873979710E+01  0.18181055935E+01 -0.24507915042E+02  0.25935002849E+02  0.00000000000E+00 0. -1.
</event>
<event>
 7    1  0.4236733E-010  0.4778727E+02  0.7816164E-02  0.1312668E+00
        -11   -1    0    0    0    0  0.00000000000E+00  0.00000000000E+00  0.45593999997E+02  0.45594000000E+02  0.51100000000E-03 0.  1.
         11   -1    0    0    0    0 -0.00000000000E+00 -0.00000000000E+00 -0.45593999997E+02  0.45594000000E+02  0.51100000000E-03 0. -1.
    9900012    2    1    2    0    0 -0.40550558544E+02 -0.99440143039E+01 -0.11848710868E+02  0.47787272265E+02  0.20000005566E+02 0.  0.
        -12    1    1    2    0    0  0.40550558544E+02  0.99440143039E+01  0.11848710868E+02  0.43400727735E+02  0.00000000000E+00 0.  1.
         11    1    3    3    0    0 -0.20520581746E+02  0.11382575190E+01 -0.30171659354E+01  0.20772414302E+02  0.51100000000E-03 0. -1.
        -11    1    3    3    0    0 -0.98750823339E+01 -0.55040731894E+00 -0.73245262104E+01  0.12307269550E+02  0.51100000000E-03 0.  1.
        -12    1    3    3    0    0 -0.10154894463E+02 -0.10531864504E+02 -0.15070187224E+01  0.14707588413E+02  0.00000000000E+00 0.  1.
</event>
<event>
 7    1  0.4236733E-010  0.4778727E+02  0.7816164E-02  0.1312668E+00
        -11   -1    0    0    0    0  0.00000000000E+00  0.00000000000E+00  0.45593999997E+02  0.45594000000E+02  0.51100000000E-03 0. -1.
         11   -1    0    0    0    0 -0.00000000000E+00 -0.00000000000E+00 -0.45593999997E+02  0.45594000000E+02  0.51100000000E-03 0.  1.
    9900012    2    1    2    0    0 -0.10490815989E+02  0.34924448780E+02  0.23533988476E+02  0.47787274703E+02  0.20000016682E+02 0.  0.
        -12    1    1    2    0    0  0.10490815989E+02 -0.34924448780E+02 -0.23533988476E+02  0.43400725297E+02  0.00000000000E+00 0.  1.
         11    1    3    3    0    0 -0.55609257272E+01  0.13851334090E+02  0.92805867019E+01  0.17575910810E+02  0.51100000000E-03 0. -1.
        -11    1    3    3    0    0  0.64900374297E+00  0.20935495463E+02  0.12348374413E+02  0.24314574375E+02  0.51100000000E-03 0.  1.
        -12    1    3    3    0    0 -0.55788940052E+01  0.13761922665E+00  0.19050273611E+01  0.58967895179E+01  0.00000000000E+00 0.  1.
</event>
<event>
 7    1  0.4236733E-010  0.4778727E+02  0.7816164E-02  0.1312668E+00
        -11   -1    0    0    0    0  0.00000000000E+00  0.00000000000E+00  0.45593999997E+02  0.45594000000E+02  0.51100000000E-03 0.  1.
         11   -1    0    0    0    0 -0.00000000000E+00 -0.00000000000E+00 -0.45593999997E+02  0.45594000000E+02  0.51100000000E-03 0. -1.
    9900012    2    1    2    0    0 -0.27830666427E+02 -0.31006244870E+02  0.12152776764E+02  0.47787271921E+02  0.20000003998E+02 0.  0.
        -12    1    1    2    0    0  0.27830666427E+02  0.31006244870E+02 -0.12152776764E+02  0.43400728079E+02  0.00000000000E+00 0.  1.
         11    1    3    3    0    0 -0.13756372619E+02 -0.56083638048E+01  0.13252752295E+01  0.14914686952E+02  0.51100000000E-03 0. -1.
        -11    1    3    3    0    0 -0.70658133745E+01 -0.32061136313E+01  0.30086399641E+01  0.83220669281E+01  0.51100000000E-03 0.  1.
         12    1    3    3    0    0 -0.70084804340E+01 -0.22191767434E+02  0.78188615701E+01  0.24550518041E+02  0.00000000000E+00 0. -1.
</event>
<event>
 7    1  0.4236733E-010  0.4778727E+02  0.7816164E-02  0.1312668E+00
        -11   -1    0    0    0    0  0.00000000000E+00  0.00000000000E+00  0.45593999997E+02  0.45594000000E+02  0.51100000000E-03 0. -1.
         11   -1    0    0    0    0 -0.00000000000E+00 -0.00000000000E+00 -0.45593999997E+02  0.45594000000E+02  0.51100000000E-03 0.  1.
    9900012    2    1    2    0    0  0.79192172861E+01 -0.39650265804E+02  0.15772307842E+02  0.47787271027E+02  0.19999999920E+02 0.  0.
        -12    1    1    2    0    0 -0.79192172861E+01  0.39650265804E+02 -0.15772307842E+02  0.43400728973E+02  0.00000000000E+00 0.  1.
         11    1    3    3    0    0  0.69714711476E+01 -0.22898280801E+02  0.19027789495E+01  0.24011523101E+02  0.51100000000E-03 0. -1.
        -11    1    3    3    0    0  0.18133732561E+01  0.53123456036E+00  0.64641278685E+00  0.19970935072E+01  0.51100000000E-03 0.  1.
        -12    1    3    3    0    0 -0.86562711761E+00 -0.17283219563E+02  0.13223116106E+02  0.21778654419E+02  0.00000000000E+00 0.  1.
</event>
<event>
 7    1  0.4236733E-010  0.4778728E+02  0.7816164E-02  0.1312668E+00
        -11   -1    0    0    0    0  0.00000000000E+00  0.00000000000E+00  0.45593999997E+02  0.45594000000E+02  0.51100000000E-03 0.  1.
         11   -1    0    0    0    0 -0.00000000000E+00 -0.00000000000E+00 -0.45593999997E+02  0.45594000000E+02  0.51100000000E-03 0. -1.
    9900012    2    1    2    0    0  0.28608011467E+02 -0.76314229141E+01 -0.31732724221E+02  0.47787277399E+02  0.20000028972E+02 0.  0.
        -12    1    1    2    0    0 -0.28608011467E+02  0.76314229141E+01  0.31732724221E+02  0.43400722601E+02  0.00000000000E+00 0.  1.
         11    1    3    3    0    0  0.96360332032E+01 -0.47842167183E+00 -0.66502564441E+01  0.11717846825E+02  0.51100000000E-03 0. -1.
        -11    1    3    3    0    0 -0.13680009658E+01 -0.28096916272E+01  0.42882285683E+00  0.31543118086E+01  0.51100000000E-03 0.  1.
         12    1    3    3    0    0  0.20339979230E+02 -0.43433096151E+01 -0.25511290634E+02  0.32915118765E+02  0.00000000000E+00 0. -1.
</event>
<event>
 7    1  0.4236733E-010  0.4778727E+02  0.7816164E-02  0.1312668E+00
        -11   -1    0    0    0    0  0.00000000000E+00  0.00000000000E+00  0.45593999997E+02  0.45594000000E+02  0.51100000000E-03 0.  1.
         11   -1    0    0    0    0 -0.00000000000E+00 -0.00000000000E+00 -0.45593999997E+02  0.45594000000E+02  0.51100000000E-03 0. -1.
    9900012    2    1    2    0    0  0.37063094710E+02  0.18204101424E+02 -0.13362679401E+02  0.47787268452E+02  0.19999988180E+02 0.  0.
        -12    1    1    2    0    0 -0.37063094710E+02 -0.18204101424E+02  0.13362679401E+02  0.43400731548E+02  0.00000000000E+00 0.  1.
         11    1    3    3    0    0  0.13832250052E+02  0.50144205214E+00 -0.53728542634E+01  0.14847563733E+02  0.51100000000E-03 0. -1.
        -11    1    3    3    0    0  0.54646283254E+01 -0.15789051855E+01 -0.73207647728E+00  0.57350711023E+01  0.51100000000E-03 0.  1.
         12    1    3    3    0    0  0.17766216333E+02  0.19281564558E+02 -0.72577486603E+01  0.27204633616E+02  0.00000000000E+00 0. -1.
</event>
<event>
 7    1  0.4236733E-010  0.4778727E+02  0.7816164E-02  0.1312668E+00
        -11   -1    0    0    0    0  0.00000000000E+00  0.00000000000E+00  0.45593999997E+02  0.45594000000E+02  0.51100000000E-03 0.  1.
         11   -1    0    0    0    0 -0.00000000000E+00 -0.00000000000E+00 -0.45593999997E+02  0.45594000000E+02  0.51100000000E-03 0. -1.
    9900012    2    1    2    0    0  0.37433794329E+01 -0.23197130641E+02 -0.36489771018E+02  0.47787272489E+02  0.20000006588E+02 0.  0.
        -12    1    1    2    0    0 -0.37433794329E+01  0.23197130641E+02  0.36489771018E+02  0.43400727511E+02  0.00000000000E+00 0.  1.
         11    1    3    3    0    0 -0.35066246465E+01 -0.11651209882E+02 -0.17869582639E+02  0.21618720871E+02  0.51100000000E-03 0. -1.
        -11    1    3    3    0    0  0.44046910585E+01 -0.12597225124E+02 -0.90376993565E+01  0.16117425169E+02  0.51100000000E-03 0.  1.
        -12    1    3    3    0    0  0.28453130209E+01  0.10513043653E+01 -0.95824890219E+01  0.10051126450E+02  0.00000000000E+00 0.  1.
</event>
<event>
 7    1  0.4236733E-010  0.4778727E+02  0.7816164E-02  0.1312668E+00
        -11   -1    0    0    0    0  0.00000000000E+00  0.00000000000E+00  0.45593999997E+02  0.45594000000E+02  0.51100000000E-03 0.  1.
         11   -1    0    0    0    0 -0.00000000000E+00 -0.00000000000E+00 -0.45593999997E+02  0.45594000000E+02  0.51100000000E-03 0. -1.
    9900012    2    1    2    0    0  0.39469086436E+02 -0.11536872469E+02 -0.13882187557E+02  0.47787270261E+02  0.19999996430E+02 0.  0.
        -12    1    1    2    0    0 -0.39469086436E+02  0.11536872469E+02  0.13882187557E+02  0.43400729739E+02  0.00000000000E+00 0.  1.
         11    1    3    3    0    0  0.23354189756E+02 -0.73129133972E+01 -0.94914695408E+00  0.24490768908E+02  0.51100000000E-03 0. -1.
        -11    1    3    3    0    0  0.11526889101E+02  0.13132331847E+01 -0.51292865862E+01  0.12684767829E+02  0.51100000000E-03 0.  1.
         12    1    3    3    0    0  0.45880075793E+01 -0.55371922560E+01 -0.78037540167E+01  0.10611733524E+02  0.00000000000E+00 0. -1.
</event>
<event>
 7    1  0.4236733E-010  0.4778728E+02  0.7816164E-02  0.1312668E+00
        -11   -1    0    0    0    0  0.00000000000E+00  0.00000000000E+00  0.45593999997E+02  0.45594000000E+02  0.51100000000E-03 0.  1.
         11   -1    0    0    0    0 -0.00000000000E+00 -0.00000000000E+00 -0.45593999997E+02  0.45594000000E+02  0.51100000000E-03 0. -1.
    9900012    2    1    2    0    0 -0.41751031452E+02  0.11542976151E+02 -0.26895957704E+01  0.47787275915E+02  0.20000022206E+02 0.  0.
        -12    1    1    2    0    0  0.41751031452E+02 -0.11542976151E+02  0.26895957704E+01  0.43400724085E+02  0.00000000000E+00 0.  1.
         11    1    3    3    0    0 -0.23935457986E+02  0.57752495697E+01  0.60482134549E+01  0.25354300283E+02  0.51100000000E-03 0.  1.
        -11    1    3    3    0    0 -0.14396546744E+02  0.26693324105E+01 -0.27901484389E+01  0.14905395742E+02  0.51100000000E-03 0. -1.
        -12    1    3    3    0    0 -0.34190267224E+01  0.30983941705E+01 -0.59476607864E+01  0.75275798896E+01  0.00000000000E+00 0.  1.
</event>
<event>
 7    1  0.4236733E-010  0.4778727E+02  0.7816164E-02  0.1312668E+00
        -11   -1    0    0    0    0  0.00000000000E+00  0.00000000000E+00  0.45593999997E+02  0.45594000000E+02  0.51100000000E-03 0.  1.
         11   -1    0    0    0    0 -0.00000000000E+00 -0.00000000000E+00 -0.45593999997E+02  0.45594000000E+02  0.51100000000E-03 0. -1.
    9900012    2    1    2    0    0 -0.10782335281E+02  0.14052768921E+02 -0.39621764333E+02  0.47787271005E+02  0.19999999821E+02 0.  0.
        -12    1    1    2    0    0  0.10782335281E+02 -0.14052768921E+02  0.39621764333E+02  0.43400728995E+02  0.00000000000E+00 0.  1.
         11    1    3    3    0    0 -0.10085837826E+02  0.10954819845E+02 -0.37449201007E+02  0.40301052825E+02  0.51100000000E-03 0. -1.
        -11    1    3    3    0    0  0.10033216532E+01 -0.12345250112E+01 -0.23396122074E+01  0.28292210740E+01  0.51100000000E-03 0.  1.
         12    1    3    3    0    0 -0.16998191085E+01  0.43324740873E+01  0.16704888197E+00  0.46569971062E+01  0.00000000000E+00 0. -1.
</event>
<event>
 7    1  0.4236733E-010  0.4778727E+02  0.7816164E-02  0.1312668E+00
        -11   -1    0    0    0    0  0.00000000000E+00  0.00000000000E+00  0.45593999997E+02  0.45594000000E+02  0.51100000000E-03 0.  1.
         11   -1    0    0    0    0 -0.00000000000E+00 -0.00000000000E+00 -0.45593999997E+02  0.45594000000E+02  0.51100000000E-03 0. -1.
    9900012    2    1    2    0    0 -0.58418948324E+01  0.31289031574E+02 -0.29504103143E+02  0.47787270348E+02  0.19999996824E+02 0.  0.
        -12    1    1    2    0    0  0.58418948324E+01 -0.31289031574E+02  0.29504103143E+02  0.43400729652E+02  0.00000000000E+00 0.  1.
         11    1    3    3    0    0 -0.71125516204E+01  0.21442877589E+02 -0.86618073307E+01  0.24195294922E+02  0.51100000000E-03 0. -1.
        -11    1    3    3    0    0  0.12557780508E+01  0.43210473612E+01 -0.45968935335E+01  0.64327178727E+01  0.51100000000E-03 0.  1.
        -12    1    3    3    0    0  0.14878737248E-01  0.55251066235E+01 -0.16245402279E+02  0.17159257554E+02  0.00000000000E+00 0.  1.
</event>
<event>
 7    1  0.4236733E-010  0.4778727E+02  0.7816164E-02  0.1312668E+00
        -11   -1    0    0    0    0  0.00000000000E+00  0.00000000000E+00  0.45593999997E+02  0.45594000000E+02  0.51100000000E-03 0.  1.
         11   -1    0    0    0    0 -0.00000000000E+00 -0.00000000000E+00 -0.45593999997E+02  0.45594000000E+02  0.51100000000E-03 0. -1.
    9900012    2    1    2    0    0 -0.22216654787E+02  0.83367509146E+01 -0.36339270797E+02  0.47787265354E+02  0.19999974057E+02 0.  0.
        -12    1    1    2    0    0  0.22216654787E+02 -0.83367509146E+01  0.36339270797E+02  0.43400734646E+02  0.00000000000E+00 0.  1.
         11    1    3    3    0    0 -0.16163377368E+02  0.28938950589E+01 -0.12948444092E+02  0.20911518386E+02  0.51100000000E-03 0. -1.
        -11    1    3    3    0    0 -0.89045937705E+01  0.28945098880E+01 -0.15533783245E+02  0.18137486040E+02  0.51100000000E-03 0.  1.
        -12    1    3    3    0    0  0.28513163516E+01  0.25483459676E+01 -0.78570434602E+01  0.87382609279E+01  0.00000000000E+00 0.  1.
</event>
<event>
 7    1  0.4236733E-010  0.4778724E+02  0.7816164E-02  0.1312668E+00
        -11   -1    0    0    0    0  0.00000000000E+00  0.00000000000E+00  0.45593999997E+02  0.45594000000E+02  0.51100000000E-03 0. -1.
         11   -1    0    0    0    0 -0.00000000000E+00 -0.00000000000E+00 -0.45593999997E+02  0.45594000000E+02  0.51100000000E-03 0.  1.
    9900012    2    1    2    0    0 -0.15487026985E+02  0.38328005036E+02  0.13218993069E+02  0.47787242487E+02  0.19999869797E+02 0.  0.
        -12    1    1    2    0    0  0.15487026985E+02 -0.38328005036E+02 -0.13218993069E+02  0.43400757513E+02  0.00000000000E+00 0.  1.
         11    1    3    3    0    0 -0.12048217793E+01  0.96544167753E+01  0.48416487861E+01  0.10867424811E+02  0.51100000000E-03 0. -1.
        -11    1    3    3    0    0  0.33084169056E+01  0.88132673343E+01  0.26257648191E+01  0.97731235883E+01  0.51100000000E-03 0.  1.
        -12    1    3    3    0    0 -0.17590622112E+02  0.19860320927E+02  0.57515794639E+01  0.27146694088E+02  0.00000000000E+00 0.  1.
</event>
<event>
 7    1  0.4236733E-010  0.4778727E+02  0.7816164E-02  0.1312668E+00
        -11   -1    0    0    0    0  0.00000000000E+00  0.00000000000E+00  0.45593999997E+02  0.45594000000E+02  0.51100000000E-03 0.  1.
         11   -1    0    0    0    0 -0.00000000000E+00 -0.00000000000E+00 -0.45593999997E+02  0.45594000000E+02  0.51100000000E-03 0. -1.
    9900012    2    1    2    0    0  0.19956367486E+02 -0.12145194483E+02 -0.36576781935E+02  0.47787270410E+02  0.19999997106E+02 0.  0.
        -12    1    1    2    0    0 -0.19956367486E+02  0.12145194483E+02  0.36576781935E+02  0.43400729590E+02  0.00000000000E+00 0.  1.
         11    1    3    3    0    0  0.19591202295E+02 -0.88596738300E+01 -0.18373926928E+02  0.28282684080E+02  0.51100000000E-03 0. -1.
        -11    1    3    3    0    0  0.23382897498E+01 -0.33170348463E+00 -0.26431593076E+01  0.35445616855E+01  0.51100000000E-03 0.  1.
        -12    1    3    3    0    0 -0.19731245595E+01 -0.29538171683E+01 -0.15559695699E+02  0.15960024644E+02  0.00000000000E+00 0.  1.
</event>
<event>
 7    1  0.4236733E-010  0.4778728E+02  0.7816164E-02  0.1312668E+00
        -11   -1    0    0    0    0  0.00000000000E+00  0.00000000000E+00  0.45593999997E+02  0.45594000000E+02  0.51100000000E-03 0.  1.
         11   -1    0    0    0    0 -0.00000000000E+00 -0.00000000000E+00 -0.45593999997E+02  0.45594000000E+02  0.51100000000E-03 0. -1.
    9900012    2    1    2    0    0 -0.26178219059E+02 -0.34443597818E+02 -0.34586368740E+01  0.47787277048E+02  0.20000027373E+02 0.  0.
        -12    1    1    2    0    0  0.26178219059E+02  0.34443597818E+02  0.34586368740E+01  0.43400722952E+02  0.00000000000E+00 0.  1.
         11    1    3    3    0    0 -0.15497462223E+02 -0.17719962395E+02 -0.23977195188E+01  0.23662575130E+02  0.51100000000E-03 0. -1.
        -11    1    3    3    0    0  0.61795471806E+00 -0.10310121246E+02  0.25527876306E+01  0.10639416953E+02  0.51100000000E-03 0.  1.
        -12    1    3    3    0    0 -0.11298711554E+02 -0.64135141769E+01 -0.36137049858E+01  0.13485284966E+02  0.00000000000E+00 0.  1.
</event>
<event>
 7    1  0.4236733E-010  0.4778727E+02  0.7816164E-02  0.1312668E+00
        -11   -1    0    0    0    0  0.00000000000E+00  0.00000000000E+00  0.45593999997E+02  0.45594000000E+02  0.51100000000E-03 0.  1.
         11   -1    0    0    0    0 -0.00000000000E+00 -0.00000000000E+00 -0.45593999997E+02  0.45594000000E+02  0.51100000000E-03 0. -1.
    9900012    2    1    2    0    0  0.95536467581E+01 -0.28237640774E+02 -0.31543412517E+02  0.47787269637E+02  0.19999993582E+02 0.  0.
        -12    1    1    2    0    0 -0.95536467581E+01  0.28237640774E+02  0.31543412517E+02  0.43400730363E+02  0.00000000000E+00 0.  1.
         11    1    3    3    0    0  0.11756747622E+02 -0.14316559046E+02 -0.25076238839E+02  0.31176958353E+02  0.51100000000E-03 0. -1.
        -11    1    3    3    0    0  0.68715081148E+00  0.84201286720E-01 -0.11716931688E+01  0.13609302838E+01  0.51100000000E-03 0.  1.
        -12    1    3    3    0    0 -0.28902516754E+01 -0.14005283015E+02 -0.52954805091E+01  0.15249381000E+02  0.00000000000E+00 0.  1.
</event>
<event>
 7    1  0.4236733E-010  0.4778727E+02  0.7816164E-02  0.1312668E+00
        -11   -1    0    0    0    0  0.00000000000E+00  0.00000000000E+00  0.45593999997E+02  0.45594000000E+02  0.51100000000E-03 0.  1.
         11   -1    0    0    0    0 -0.00000000000E+00 -0.00000000000E+00 -0.45593999997E+02  0.45594000000E+02  0.51100000000E-03 0. -1.
    9900012    2    1    2    0    0  0.62676427948E+01  0.12055071271E+02 -0.41219111422E+02  0.47787271481E+02  0.20000001991E+02 0.  0.
        -12    1    1    2    0    0 -0.62676427948E+01 -0.12055071271E+02  0.41219111422E+02  0.43400728519E+02  0.00000000000E+00 0.  1.
         11    1    3    3    0    0  0.23627258894E+01  0.98651658450E+01 -0.11955758313E+02  0.15679417333E+02  0.51100000000E-03 0. -1.
        -11    1    3    3    0    0 -0.15806293459E-01  0.31011576608E+01 -0.59433285592E+00  0.31576352672E+01  0.51100000000E-03 0.  1.
         12    1    3    3    0    0  0.39207231988E+01 -0.91125223476E+00 -0.28669020253E+02  0.28950218881E+02  0.00000000000E+00 0. -1.
</event>
<event>
 7    1  0.4236733E-010  0.4778727E+02  0.7816164E-02  0.1312668E+00
        -11   -1    0    0    0    0  0.00000000000E+00  0.00000000000E+00  0.45593999997E+02  0.45594000000E+02  0.51100000000E-03 0.  1.
         11   -1    0    0    0    0 -0.00000000000E+00 -0.00000000000E+00 -0.45593999997E+02  0.45594000000E+02  0.51100000000E-03 0. -1.
    9900012    2    1    2    0    0 -0.34844382809E+02  0.19880319282E+02  0.16560944842E+02  0.47787274175E+02  0.20000014274E+02 0.  0.
        -12    1    1    2    0    0  0.34844382809E+02 -0.19880319282E+02 -0.16560944842E+02  0.43400725825E+02  0.00000000000E+00 0.  1.
         11    1    3    3    0    0 -0.17091586365E+02  0.93771285572E+01  0.67104425085E+01  0.20617538732E+02  0.51100000000E-03 0. -1.
        -11    1    3    3    0    0 -0.72952915384E+01  0.87994184738E+01  0.11764475048E+02  0.16402863089E+02  0.51100000000E-03 0.  1.
         12    1    3    3    0    0 -0.10457504905E+02  0.17037722512E+01 -0.19139727147E+01  0.10766872354E+02  0.00000000000E+00 0. -1.
</event>
<event>
 7    1  0.4236733E-010  0.4778727E+02  0.7816164E-02  0.1312668E+00
        -11   -1    0    0    0    0  0.00000000000E+00  0.00000000000E+00  0.45593999997E+02  0.45594000000E+02  0.51100000000E-03 0. -1.
         11   -1    0    0    0    0 -0.00000000000E+00 -0.00000000000E+00 -0.45593999997E+02  0.45594000000E+02  0.51100000000E-03 0.  1.
    9900012    2    1    2    0    0  0.48316796337E+01  0.19148589983E+02  0.38647246503E+02  0.47787270874E+02  0.19999999223E+02 0.  0.
        -12    1    1    2    0    0 -0.48316796337E+01 -0.19148589983E+02 -0.38647246503E+02  0.43400729126E+02  0.00000000000E+00 0.  1.
         11    1    3    3    0    0 -0.35151231552E+01 -0.21797934866E+00  0.17058962087E+02  0.17418719629E+02  0.51100000000E-03 0. -1.
        -11    1    3    3    0    0  0.30316690355E+01  0.41529665323E+01  0.65436978767E+01  0.83221469779E+01  0.51100000000E-03 0.  1.
         12    1    3    3    0    0  0.53151337533E+01  0.15213602799E+02  0.15044586540E+02  0.22046404267E+02  0.00000000000E+00 0. -1.
</event>
<event>
 7    1  0.4236733E-010  0.4778727E+02  0.7816164E-02  0.1312668E+00
        -11   -1    0    0    0    0  0.00000000000E+00  0.00000000000E+00  0.45593999997E+02  0.45594000000E+02  0.51100000000E-03 0. -1.
         11   -1    0    0    0    0 -0.00000000000E+00 -0.00000000000E+00 -0.45593999997E+02  0.45594000000E+02  0.51100000000E-03 0.  1.
    9900012    2    1    2    0    0 -0.34483562068E+02  0.26328779553E+02  0.11412860600E+01  0.47787271671E+02  0.20000002855E+02 0.  0.
        -12    1    1    2    0    0  0.34483562068E+02 -0.26328779553E+02 -0.11412860600E+01  0.43400728329E+02  0.00000000000E+00 0.  1.
         11    1    3    3    0    0 -0.12104798149E+02  0.14476697237E+02 -0.22393437559E+01  0.19003040858E+02  0.51100000000E-03 0.  1.
        -11    1    3    3    0    0 -0.66548747388E+01  0.10154675991E+02  0.44548802800E+01  0.12932546572E+02  0.51100000000E-03 0. -1.
        -12    1    3    3    0    0 -0.15723889181E+02  0.16974063243E+01 -0.10742504641E+01  0.15851684240E+02  0.00000000000E+00 0.  1.
</event>
<event>
 7    1  0.4236733E-010  0.4778727E+02  0.7816164E-02  0.1312668E+00
        -11   -1    0    0    0    0  0.00000000000E+00  0.00000000000E+00  0.45593999997E+02  0.45594000000E+02  0.51100000000E-03 0.  1.
         11   -1    0    0    0    0 -0.00000000000E+00 -0.00000000000E+00 -0.45593999997E+02  0.45594000000E+02  0.51100000000E-03 0. -1.
    9900012    2    1    2    0    0 -0.28705539845E+02  0.32336306985E+02  0.37388376432E+01  0.47787266433E+02  0.19999978977E+02 0.  0.
        -12    1    1    2    0    0  0.28705539845E+02 -0.32336306985E+02 -0.37388376432E+01  0.43400733567E+02  0.00000000000E+00 0.  1.
         11    1    3    3    0    0 -0.10294679431E+02  0.93976146789E+01 -0.70193639063E+01  0.15606635004E+02  0.51100000000E-03 0. -1.
        -11    1    3    3    0    0 -0.80120560848E+01  0.51755174567E+01  0.16829905259E+01  0.96856327115E+01  0.51100000000E-03 0.  1.
        -12    1    3    3    0    0 -0.10398804329E+02  0.17763174849E+02  0.90752110237E+01  0.22494998718E+02  0.00000000000E+00 0.  1.
</event>
<event>
 7    1  0.4236733E-010  0.4778727E+02  0.7816164E-02  0.1312668E+00
        -11   -1    0    0    0    0  0.00000000000E+00  0.00000000000E+00  0.45593999997E+02  0.45594000000E+02  0.51100000000E-03 0.  1.
         11   -1    0    0    0    0 -0.00000000000E+00 -0.00000000000E+00 -0.45593999997E+02  0.45594000000E+02  0.51100000000E-03 0. -1.
    9900012    2    1    2    0    0 -0.35414939666E+02  0.24082139134E+02 -0.70325111499E+01  0.47787267404E+02  0.19999983401E+02 0.  0.
        -12    1    1    2    0    0  0.35414939666E+02 -0.24082139134E+02  0.70325111499E+01  0.43400732596E+02  0.00000000000E+00 0.  1.
         11    1    3    3    0    0 -0.91622371633E+01  0.10623805288E+02 -0.58359403179E+01  0.15194407797E+02  0.51100000000E-03 0. -1.
        -11    1    3    3    0    0 -0.43975970116E+01  0.12110736456E+01 -0.55296188202E+01  0.71681408614E+01  0.51100000000E-03 0.  1.
         12    1    3    3    0    0 -0.21855105491E+02  0.12247260200E+02  0.43330479882E+01  0.25424718746E+02  0.00000000000E+00 0. -1.
</event>
<event>
 7    1  0.4236733E-010  0.4778727E+02  0.7816164E-02  0.1312668E+00
        -11   -1    0    0    0    0  0.00000000000E+00  0.00000000000E+00  0.45593999997E+02  0.45594000000E+02  0.51100000000E-03 0.  1.
         11   -1    0    0    0    0 -0.00000000000E+00 -0.00000000000E+00 -0.45593999997E+02  0.45594000000E+02  0.51100000000E-03 0. -1.
    9900012    2    1    2    0    0  0.38914861979E+02 -0.13491569009E+02  0.13683348438E+02  0.47787274872E+02  0.20000017451E+02 0.  0.
        -12    1    1    2    0    0 -0.38914861979E+02  0.13491569009E+02 -0.13683348438E+02  0.43400725128E+02  0.00000000000E+00 0.  1.
         11    1    3    3    0    0  0.14627427559E+02 -0.71905375288E+01  0.46343339297E+01  0.16945280115E+02  0.51100000000E-03 0. -1.
        -11    1    3    3    0    0  0.21982895294E+02 -0.10421803522E+02  0.94599813002E+01  0.26102737800E+02  0.51100000000E-03 0.  1.
        -12    1    3    3    0    0  0.23045391254E+01  0.41207720417E+01 -0.41096679194E+00  0.47392569569E+01  0.00000000000E+00 0.  1.
</event>
<event>
 7    1  0.4236733E-010  0.4778727E+02  0.7816164E-02  0.1312668E+00
        -11   -1    0    0    0    0  0.00000000000E+00  0.00000000000E+00  0.45593999997E+02  0.45594000000E+02  0.51100000000E-03 0.  1.
         11   -1    0    0    0    0 -0.00000000000E+00 -0.00000000000E+00 -0.45593999997E+02  0.45594000000E+02  0.51100000000E-03 0. -1.
    9900012    2    1    2    0    0  0.31848732871E+02 -0.14674388886E+02 -0.25572326691E+02  0.47787269971E+02  0.19999995105E+02 0.  0.
        -12    1    1    2    0    0 -0.31848732871E+02  0.14674388886E+02  0.25572326691E+02  0.43400730029E+02  0.00000000000E+00 0.  1.
         11    1    3    3    0    0  0.83614163563E+01 -0.54561632961E+01 -0.31356099381E+01  0.10464943924E+02  0.51100000000E-03 0.  1.
        -11    1    3    3    0    0  0.21748214782E+02 -0.85713300499E+01 -0.24955418390E+02  0.34193938824E+02  0.51100000000E-03 0. -1.
         12    1    3    3    0    0  0.17391017333E+01 -0.64689553993E+00  0.25187016369E+01  0.31283872225E+01  0.00000000000E+00 0. -1.
</event>
<event>
 7    1  0.4236733E-010  0.4778727E+02  0.7816164E-02  0.1312668E+00
        -11   -1    0    0    0    0  0.00000000000E+00  0.00000000000E+00  0.45593999997E+02  0.45594000000E+02  0.51100000000E-03 0.  1.
         11   -1    0    0    0    0 -0.00000000000E+00 -0.00000000000E+00 -0.45593999997E+02  0.45594000000E+02  0.51100000000E-03 0. -1.
    9900012    2    1    2    0    0  0.30321661291E+02 -0.89351134295E+01 -0.29738591384E+02  0.47787271746E+02  0.20000003198E+02 0.  0.
        -12    1    1    2    0    0 -0.30321661291E+02  0.89351134295E+01  0.29738591384E+02  0.43400728254E+02  0.00000000000E+00 0.  1.
         11    1    3    3    0    0  0.57667663384E+01  0.88493475132E+00 -0.48157332017E+01  0.75650505648E+01  0.51100000000E-03 0. -1.
        -11    1    3    3    0    0  0.12557510468E+02 -0.12479631620E+02 -0.83073911177E+01  0.19556201624E+02  0.51100000000E-03 0.  1.
        -12    1    3    3    0    0  0.11997384485E+02  0.26595834389E+01 -0.16615467065E+02  0.20666019557E+02  0.00000000000E+00 0.  1.
</event>
<event>
 7    1  0.4236733E-010  0.4778723E+02  0.7816164E-02  0.1312668E+00
        -11   -1    0    0    0    0  0.00000000000E+00  0.00000000000E+00  0.45593999997E+02  0.45594000000E+02  0.51100000000E-03 0. -1.
         11   -1    0    0    0    0 -0.00000000000E+00 -0.00000000000E+00 -0.45593999997E+02  0.45594000000E+02  0.51100000000E-03 0.  1.
    9900012    2    1    2    0    0  0.33967925184E+02 -0.13620833404E+02  0.23329802557E+02  0.47787231213E+02  0.19999818393E+02 0.  0.
        -12    1    1    2    0    0 -0.33967925184E+02  0.13620833404E+02 -0.23329802557E+02  0.43400768787E+02  0.00000000000E+00 0.  1.
         11    1    3    3    0    0  0.77848106803E+01  0.30545381824E+01  0.70578325607E+01  0.10942873551E+02  0.51100000000E-03 0. -1.
        -11    1    3    3    0    0  0.47037358673E+00 -0.18410405336E+01  0.45462090475E+01  0.49273419327E+01  0.51100000000E-03 0.  1.
         12    1    3    3    0    0  0.25712740917E+02 -0.14834331053E+02  0.11725760949E+02  0.31917015730E+02  0.00000000000E+00 0. -1.
</event>
<event>
 7    1  0.4236733E-010  0.4778724E+02  0.7816164E-02  0.1312668E+00
        -11   -1    0    0    0    0  0.00000000000E+00  0.00000000000E+00  0.45593999997E+02  0.45594000000E+02  0.51100000000E-03 0.  1.
         11   -1    0    0    0    0 -0.00000000000E+00 -0.00000000000E+00 -0.45593999997E+02  0.45594000000E+02  0.51100000000E-03 0. -1.
    9900012    2    1    2    0    0  0.19600714884E+02 -0.36158874140E+01 -0.38553377372E+02  0.47787244563E+02  0.19999879259E+02 0.  0.
        -12    1    1    2    0    0 -0.19600714884E+02  0.36158874140E+01  0.38553377372E+02  0.43400755437E+02  0.00000000000E+00 0.  1.
         11    1    3    3    0    0  0.20446844619E+01  0.17375734971E+00 -0.13510895356E+02  0.13665841348E+02  0.51100000000E-03 0. -1.
        -11    1    3    3    0    0  0.72532995956E+01 -0.79875774697E+01 -0.17901688525E+02  0.20901727229E+02  0.51100000000E-03 0.  1.
        -12    1    3    3    0    0  0.10302730826E+02  0.41979327060E+01 -0.71407934909E+01  0.13219675986E+02  0.00000000000E+00 0.  1.
</event>
<event>
 7    1  0.4236733E-010  0.4778727E+02  0.7816164E-02  0.1312668E+00
        -11   -1    0    0    0    0  0.00000000000E+00  0.00000000000E+00  0.45593999997E+02  0.45594000000E+02  0.51100000000E-03 0. -1.
         11   -1    0    0    0    0 -0.00000000000E+00 -0.00000000000E+00 -0.45593999997E+02  0.45594000000E+02  0.51100000000E-03 0.  1.
    9900012    2    1    2    0    0 -0.40488082376E+02  0.12734875357E+02  0.90642907568E+01  0.47787271530E+02  0.20000002212E+02 0.  0.
        -12    1    1    2    0    0  0.40488082376E+02 -0.12734875357E+02 -0.90642907568E+01  0.43400728470E+02  0.00000000000E+00 0.  1.
         11    1    3    3    0    0 -0.32486117856E+02  0.14670509123E+02  0.58919384949E+01  0.36128750750E+02  0.51100000000E-03 0. -1.
        -11    1    3    3    0    0 -0.88528384324E+01 -0.18035377565E+01  0.44865565773E+01  0.10087352821E+02  0.51100000000E-03 0.  1.
        -12    1    3    3    0    0  0.85087391275E+00 -0.13209600911E+00 -0.13142043155E+01  0.15711679585E+01  0.00000000000E+00 0.  1.
</event>
<event>
 7    1  0.4236733E-010  0.4778727E+02  0.7816164E-02  0.1312668E+00
        -11   -1    0    0    0    0  0.00000000000E+00  0.00000000000E+00  0.45593999997E+02  0.45594000000E+02  0.51100000000E-03 0.  1.
         11   -1    0    0    0    0 -0.00000000000E+00 -0.00000000000E+00 -0.45593999997E+02  0.45594000000E+02  0.51100000000E-03 0. -1.
    9900012    2    1    2    0    0 -0.24692817487E+02 -0.11290316987E+02 -0.33858783758E+02  0.47787265782E+02  0.19999976005E+02 0.  0.
        -12    1    1    2    0    0  0.24692817487E+02  0.11290316987E+02  0.33858783758E+02  0.43400734218E+02  0.00000000000E+00 0.  1.
         11    1    3    3    0    0  0.82439379922E+00 -0.44502945850E+01 -0.51987661540E+01  0.68928888584E+01  0.51100000000E-03 0. -1.
        -11    1    3    3    0    0 -0.39232787780E+01 -0.17847222187E+01  0.41096643059E+00  0.43296932265E+01  0.51100000000E-03 0.  1.
         12    1    3    3    0    0 -0.21593932508E+02 -0.50553001834E+01 -0.29070984034E+02  0.36564683697E+02  0.00000000000E+00 0. -1.
</event>
<event>
 7    1  0.4236733E-010  0.4778727E+02  0.7816164E-02  0.1312668E+00
        -11   -1    0    0    0    0  0.00000000000E+00  0.00000000000E+00  0.45593999997E+02  0.45594000000E+02  0.51100000000E-03 0. -1.
         11   -1    0    0    0    0 -0.00000000000E+00 -0.00000000000E+00 -0.45593999997E+02  0.45594000000E+02  0.51100000000E-03 0.  1.
    9900012    2    1    2    0    0  0.16576969915E+02  0.31109989456E+02  0.25317901666E+02  0.47787268206E+02  0.19999987057E+02 0.  0.
        -12    1    1    2    0    0 -0.16576969915E+02 -0.31109989456E+02 -0.25317901666E+02  0.43400731794E+02  0.00000000000E+00 0.  1.
         11    1    3    3    0    0  0.66837585567E+01  0.11610865267E+02  0.69336637146E+01  0.15085108997E+02  0.51100000000E-03 0. -1.
        -11    1    3    3    0    0 -0.29037000485E+01  0.90835858485E+01  0.26380616554E+01  0.98945629210E+01  0.51100000000E-03 0.  1.
        -12    1    3    3    0    0  0.12796911407E+02  0.10415538341E+02  0.15746176296E+02  0.22807596288E+02  0.00000000000E+00 0.  1.
</event>
<event>
 7    1  0.4236733E-010  0.4778726E+02  0.7816164E-02  0.1312668E+00
        -11   -1    0    0    0    0  0.00000000000E+00  0.00000000000E+00  0.45593999997E+02  0.45594000000E+02  0.51100000000E-03 0. -1.
         11   -1    0    0    0    0 -0.00000000000E+00 -0.00000000000E+00 -0.45593999997E+02  0.45594000000E+02  0.51100000000E-03 0.  1.
    9900012    2    1    2    0    0 -0.23762063842E+02  0.36316070022E+02  0.36337488519E+00  0.47787255062E+02  0.19999927130E+02 0.  0.
        -12    1    1    2    0    0  0.23762063842E+02 -0.36316070022E+02 -0.36337488519E+00  0.43400744938E+02  0.00000000000E+00 0.  1.
         11    1    3    3    0    0 -0.68858085577E+00  0.96557388919E+01  0.16449618547E+01  0.98190293262E+01  0.51100000000E-03 0. -1.
        -11    1    3    3    0    0  0.18926654470E+01  0.14224020311E+01 -0.67873454872E+00  0.24629435400E+01  0.51100000000E-03 0.  1.
         12    1    3    3    0    0 -0.24966148433E+02  0.25237929099E+02 -0.60285242079E+00  0.35505282196E+02  0.00000000000E+00 0. -1.
</event>
<event>
 7    1  0.4236733E-010  0.4778727E+02  0.7816164E-02  0.1312668E+00
        -11   -1    0    0    0    0  0.00000000000E+00  0.00000000000E+00  0.45593999997E+02  0.45594000000E+02  0.51100000000E-03 0.  1.
         11   -1    0    0    0    0 -0.00000000000E+00 -0.00000000000E+00 -0.45593999997E+02  0.45594000000E+02  0.51100000000E-03 0. -1.
    9900012    2    1    2    0    0  0.10152100533E+02  0.35106313013E+02 -0.23411640259E+02  0.47787271225E+02  0.20000000823E+02 0.  0.
        -12    1    1    2    0    0 -0.10152100533E+02 -0.35106313013E+02  0.23411640259E+02  0.43400728775E+02  0.00000000000E+00 0.  1.
         11    1    3    3    0    0 -0.25906592025E+01  0.44954622222E+01 -0.27999762437E+00  0.51960653023E+01  0.51100000000E-03 0. -1.
        -11    1    3    3    0    0  0.15849659564E+01  0.20756116715E+02 -0.14686821966E+02  0.25476091496E+02  0.51100000000E-03 0.  1.
         12    1    3    3    0    0  0.11157793779E+02  0.98547340754E+01 -0.84448206685E+01  0.17115114427E+02  0.00000000000E+00 0. -1.
</event>
<event>
 7    1  0.4236733E-010  0.4778727E+02  0.7816164E-02  0.1312668E+00
        -11   -1    0    0    0    0  0.00000000000E+00  0.00000000000E+00  0.45593999997E+02  0.45594000000E+02  0.51100000000E-03 0. -1.
         11   -1    0    0    0    0 -0.00000000000E+00 -0.00000000000E+00 -0.45593999997E+02  0.45594000000E+02  0.51100000000E-03 0.  1.
    9900012    2    1    2    0    0  0.39726435361E+02 -0.17200006568E+02 -0.30973708802E+01  0.47787267301E+02  0.19999982932E+02 0.  0.
        -12    1    1    2    0    0 -0.39726435361E+02  0.17200006568E+02  0.30973708802E+01  0.43400732699E+02  0.00000000000E+00 0.  1.
         11    1    3    3    0    0  0.21820696793E+02 -0.22548401564E+01 -0.15569656072E+01  0.21992072545E+02  0.51100000000E-03 0. -1.
        -11    1    3    3    0    0  0.55203475226E+01  0.94343628869E+00 -0.50204152269E+00  0.56228422308E+01  0.51100000000E-03 0.  1.
        -12    1    3    3    0    0  0.12385391045E+02 -0.15888602700E+02 -0.10383637502E+01  0.20172352525E+02  0.00000000000E+00 0.  1.
</event>
<event>
 7    1  0.4236733E-010  0.4778727E+02  0.7816164E-02  0.1312668E+00
        -11   -1    0    0    0    0  0.00000000000E+00  0.00000000000E+00  0.45593999997E+02  0.45594000000E+02  0.51100000000E-03 0.  1.
         11   -1    0    0    0    0 -0.00000000000E+00 -0.00000000000E+00 -0.45593999997E+02  0.45594000000E+02  0.51100000000E-03 0. -1.
    9900012    2    1    2    0    0 -0.30946863373E+02  0.29837667599E+02  0.59689692996E+01  0.47787270112E+02  0.19999995747E+02 0.  0.
        -12    1    1    2    0    0  0.30946863373E+02 -0.29837667599E+02 -0.59689692996E+01  0.43400729888E+02  0.00000000000E+00 0.  1.
         11    1    3    3    0    0 -0.11477662467E+02  0.12043165621E+02  0.56230856310E+01  0.17561140799E+02  0.51100000000E-03 0. -1.
        -11    1    3    3    0    0 -0.74428334093E+00  0.95192296318E+01  0.17448040506E+01  0.97063912919E+01  0.51100000000E-03 0.  1.
        -12    1    3    3    0    0 -0.18724917565E+02  0.82752723456E+01 -0.13989203820E+01  0.20519738020E+02  0.00000000000E+00 0.  1.
</event>
<event>
 7    1  0.4236733E-010  0.4778727E+02  0.7816164E-02  0.1312668E+00
        -11   -1    0    0    0    0  0.00000000000E+00  0.00000000000E+00  0.45593999997E+02  0.45594000000E+02  0.51100000000E-03 0.  1.
         11   -1    0    0    0    0 -0.00000000000E+00 -0.00000000000E+00 -0.45593999997E+02  0.45594000000E+02  0.51100000000E-03 0. -1.
    9900012    2    1    2    0    0 -0.27723647499E+02  0.27101392067E+02 -0.19507368108E+02  0.47787268518E+02  0.19999988483E+02 0.  0.
        -12    1    1    2    0    0  0.27723647499E+02 -0.27101392067E+02  0.19507368108E+02  0.43400731482E+02  0.00000000000E+00 0.  1.
         11    1    3    3    0    0 -0.11800214911E+01 -0.18785647536E+01 -0.85766405747E+00  0.23784541512E+01  0.51100000000E-03 0. -1.
        -11    1    3    3    0    0 -0.39175812605E+01  0.70100674890E+01  0.12364906048E+01  0.81251091322E+01  0.51100000000E-03 0.  1.
         12    1    3    3    0    0 -0.22626044748E+02  0.21969889332E+02 -0.19886194655E+02  0.37283705235E+02  0.00000000000E+00 0. -1.
</event>
<event>
 7    1  0.4236733E-010  0.4778727E+02  0.7816164E-02  0.1312668E+00
        -11   -1    0    0    0    0  0.00000000000E+00  0.00000000000E+00  0.45593999997E+02  0.45594000000E+02  0.51100000000E-03 0.  1.
         11   -1    0    0    0    0 -0.00000000000E+00 -0.00000000000E+00 -0.45593999997E+02  0.45594000000E+02  0.51100000000E-03 0. -1.
    9900012    2    1    2    0    0 -0.60627599280E+01 -0.35822976102E+01 -0.42825615311E+02  0.47787271424E+02  0.20000001732E+02 0.  0.
        -12    1    1    2    0    0  0.60627599280E+01  0.35822976102E+01  0.42825615311E+02  0.43400728576E+02  0.00000000000E+00 0.  1.
         11    1    3    3    0    0 -0.38688956834E+01  0.81140580666E+00 -0.12173622835E+02  0.12799368203E+02  0.51100000000E-03 0. -1.
        -11    1    3    3    0    0 -0.19544862838E+00  0.32083034708E+01  0.13128979297E+00  0.32169315501E+01  0.51100000000E-03 0.  1.
        -12    1    3    3    0    0 -0.19984156162E+01 -0.76020068876E+01 -0.30783282269E+02  0.31770971672E+02  0.00000000000E+00 0.  1.
</event>
<event>
 7    1  0.4236733E-010  0.4778727E+02  0.7816164E-02  0.1312668E+00
        -11   -1    0    0    0    0  0.00000000000E+00  0.00000000000E+00  0.45593999997E+02  0.45594000000E+02  0.51100000000E-03 0.  1.
         11   -1    0    0    0    0 -0.00000000000E+00 -0.00000000000E+00 -0.45593999997E+02  0.45594000000E+02  0.51100000000E-03 0. -1.
    9900012    2    1    2    0    0  0.38528666764E+02 -0.19450763436E+02  0.45643056053E+01  0.47787271360E+02  0.20000001438E+02 0.  0.
        -12    1    1    2    0    0 -0.38528666764E+02  0.19450763436E+02 -0.45643056053E+01  0.43400728640E+02  0.00000000000E+00 0.  1.
         11    1    3    3    0    0  0.26905295721E+02 -0.13288094583E+02 -0.36105954260E+01  0.30224241844E+02  0.51100000000E-03 0. -1.
        -11    1    3    3    0    0  0.49282295067E+01 -0.42657745197E+00 -0.76698076958E+00  0.50057640930E+01  0.51100000000E-03 0.  1.
        -12    1    3    3    0    0  0.66951415363E+01 -0.57360914011E+01  0.89418818008E+01  0.12557265423E+02  0.00000000000E+00 0.  1.
</event>
<event>
 7    1  0.4236733E-010  0.4778727E+02  0.7816164E-02  0.1312668E+00
        -11   -1    0    0    0    0  0.00000000000E+00  0.00000000000E+00  0.45593999997E+02  0.45594000000E+02  0.51100000000E-03 0. -1.
         11   -1    0    0    0    0 -0.00000000000E+00 -0.00000000000E+00 -0.45593999997E+02  0.45594000000E+02  0.51100000000E-03 0.  1.
    9900012    2    1    2    0    0 -0.55232279650E+01  0.42962121261E+02 -0.27153662906E+01  0.47787272765E+02  0.20000007845E+02 0.  0.
        -12    1    1    2    0    0  0.55232279650E+01 -0.42962121261E+02  0.27153662906E+01  0.43400727235E+02  0.00000000000E+00 0.  1.
         11    1    3    3    0    0 -0.76006811944E+01  0.95330542749E+01  0.18646700572E+01  0.12333956101E+02  0.51100000000E-03 0.  1.
        -11    1    3    3    0    0 -0.27481533541E+01  0.95424295852E+01  0.21740304748E+01  0.10165466935E+02  0.51100000000E-03 0. -1.
        -12    1    3    3    0    0  0.48256065835E+01  0.23886637401E+02 -0.67540668227E+01  0.25287849728E+02  0.00000000000E+00 0.  1.
</event>
<event>
 7    1  0.4236733E-010  0.4778728E+02  0.7816164E-02  0.1312668E+00
        -11   -1    0    0    0    0  0.00000000000E+00  0.00000000000E+00  0.45593999997E+02  0.45594000000E+02  0.51100000000E-03 0.  1.
         11   -1    0    0    0    0 -0.00000000000E+00 -0.00000000000E+00 -0.45593999997E+02  0.45594000000E+02  0.51100000000E-03 0. -1.
    9900012    2    1    2    0    0  0.40012266399E+02  0.16191752702E+02 -0.45242039266E+01  0.47787277205E+02  0.20000028086E+02 0.  0.
        -12    1    1    2    0    0 -0.40012266399E+02 -0.16191752702E+02  0.45242039266E+01  0.43400722795E+02  0.00000000000E+00 0.  1.
         11    1    3    3    0    0  0.16975057167E+02  0.61716942136E+01 -0.98909742358E+01  0.20593050937E+02  0.51100000000E-03 0. -1.
        -11    1    3    3    0    0  0.69861842386E+01  0.69326894887E+01 -0.42978529137E+00  0.98515820770E+01  0.51100000000E-03 0.  1.
        -12    1    3    3    0    0  0.16051024994E+02  0.30873690001E+01  0.57965556005E+01  0.17342644191E+02  0.00000000000E+00 0.  1.
</event>
<event>
 7    1  0.4236733E-010  0.4778727E+02  0.7816164E-02  0.1312668E+00
        -11   -1    0    0    0    0  0.00000000000E+00  0.00000000000E+00  0.45593999997E+02  0.45594000000E+02  0.51100000000E-03 0.  1.
         11   -1    0    0    0    0 -0.00000000000E+00 -0.00000000000E+00 -0.45593999997E+02  0.45594000000E+02  0.51100000000E-03 0. -1.
    9900012    2    1    2    0    0 -0.23115324502E+02 -0.36272172319E+02 -0.57995407754E+01  0.47787269767E+02  0.19999994175E+02 0.  0.
        -12    1    1    2    0    0  0.23115324502E+02  0.36272172319E+02  0.57995407754E+01  0.43400730233E+02  0.00000000000E+00 0.  1.
         11    1    3    3    0    0 -0.28416331838E+01  0.93583289763E+00  0.15836967258E+01  0.33850787205E+01  0.51100000000E-03 0.  1.
        -11    1    3    3    0    0 -0.17061158793E+02 -0.26259521853E+02 -0.10071470711E+01  0.31331453410E+02  0.51100000000E-03 0. -1.
        -12    1    3    3    0    0 -0.32125325252E+01 -0.10948483364E+02 -0.63760904301E+01  0.13070737637E+02  0.00000000000E+00 0.  1.
</event>
<event>
 7    1  0.4236733E-010  0.4778728E+02  0.7816164E-02  0.1312668E+00
        -11   -1    0    0    0    0  0.00000000000E+00  0.00000000000E+00  0.45593999997E+02  0.45594000000E+02  0.51100000000E-03 0.  1.
         11   -1    0    0    0    0 -0.00000000000E+00 -0.00000000000E+00 -0.45593999997E+02  0.45594000000E+02  0.51100000000E-03 0. -1.
    9900012    2    1    2    0    0 -0.24104823740E+02  0.36074666848E+02  0.10948297112E+01  0.47787276874E+02  0.20000026580E+02 0.  0.
        -12    1    1    2    0    0  0.24104823740E+02 -0.36074666848E+02 -0.10948297112E+01  0.43400723126E+02  0.00000000000E+00 0.  1.
         11    1    3    3    0    0  0.10157168380E+01  0.11132422751E+02 -0.34661578881E+01  0.11703707436E+02  0.51100000000E-03 0. -1.
        -11    1    3    3    0    0 -0.58168987894E+01  0.36665972038E+01 -0.57598619875E+00  0.69001454292E+01  0.51100000000E-03 0.  1.
         12    1    3    3    0    0 -0.19303641789E+02  0.21275646894E+02  0.51369737981E+01  0.29183424008E+02  0.00000000000E+00 0. -1.
</event>
<event>
 7    1  0.4236733E-010  0.4778727E+02  0.7816164E-02  0.1312668E+00
        -11   -1    0    0    0    0  0.00000000000E+00  0.00000000000E+00  0.45593999997E+02  0.45594000000E+02  0.51100000000E-03 0. -1.
         11   -1    0    0    0    0 -0.00000000000E+00 -0.00000000000E+00 -0.45593999997E+02  0.45594000000E+02  0.51100000000E-03 0.  1.
    9900012    2    1    2    0    0  0.21253302529E+02  0.36467933150E+02  0.10100024844E+02  0.47787268227E+02  0.19999987153E+02 0.  0.
        -12    1    1    2    0    0 -0.21253302529E+02 -0.36467933150E+02 -0.10100024844E+02  0.43400731773E+02  0.00000000000E+00 0.  1.
         11    1    3    3    0    0  0.18759405110E+01  0.12867003169E+01  0.42500309129E+01  0.48205304198E+01  0.51100000000E-03 0. -1.
        -11    1    3    3    0    0  0.58440867738E+01  0.12605090936E+01  0.16713617769E+01  0.62077116432E+01  0.51100000000E-03 0.  1.
         12    1    3    3    0    0  0.13533275244E+02  0.33920723739E+02  0.41786321542E+01  0.36759026164E+02  0.00000000000E+00 0. -1.
</event>
<event>
 7    1  0.4236733E-010  0.4778724E+02  0.7816164E-02  0.1312668E+00
        -11   -1    0    0    0    0  0.00000000000E+00  0.00000000000E+00  0.45593999997E+02  0.45594000000E+02  0.51100000000E-03 0. -1.
         11   -1    0    0    0    0 -0.00000000000E+00 -0.00000000000E+00 -0.45593999997E+02  0.45594000000E+02  0.51100000000E-03 0.  1.
    9900012    2    1    2    0    0  0.57173260364E+01 -0.34625779616E+02  0.25534162870E+02  0.47787240738E+02  0.19999861820E+02 0.  0.
        -12    1    1    2    0    0 -0.57173260364E+01  0.34625779616E+02 -0.25534162870E+02  0.43400759262E+02  0.00000000000E+00 0.  1.
         11    1    3    3    0    0  0.41952720296E+01 -0.58314021518E+01 -0.21982457338E+01  0.75125124310E+01  0.51100000000E-03 0.  1.
        -11    1    3    3    0    0  0.15175524654E+01 -0.61291501223E+01  0.40907808879E+01  0.75235586820E+01  0.51100000000E-03 0. -1.
        -12    1    3    3    0    0  0.45015414869E-02 -0.22665227342E+02  0.23641627716E+02  0.32751169625E+02  0.00000000000E+00 0.  1.
</event>
<event>
 7    1  0.4236733E-010  0.4778727E+02  0.7816164E-02  0.1312668E+00
        -11   -1    0    0    0    0  0.00000000000E+00  0.00000000000E+00  0.45593999997E+02  0.45594000000E+02  0.51100000000E-03 0. -1.
         11   -1    0    0    0    0 -0.00000000000E+00 -0.00000000000E+00 -0.45593999997E+02  0.45594000000E+02  0.51100000000E-03 0.  1.
    9900012    2    1    2    0    0 -0.32479653998E+02  0.27299882479E+02 -0.91330055246E+01  0.47787270777E+02  0.19999998781E+02 0.  0.
        -12    1    1    2    0    0  0.32479653998E+02 -0.27299882479E+02  0.91330055246E+01  0.43400729223E+02  0.00000000000E+00 0.  1.
         11    1    3    3    0    0 -0.10764217805E+02  0.27129922311E+01  0.29490950470E+00  0.11104759506E+02  0.51100000000E-03 0.  1.
        -11    1    3    3    0    0 -0.45546078971E+01  0.39640137568E+01 -0.77177081722E+01  0.97990243317E+01  0.51100000000E-03 0. -1.
         12    1    3    3    0    0 -0.17160828295E+02  0.20622876491E+02 -0.17102068571E+01  0.26883486940E+02  0.00000000000E+00 0. -1.
</event>
<event>
 7    1  0.4236733E-010  0.4778727E+02  0.7816164E-02  0.1312668E+00
        -11   -1    0    0    0    0  0.00000000000E+00  0.00000000000E+00  0.45593999997E+02  0.45594000000E+02  0.51100000000E-03 0.  1.
         11   -1    0    0    0    0 -0.00000000000E+00 -0.00000000000E+00 -0.45593999997E+02  0.45594000000E+02  0.51100000000E-03 0. -1.
    9900012    2    1    2    0    0 -0.74622801081E+01 -0.66930363514E+01 -0.42227249750E+02  0.47787274413E+02  0.20000015359E+02 0.  0.
        -12    1    1    2    0    0  0.74622801081E+01  0.66930363514E+01  0.42227249750E+02  0.43400725587E+02  0.00000000000E+00 0.  1.
         11    1    3    3    0    0 -0.12810180795E+02 -0.67518064297E+01 -0.27121672958E+02  0.30745288523E+02  0.51100000000E-03 0. -1.
        -11    1    3    3    0    0  0.52103055269E+00  0.12834752148E+00  0.48367519056E+00  0.72241807438E+00  0.51100000000E-03 0.  1.
        -12    1    3    3    0    0  0.48268701340E+01 -0.69577443239E-01 -0.15589251983E+02  0.16319567816E+02  0.00000000000E+00 0.  1.
</event>
<event>
 7    1  0.4236733E-010  0.4778727E+02  0.7816164E-02  0.1312668E+00
        -11   -1    0    0    0    0  0.00000000000E+00  0.00000000000E+00  0.45593999997E+02  0.45594000000E+02  0.51100000000E-03 0.  1.
         11   -1    0    0    0    0 -0.00000000000E+00 -0.00000000000E+00 -0.45593999997E+02  0.45594000000E+02  0.51100000000E-03 0. -1.
    9900012    2    1    2    0    0 -0.19984924147E+02 -0.38010887314E+02 -0.62768566720E+01  0.47787266398E+02  0.19999978814E+02 0.  0.
        -12    1    1    2    0    0  0.19984924147E+02  0.38010887314E+02  0.62768566720E+01  0.43400733602E+02  0.00000000000E+00 0.  1.
         11    1    3    3    0    0 -0.17106941791E+01 -0.68230853485E+00 -0.31252780989E+01  0.36275863832E+01  0.51100000000E-03 0. -1.
        -11    1    3    3    0    0 -0.18891022199E+01  0.11291737157E+01  0.26886789663E+00  0.22172123679E+01  0.51100000000E-03 0.  1.
         12    1    3    3    0    0 -0.16385127748E+02 -0.38457752494E+02 -0.34204464698E+01  0.41942467647E+02  0.00000000000E+00 0. -1.
</event>
<event>
 7    1  0.4236733E-010  0.4778727E+02  0.7816164E-02  0.1312668E+00
        -11   -1    0    0    0    0  0.00000000000E+00  0.00000000000E+00  0.45593999997E+02  0.45594000000E+02  0.51100000000E-03 0.  1.
         11   -1    0    0    0    0 -0.00000000000E+00 -0.00000000000E+00 -0.45593999997E+02  0.45594000000E+02  0.51100000000E-03 0. -1.
    9900012    2    1    2    0    0 -0.27456194994E+02 -0.18447473753E+02 -0.28097526942E+02  0.47787274757E+02  0.20000016927E+02 0.  0.
        -12    1    1    2    0    0  0.27456194994E+02  0.18447473753E+02  0.28097526942E+02  0.43400725243E+02  0.00000000000E+00 0.  1.
         11    1    3    3    0    0 -0.16333251690E+01 -0.42630464169E+01 -0.10310856129E+02  0.11276305700E+02  0.51100000000E-03 0. -1.
        -11    1    3    3    0    0 -0.16472798781E+02 -0.10376735645E+02 -0.17852936376E+02  0.26415091895E+02  0.51100000000E-03 0.  1.
        -12    1    3    3    0    0 -0.93500710435E+01 -0.38076916914E+01  0.66265564050E-01  0.10095877161E+02  0.00000000000E+00 0.  1.
</event>
<event>
 7    1  0.4236733E-010  0.4778724E+02  0.7816164E-02  0.1312668E+00
        -11   -1    0    0    0    0  0.00000000000E+00  0.00000000000E+00  0.45593999997E+02  0.45594000000E+02  0.51100000000E-03 0. -1.
         11   -1    0    0    0    0 -0.00000000000E+00 -0.00000000000E+00 -0.45593999997E+02  0.45594000000E+02  0.51100000000E-03 0.  1.
    9900012    2    1    2    0    0 -0.17345773486E+02  0.35084261296E+02  0.18757522112E+02  0.47787240971E+02  0.19999862883E+02 0.  0.
        -12    1    1    2    0    0  0.17345773486E+02 -0.35084261296E+02 -0.18757522112E+02  0.43400759029E+02  0.00000000000E+00 0.  1.
         11    1    3    3    0    0 -0.50557042828E+01  0.33953012379E+01  0.27175110454E+01  0.66688142000E+01  0.51100000000E-03 0. -1.
        -11    1    3    3    0    0 -0.13887347567E+02  0.14245740372E+02  0.11671735064E+02  0.23065752553E+02  0.51100000000E-03 0.  1.
         12    1    3    3    0    0  0.15972783630E+01  0.17443219686E+02  0.43682760022E+01  0.18052674218E+02  0.00000000000E+00 0. -1.
</event>
<event>
 7    1  0.4236733E-010  0.4778727E+02  0.7816164E-02  0.1312668E+00
        -11   -1    0    0    0    0  0.00000000000E+00  0.00000000000E+00  0.45593999997E+02  0.45594000000E+02  0.51100000000E-03 0.  1.
         11   -1    0    0    0    0 -0.00000000000E+00 -0.00000000000E+00 -0.45593999997E+02  0.45594000000E+02  0.51100000000E-03 0. -1.
    9900012    2    1    2    0    0 -0.31765447888E+02 -0.23265624533E+00 -0.29572383465E+02  0.47787266455E+02  0.19999979074E+02 0.  0.
        -12    1    1    2    0    0  0.31765447888E+02  0.23265624533E+00  0.29572383465E+02  0.43400733545E+02  0.00000000000E+00 0.  1.
         11    1    3    3    0    0 -0.69700544112E+01  0.23283366457E+01 -0.87680339040E+01  0.11440333423E+02  0.51100000000E-03 0. -1.
        -11    1    3    3    0    0 -0.70064477471E+00 -0.51196208535E+01 -0.15403399437E+01  0.53920374802E+01  0.51100000000E-03 0.  1.
        -12    1    3    3    0    0 -0.24094748702E+02  0.25586279625E+01 -0.19264009617E+02  0.30954895552E+02  0.00000000000E+00 0.  1.
</event>
<event>
 7    1  0.4236733E-010  0.4778727E+02  0.7816164E-02  0.1312668E+00
        -11   -1    0    0    0    0  0.00000000000E+00  0.00000000000E+00  0.45593999997E+02  0.45594000000E+02  0.51100000000E-03 0. -1.
         11   -1    0    0    0    0 -0.00000000000E+00 -0.00000000000E+00 -0.45593999997E+02  0.45594000000E+02  0.51100000000E-03 0.  1.
    9900012    2    1    2    0    0 -0.21111658283E+02  0.21405051883E+02  0.31300876615E+02  0.47787271453E+02  0.20000001863E+02 0.  0.
        -12    1    1    2    0    0  0.21111658283E+02 -0.21405051883E+02 -0.31300876615E+02  0.43400728547E+02  0.00000000000E+00 0.  1.
         11    1    3    3    0    0 -0.13053072794E+00  0.71099039154E+01  0.58612921968E+01  0.92153414714E+01  0.51100000000E-03 0.  1.
        -11    1    3    3    0    0 -0.10065263452E+02 -0.38654162665E+00  0.13012017702E+02  0.16455137427E+02  0.51100000000E-03 0. -1.
         12    1    3    3    0    0 -0.10915864102E+02  0.14681689594E+02  0.12427566716E+02  0.22116792555E+02  0.00000000000E+00 0. -1.
</event>
<event>
 7    1  0.4236733E-010  0.4778727E+02  0.7816164E-02  0.1312668E+00
        -11   -1    0    0    0    0  0.00000000000E+00  0.00000000000E+00  0.45593999997E+02  0.45594000000E+02  0.51100000000E-03 0.  1.
         11   -1    0    0    0    0 -0.00000000000E+00 -0.00000000000E+00 -0.45593999997E+02  0.45594000000E+02  0.51100000000E-03 0. -1.
    9900012    2    1    2    0    0  0.52236721667E+01 -0.61780280171E+01 -0.42639985487E+02  0.47787272548E+02  0.20000006854E+02 0.  0.
        -12    1    1    2    0    0 -0.52236721667E+01  0.61780280171E+01  0.42639985487E+02  0.43400727452E+02  0.00000000000E+00 0.  1.
         11    1    3    3    0    0  0.24390418468E+01 -0.33561169013E+00  0.14367660344E-01  0.24620656019E+01  0.51100000000E-03 0. -1.
        -11    1    3    3    0    0 -0.32291166606E+01 -0.22829690504E+01 -0.27578154321E+01  0.48212745526E+01  0.51100000000E-03 0.  1.
         12    1    3    3    0    0  0.60137469805E+01 -0.35594472765E+01 -0.39896537715E+02  0.40503932393E+02  0.00000000000E+00 0. -1.
</event>
<event>
 7    1  0.4236733E-010  0.4778727E+02  0.7816164E-02  0.1312668E+00
        -11   -1    0    0    0    0  0.00000000000E+00  0.00000000000E+00  0.45593999997E+02  0.45594000000E+02  0.51100000000E-03 0.  1.
         11   -1    0    0    0    0 -0.00000000000E+00 -0.00000000000E+00 -0.45593999997E+02  0.45594000000E+02  0.51100000000E-03 0. -1.
    9900012    2    1    2    0    0  0.30507362990E+02  0.15531153411E+01 -0.30830370678E+02  0.47787272817E+02  0.20000008082E+02 0.  0.
        -12    1    1    2    0    0 -0.30507362990E+02 -0.15531153411E+01  0.30830370678E+02  0.43400727183E+02  0.00000000000E+00 0.  1.
         11    1    3    3    0    0  0.54472486713E+01  0.29895122328E+01  0.59964329887E+00  0.62425374507E+01  0.51100000000E-03 0.  1.
        -11    1    3    3    0    0  0.32627398974E+01 -0.28015951753E+01 -0.16314023096E+01  0.45995522523E+01  0.51100000000E-03 0. -1.
         12    1    3    3    0    0  0.21797374421E+02  0.13651982837E+01 -0.29798611667E+02  0.36945183114E+02  0.00000000000E+00 0. -1.
</event>
<event>
 7    1  0.4236733E-010  0.4778727E+02  0.7816164E-02  0.1312668E+00
        -11   -1    0    0    0    0  0.00000000000E+00  0.00000000000E+00  0.45593999997E+02  0.45594000000E+02  0.51100000000E-03 0.  1.
         11   -1    0    0    0    0 -0.00000000000E+00 -0.00000000000E+00 -0.45593999997E+02  0.45594000000E+02  0.51100000000E-03 0. -1.
    9900012    2    1    2    0    0  0.34000924840E+02 -0.23390374402E+02 -0.13433192898E+02  0.47787272171E+02  0.20000005137E+02 0.  0.
        -12    1    1    2    0    0 -0.34000924840E+02  0.23390374402E+02  0.13433192898E+02  0.43400727829E+02  0.00000000000E+00 0.  1.
         11    1    3    3    0    0  0.42067134107E+01  0.15384524124E+01 -0.40189805124E+01  0.60179297241E+01  0.51100000000E-03 0. -1.
        -11    1    3    3    0    0  0.43038359203E+01 -0.25223683021E+01  0.27750868013E+01  0.57084544753E+01  0.51100000000E-03 0.  1.
        -12    1    3    3    0    0  0.25490375509E+02 -0.22406458512E+02 -0.12189299186E+02  0.36060887972E+02  0.00000000000E+00 0.  1.
</event>
<event>
 7    1  0.4236733E-010  0.4778727E+02  0.7816164E-02  0.1312668E+00
        -11   -1    0    0    0    0  0.00000000000E+00  0.00000000000E+00  0.45593999997E+02  0.45594000000E+02  0.51100000000E-03 0.  1.
         11   -1    0    0    0    0 -0.00000000000E+00 -0.00000000000E+00 -0.45593999997E+02  0.45594000000E+02  0.51100000000E-03 0. -1.
    9900012    2    1    2    0    0 -0.40067346834E+02 -0.96885046256E-01 -0.16679980295E+02  0.47787269457E+02  0.19999992763E+02 0.  0.
        -12    1    1    2    0    0  0.40067346834E+02  0.96885046256E-01  0.16679980295E+02  0.43400730543E+02  0.00000000000E+00 0.  1.
         11    1    3    3    0    0 -0.30852858708E+02 -0.47863547501E+00 -0.11272741990E+02  0.32851220596E+02  0.51100000000E-03 0. -1.
        -11    1    3    3    0    0 -0.10427068820E+02  0.10015218107E+01 -0.12354959106E+01  0.10547666117E+02  0.51100000000E-03 0.  1.
        -12    1    3    3    0    0  0.12125806940E+01 -0.61977138190E+00 -0.41717423947E+01  0.43883827446E+01  0.00000000000E+00 0.  1.
</event>
<event>
 7    1  0.4236733E-010  0.4778727E+02  0.7816164E-02  0.1312668E+00
        -11   -1    0    0    0    0  0.00000000000E+00  0.00000000000E+00  0.45593999997E+02  0.45594000000E+02  0.51100000000E-03 0.  1.
         11   -1    0    0    0    0 -0.00000000000E+00 -0.00000000000E+00 -0.45593999997E+02  0.45594000000E+02  0.51100000000E-03 0. -1.
    9900012    2    1    2    0    0 -0.29977077110E+02  0.48545188542E+01 -0.31006964569E+02  0.47787270085E+02  0.19999995626E+02 0.  0.
        -12    1    1    2    0    0  0.29977077110E+02 -0.48545188542E+01  0.31006964569E+02  0.43400729915E+02  0.00000000000E+00 0.  1.
         11    1    3    3    0    0 -0.11293608711E+02 -0.98858882107E+00 -0.13981081938E+02  0.17999821055E+02  0.51100000000E-03 0. -1.
        -11    1    3    3    0    0 -0.14473023667E+02 -0.20749860372E+01 -0.14207817166E+02  0.20387154043E+02  0.51100000000E-03 0.  1.
         12    1    3    3    0    0 -0.42104447320E+01  0.79180937124E+01 -0.28180654652E+01  0.94002949872E+01  0.00000000000E+00 0. -1.
</event>
<event>
 7    1  0.4236733E-010  0.4778727E+02  0.7816164E-02  0.1312668E+00
        -11   -1    0    0    0    0  0.00000000000E+00  0.00000000000E+00  0.45593999997E+02  0.45594000000E+02  0.51100000000E-03 0.  1.
         11   -1    0    0    0    0 -0.00000000000E+00 -0.00000000000E+00 -0.45593999997E+02  0.45594000000E+02  0.51100000000E-03 0. -1.
    9900012    2    1    2    0    0 -0.18003614263E+02 -0.27988296407E+02 -0.27859442780E+02  0.47787269427E+02  0.19999992624E+02 0.  0.
        -12    1    1    2    0    0  0.18003614263E+02  0.27988296407E+02  0.27859442780E+02  0.43400730573E+02  0.00000000000E+00 0.  1.
         11    1    3    3    0    0 -0.16807212620E+01 -0.83855120554E+01 -0.11198389849E+02  0.14090619995E+02  0.51100000000E-03 0. -1.
        -11    1    3    3    0    0  0.17796726524E+00 -0.83957469104E+00  0.22189041324E+01  0.23790951681E+01  0.51100000000E-03 0.  1.
         12    1    3    3    0    0 -0.16500860267E+02 -0.18763209661E+02 -0.18879957063E+02  0.31317554263E+02  0.00000000000E+00 0. -1.
</event>
<event>
 7    1  0.4236733E-010  0.4778727E+02  0.7816164E-02  0.1312668E+00
        -11   -1    0    0    0    0  0.00000000000E+00  0.00000000000E+00  0.45593999997E+02  0.45594000000E+02  0.51100000000E-03 0.  1.
         11   -1    0    0    0    0 -0.00000000000E+00 -0.00000000000E+00 -0.45593999997E+02  0.45594000000E+02  0.51100000000E-03 0. -1.
    9900012    2    1    2    0    0  0.17580302557E+02  0.18922248303E+02 -0.34878429408E+02  0.47787270089E+02  0.19999995646E+02 0.  0.
        -12    1    1    2    0    0 -0.17580302557E+02 -0.18922248303E+02  0.34878429408E+02  0.43400729911E+02  0.00000000000E+00 0.  1.
         11    1    3    3    0    0 -0.23748957241E+00  0.11989271432E+02 -0.13717951262E+02  0.18220351749E+02  0.51100000000E-03 0. -1.
        -11    1    3    3    0    0  0.69871371396E+01  0.55816568051E+01 -0.55702632338E+01  0.10535787149E+02  0.51100000000E-03 0.  1.
        -12    1    3    3    0    0  0.10830654990E+02  0.13513200660E+01 -0.15590214912E+02  0.19031131191E+02  0.00000000000E+00 0.  1.
</event>
<event>
 7    1  0.4236733E-010  0.4778726E+02  0.7816164E-02  0.1312668E+00
        -11   -1    0    0    0    0  0.00000000000E+00  0.00000000000E+00  0.45593999997E+02  0.45594000000E+02  0.51100000000E-03 0. -1.
         11   -1    0    0    0    0 -0.00000000000E+00 -0.00000000000E+00 -0.45593999997E+02  0.45594000000E+02  0.51100000000E-03 0.  1.
    9900012    2    1    2    0    0  0.31371765328E+02  0.27315023503E+02  0.12382479323E+02  0.47787263106E+02  0.19999963806E+02 0.  0.
        -12    1    1    2    0    0 -0.31371765328E+02 -0.27315023503E+02 -0.12382479323E+02  0.43400736894E+02  0.00000000000E+00 0.  1.
         11    1    3    3    0    0  0.11499244471E+02  0.16911218116E+02  0.10386469703E+02  0.22936884591E+02  0.51100000000E-03 0. -1.
        -11    1    3    3    0    0  0.13657770474E+02  0.10310161367E+02  0.51633778778E+01  0.17874411685E+02  0.51100000000E-03 0.  1.
        -12    1    3    3    0    0  0.62147503833E+01  0.93644020006E-01 -0.31673682582E+01  0.69759668300E+01  0.00000000000E+00 0.  1.
</event>
<event>
 7    1  0.4236733E-010  0.4778727E+02  0.7816164E-02  0.1312668E+00
        -11   -1    0    0    0    0  0.00000000000E+00  0.00000000000E+00  0.45593999997E+02  0.45594000000E+02  0.51100000000E-03 0. -1.
         11   -1    0    0    0    0 -0.00000000000E+00 -0.00000000000E+00 -0.45593999997E+02  0.45594000000E+02  0.51100000000E-03 0.  1.
    9900012    2    1    2    0    0 -0.22530029568E+02  0.36790769169E+02 -0.47392344977E+01  0.47787271066E+02  0.20000000098E+02 0.  0.
        -12    1    1    2    0    0  0.22530029568E+02 -0.36790769169E+02  0.47392344977E+01  0.43400728934E+02  0.00000000000E+00 0.  1.
         11    1    3    3    0    0 -0.14548451702E+02  0.31354410989E+02 -0.43505419196E+01  0.34837964216E+02  0.51100000000E-03 0. -1.
        -11    1    3    3    0    0 -0.65117214564E+01  0.72437225799E+01 -0.22151879273E+01  0.99890485510E+01  0.51100000000E-03 0.  1.
        -12    1    3    3    0    0 -0.14698564091E+01 -0.18073644001E+01  0.18264953493E+01  0.29602582994E+01  0.00000000000E+00 0.  1.
</event>
<event>
 7    1  0.4236733E-010  0.4778727E+02  0.7816164E-02  0.1312668E+00
        -11   -1    0    0    0    0  0.00000000000E+00  0.00000000000E+00  0.45593999997E+02  0.45594000000E+02  0.51100000000E-03 0.  1.
         11   -1    0    0    0    0 -0.00000000000E+00 -0.00000000000E+00 -0.45593999997E+02  0.45594000000E+02  0.51100000000E-03 0. -1.
    9900012    2    1    2    0    0 -0.22450422477E+02 -0.35961721745E+02 -0.92928178721E+01  0.47787270004E+02  0.19999995254E+02 0.  0.
        -12    1    1    2    0    0  0.22450422477E+02  0.35961721745E+02  0.92928178721E+01  0.43400729996E+02  0.00000000000E+00 0.  1.
         11    1    3    3    0    0 -0.15652499273E+02 -0.22371142534E+02 -0.23858951337E+01  0.27407321059E+02  0.51100000000E-03 0. -1.
        -11    1    3    3    0    0 -0.65139553387E+01 -0.45987697426E+01  0.14459898545E+01  0.81037759236E+01  0.51100000000E-03 0.  1.
        -12    1    3    3    0    0 -0.28396786478E+00 -0.89918094685E+01 -0.83529125928E+01  0.12276173021E+02  0.00000000000E+00 0.  1.
</event>
<event>
 7    1  0.4236733E-010  0.4778727E+02  0.7816164E-02  0.1312668E+00
        -11   -1    0    0    0    0  0.00000000000E+00  0.00000000000E+00  0.45593999997E+02  0.45594000000E+02  0.51100000000E-03 0. -1.
         11   -1    0    0    0    0 -0.00000000000E+00 -0.00000000000E+00 -0.45593999997E+02  0.45594000000E+02  0.51100000000E-03 0.  1.
    9900012    2    1    2    0    0  0.27370837334E+02  0.23853881465E+02  0.23779263226E+02  0.47787265479E+02  0.19999974626E+02 0.  0.
        -12    1    1    2    0    0 -0.27370837334E+02 -0.23853881465E+02 -0.23779263226E+02  0.43400734521E+02  0.00000000000E+00 0.  1.
         11    1    3    3    0    0  0.10893315921E+02  0.16445745067E+02  0.10300338159E+02  0.22253625076E+02  0.51100000000E-03 0. -1.
        -11    1    3    3    0    0  0.90806893654E+01  0.86832781099E+01  0.34917731058E+01  0.13040349603E+02  0.51100000000E-03 0.  1.
        -12    1    3    3    0    0  0.73968320484E+01 -0.12751417114E+01  0.99871519610E+01  0.12493290801E+02  0.00000000000E+00 0.  1.
</event>
<event>
 7    1  0.4236733E-010  0.4778727E+02  0.7816164E-02  0.1312668E+00
        -11   -1    0    0    0    0  0.00000000000E+00  0.00000000000E+00  0.45593999997E+02  0.45594000000E+02  0.51100000000E-03 0.  1.
         11   -1    0    0    0    0 -0.00000000000E+00 -0.00000000000E+00 -0.45593999997E+02  0.45594000000E+02  0.51100000000E-03 0. -1.
    9900012    2    1    2    0    0  0.33816446585E+02 -0.22050308773E+02 -0.15932839652E+02  0.47787267795E+02  0.19999985184E+02 0.  0.
        -12    1    1    2    0    0 -0.33816446585E+02  0.22050308773E+02  0.15932839652E+02  0.43400732205E+02  0.00000000000E+00 0.  1.
         11    1    3    3    0    0  0.50592869182E+01 -0.72829236236E+01  0.64872843027E+00  0.88914683526E+01  0.51100000000E-03 0. -1.
        -11    1    3    3    0    0  0.16506098719E+01  0.92987638277E+00  0.17696065321E+01  0.25924294737E+01  0.51100000000E-03 0.  1.
         12    1    3    3    0    0  0.27106549795E+02 -0.15697261532E+02 -0.18351174614E+02  0.36303369969E+02  0.00000000000E+00 0. -1.
</event>
<event>
 7    1  0.4236733E-010  0.4778727E+02  0.7816164E-02  0.1312668E+00
        -11   -1    0    0    0    0  0.00000000000E+00  0.00000000000E+00  0.45593999997E+02  0.45594000000E+02  0.51100000000E-03 0.  1.
         11   -1    0    0    0    0 -0.00000000000E+00 -0.00000000000E+00 -0.45593999997E+02  0.45594000000E+02  0.51100000000E-03 0. -1.
    9900012    2    1    2    0    0  0.22890238831E+02  0.35783751187E+02  0.88985183464E+01  0.47787268307E+02  0.19999987518E+02 0.  0.
        -12    1    1    2    0    0 -0.22890238831E+02 -0.35783751187E+02 -0.88985183464E+01  0.43400731693E+02  0.00000000000E+00 0.  1.
         11    1    3    3    0    0  0.15203323620E+02  0.25617088867E+02  0.64916746402E+01  0.30487999787E+02  0.51100000000E-03 0. -1.
        -11    1    3    3    0    0  0.94426650590E+01  0.66756738113E+01 -0.16329228168E+01  0.11678826201E+02  0.51100000000E-03 0.  1.
         12    1    3    3    0    0 -0.17557498481E+01  0.34909885087E+01  0.40397665230E+01  0.56204423187E+01  0.00000000000E+00 0. -1.
</event>
<event>
 7    1  0.4236733E-010  0.4778727E+02  0.7816164E-02  0.1312668E+00
        -11   -1    0    0    0    0  0.00000000000E+00  0.00000000000E+00  0.45593999997E+02  0.45594000000E+02  0.51100000000E-03 0. -1.
         11   -1    0    0    0    0 -0.00000000000E+00 -0.00000000000E+00 -0.45593999997E+02  0.45594000000E+02  0.51100000000E-03 0.  1.
    9900012    2    1    2    0    0 -0.13838500838E+02 -0.29379357441E+02 -0.28791882027E+02  0.47787271668E+02  0.20000002845E+02 0.  0.
        -12    1    1    2    0    0  0.13838500838E+02  0.29379357441E+02  0.28791882027E+02  0.43400728332E+02  0.00000000000E+00 0.  1.
         11    1    3    3    0    0 -0.10551250048E+02 -0.26860535758E+02 -0.18375975716E+02  0.34212479339E+02  0.51100000000E-03 0. -1.
        -11    1    3    3    0    0 -0.12562437656E+01 -0.18372884936E+01  0.63788825703E+00  0.23153140385E+01  0.51100000000E-03 0.  1.
        -12    1    3    3    0    0 -0.20310070251E+01 -0.68153318898E+00 -0.11053794568E+02  0.11259478291E+02  0.00000000000E+00 0.  1.
</event>
<event>
 7    1  0.4236733E-010  0.4778728E+02  0.7816164E-02  0.1312668E+00
        -11   -1    0    0    0    0  0.00000000000E+00  0.00000000000E+00  0.45593999997E+02  0.45594000000E+02  0.51100000000E-03 0. -1.
         11   -1    0    0    0    0 -0.00000000000E+00 -0.00000000000E+00 -0.45593999997E+02  0.45594000000E+02  0.51100000000E-03 0.  1.
    9900012    2    1    2    0    0 -0.38706948382E+01 -0.17279820927E+02  0.39623836338E+02  0.47787275398E+02  0.20000019849E+02 0.  0.
        -12    1    1    2    0    0  0.38706948382E+01  0.17279820927E+02 -0.39623836338E+02  0.43400724602E+02  0.00000000000E+00 0.  1.
         11    1    3    3    0    0 -0.65173757297E+01 -0.81822626192E+01  0.10346868107E+02  0.14713371057E+02  0.51100000000E-03 0. -1.
        -11    1    3    3    0    0 -0.10696458493E+01  0.18357802673E+01  0.67585757603E+00  0.22295773494E+01  0.51100000000E-03 0.  1.
         12    1    3    3    0    0  0.37163267408E+01 -0.10933338576E+02  0.28601110655E+02  0.30844326991E+02  0.00000000000E+00 0. -1.
</event>
<event>
 7    1  0.4236733E-010  0.4778727E+02  0.7816164E-02  0.1312668E+00
        -11   -1    0    0    0    0  0.00000000000E+00  0.00000000000E+00  0.45593999997E+02  0.45594000000E+02  0.51100000000E-03 0.  1.
         11   -1    0    0    0    0 -0.00000000000E+00 -0.00000000000E+00 -0.45593999997E+02  0.45594000000E+02  0.51100000000E-03 0. -1.
    9900012    2    1    2    0    0 -0.39556937759E+02  0.79708884399E+01 -0.15979256160E+02  0.47787274029E+02  0.20000013606E+02 0.  0.
        -12    1    1    2    0    0  0.39556937759E+02 -0.79708884399E+01  0.15979256160E+02  0.43400725971E+02  0.00000000000E+00 0.  1.
         11    1    3    3    0    0 -0.27901929597E+02  0.50967349166E+01 -0.79009046197E+01  0.29443482744E+02  0.51100000000E-03 0. -1.
        -11    1    3    3    0    0 -0.65237210677E+01  0.62863706109E+01 -0.12491811946E+01  0.91453729254E+01  0.51100000000E-03 0.  1.
         12    1    3    3    0    0 -0.51312870950E+01 -0.34122170876E+01 -0.68291703456E+01  0.91984183594E+01  0.00000000000E+00 0. -1.
</event>
<event>
 7    1  0.4236733E-010  0.4778727E+02  0.7816164E-02  0.1312668E+00
        -11   -1    0    0    0    0  0.00000000000E+00  0.00000000000E+00  0.45593999997E+02  0.45594000000E+02  0.51100000000E-03 0. -1.
         11   -1    0    0    0    0 -0.00000000000E+00 -0.00000000000E+00 -0.45593999997E+02  0.45594000000E+02  0.51100000000E-03 0.  1.
    9900012    2    1    2    0    0  0.19930489821E+02 -0.23845747065E+02  0.30294874052E+02  0.47787268769E+02  0.19999989625E+02 0.  0.
        -12    1    1    2    0    0 -0.19930489821E+02  0.23845747065E+02 -0.30294874052E+02  0.43400731231E+02  0.00000000000E+00 0.  1.
         11    1    3    3    0    0  0.15467298035E+02 -0.14888947712E+02  0.18154594228E+02  0.28115962803E+02  0.51100000000E-03 0. -1.
        -11    1    3    3    0    0  0.72904872623E+01 -0.14740811584E+01  0.65666495408E+01  0.99219456880E+01  0.51100000000E-03 0.  1.
        -12    1    3    3    0    0 -0.28272954771E+01 -0.74827181953E+01  0.55736302824E+01  0.97493602779E+01  0.00000000000E+00 0.  1.
</event>
<event>
 7    1  0.4236733E-010  0.4778727E+02  0.7816164E-02  0.1312668E+00
        -11   -1    0    0    0    0  0.00000000000E+00  0.00000000000E+00  0.45593999997E+02  0.45594000000E+02  0.51100000000E-03 0.  1.
         11   -1    0    0    0    0 -0.00000000000E+00 -0.00000000000E+00 -0.45593999997E+02  0.45594000000E+02  0.51100000000E-03 0. -1.
    9900012    2    1    2    0    0 -0.34482001940E+02 -0.10238216427E+02 -0.24285670693E+02  0.47787270348E+02  0.19999996823E+02 0.  0.
        -12    1    1    2    0    0  0.34482001940E+02  0.10238216427E+02  0.24285670693E+02  0.43400729652E+02  0.00000000000E+00 0.  1.
         11    1    3    3    0    0 -0.20580060680E+02 -0.40504651465E+01 -0.19640930040E+02  0.28735192684E+02  0.51100000000E-03 0. -1.
        -11    1    3    3    0    0 -0.12790338148E+02 -0.43232200385E+01 -0.75162389930E+01  0.15452405324E+02  0.51100000000E-03 0.  1.
        -12    1    3    3    0    0 -0.11116031121E+01 -0.18645312416E+01  0.28714983409E+01  0.35996723394E+01  0.00000000000E+00 0.  1.
</event>
<event>
 7    1  0.4236733E-010  0.4778726E+02  0.7816164E-02  0.1312668E+00
        -11   -1    0    0    0    0  0.00000000000E+00  0.00000000000E+00  0.45593999997E+02  0.45594000000E+02  0.51100000000E-03 0. -1.
         11   -1    0    0    0    0 -0.00000000000E+00 -0.00000000000E+00 -0.45593999997E+02  0.45594000000E+02  0.51100000000E-03 0.  1.
    9900012    2    1    2    0    0 -0.18992244540E+00 -0.37730517040E+02 -0.21447516351E+02  0.47787263321E+02  0.19999964786E+02 0.  0.
        -12    1    1    2    0    0  0.18992244540E+00  0.37730517040E+02  0.21447516351E+02  0.43400736679E+02  0.00000000000E+00 0.  1.
         11    1    3    3    0    0 -0.11533698914E+01 -0.22644699538E+02 -0.20107160625E+02  0.30305289769E+02  0.51100000000E-03 0.  1.
        -11    1    3    3    0    0  0.38529363260E+01 -0.12910469796E+02 -0.24599075433E+01  0.13695856821E+02  0.51100000000E-03 0. -1.
        -12    1    3    3    0    0 -0.28894888800E+01 -0.21753477057E+01  0.11195518178E+01  0.37861167310E+01  0.00000000000E+00 0.  1.
</event>
<event>
 7    1  0.4236733E-010  0.4778727E+02  0.7816164E-02  0.1312668E+00
        -11   -1    0    0    0    0  0.00000000000E+00  0.00000000000E+00  0.45593999997E+02  0.45594000000E+02  0.51100000000E-03 0.  1.
         11   -1    0    0    0    0 -0.00000000000E+00 -0.00000000000E+00 -0.45593999997E+02  0.45594000000E+02  0.51100000000E-03 0. -1.
    9900012    2    1    2    0    0  0.75793404688E+01  0.90126950290E+01 -0.41772579945E+02  0.47787268337E+02  0.19999987657E+02 0.  0.
        -12    1    1    2    0    0 -0.75793404688E+01 -0.90126950290E+01  0.41772579945E+02  0.43400731663E+02  0.00000000000E+00 0.  1.
         11    1    3    3    0    0  0.29779454213E+01  0.91658332166E+01 -0.10832494927E+02  0.14499089768E+02  0.51100000000E-03 0. -1.
        -11    1    3    3    0    0  0.26280282050E+01 -0.22550885828E+01 -0.16137987410E+01  0.38205108821E+01  0.51100000000E-03 0.  1.
        -12    1    3    3    0    0  0.19733668426E+01  0.21019503952E+01 -0.29326286276E+02  0.29467667687E+02  0.00000000000E+00 0.  1.
</event>
<event>
 7    1  0.4236733E-010  0.4778728E+02  0.7816164E-02  0.1312668E+00
        -11   -1    0    0    0    0  0.00000000000E+00  0.00000000000E+00  0.45593999997E+02  0.45594000000E+02  0.51100000000E-03 0.  1.
         11   -1    0    0    0    0 -0.00000000000E+00 -0.00000000000E+00 -0.45593999997E+02  0.45594000000E+02  0.51100000000E-03 0. -1.
    9900012    2    1    2    0    0 -0.17991958629E+02  0.95767792356E+01 -0.38317058299E+02  0.47787283042E+02  0.20000054701E+02 0.  0.
        -12    1    1    2    0    0  0.17991958629E+02 -0.95767792356E+01  0.38317058299E+02  0.43400716958E+02  0.00000000000E+00 0.  1.
         11    1    3    3    0    0 -0.58460420212E+01  0.15821743088E+01 -0.18318636166E+02  0.19293830986E+02  0.51100000000E-03 0. -1.
        -11    1    3    3    0    0 -0.73265469955E+01 -0.12443021599E+01 -0.15408574279E+02  0.17107037742E+02  0.51100000000E-03 0.  1.
        -12    1    3    3    0    0 -0.48193696117E+01  0.92389070867E+01 -0.45898478539E+01  0.11386414314E+02  0.00000000000E+00 0.  1.
</event>
<event>
 7    1  0.5790890E-010  0.4778727E+02  0.7816164E-02  0.1312668E+00
        -11   -1    0    0    0    0  0.00000000000E+00  0.00000000000E+00  0.45593999997E+02  0.45594000000E+02  0.51100000000E-03 0.  1.
         11   -1    0    0    0    0 -0.00000000000E+00 -0.00000000000E+00 -0.45593999997E+02  0.45594000000E+02  0.51100000000E-03 0. -1.
    9900012    2    1    2    0    0 -0.33312241290E+02  0.21964182515E+02 -0.17073144117E+02  0.47787274391E+02  0.20000015259E+02 0.  0.
        -12    1    1    2    0    0  0.33312241290E+02 -0.21964182515E+02  0.17073144117E+02  0.43400725609E+02  0.00000000000E+00 0.  1.
         11    1    3    3    0    0 -0.17841185193E+02  0.15452310853E+02 -0.13521424847E+02  0.27201300152E+02  0.51100000000E-03 0. -1.
        -11    1    3    3    0    0 -0.13193259105E+02  0.92193106951E+01 -0.82030245880E+00  0.16116161822E+02  0.51100000000E-03 0.  1.
        -12    1    3    3    0    0 -0.22777969922E+01 -0.27074390321E+01 -0.27314168107E+01  0.44698124171E+01  0.00000000000E+00 0.  1.
</event>
<event>
 7    1  0.4236733E-010  0.4778726E+02  0.7816164E-02  0.1312668E+00
        -11   -1    0    0    0    0  0.00000000000E+00  0.00000000000E+00  0.45593999997E+02  0.45594000000E+02  0.51100000000E-03 0.  1.
         11   -1    0    0    0    0 -0.00000000000E+00 -0.00000000000E+00 -0.45593999997E+02  0.45594000000E+02  0.51100000000E-03 0. -1.
    9900012    2    1    2    0    0 -0.24173007171E+02  0.21937161349E+02 -0.28601587541E+02  0.47787261140E+02  0.19999954840E+02 0.  0.
        -12    1    1    2    0    0  0.24173007171E+02 -0.21937161349E+02  0.28601587541E+02  0.43400738860E+02  0.00000000000E+00 0.  1.
         11    1    3    3    0    0 -0.43202936383E+01  0.40359298027E+01 -0.44898231760E+01  0.74237577349E+01  0.51100000000E-03 0. -1.
        -11    1    3    3    0    0 -0.91258030069E+01  0.25210884341E+01  0.43073067477E+00  0.94774309065E+01  0.51100000000E-03 0.  1.
        -12    1    3    3    0    0 -0.10726910526E+02  0.15380143112E+02 -0.24542495040E+02  0.30886072498E+02  0.00000000000E+00 0.  1.
</event>
<event>
 7    1  0.4236733E-010  0.4778727E+02  0.7816164E-02  0.1312668E+00
        -11   -1    0    0    0    0  0.00000000000E+00  0.00000000000E+00  0.45593999997E+02  0.45594000000E+02  0.51100000000E-03 0. -1.
         11   -1    0    0    0    0 -0.00000000000E+00 -0.00000000000E+00 -0.45593999997E+02  0.45594000000E+02  0.51100000000E-03 0.  1.
    9900012    2    1    2    0    0  0.28724759552E+02  0.26951265048E+02  0.18224734122E+02  0.47787269213E+02  0.19999991650E+02 0.  0.
        -12    1    1    2    0    0 -0.28724759552E+02 -0.26951265048E+02 -0.18224734122E+02  0.43400730787E+02  0.00000000000E+00 0.  1.
         11    1    3    3    0    0  0.21906062927E+02  0.19618254300E+02  0.18756382469E+02  0.34879125252E+02  0.51100000000E-03 0. -1.
        -11    1    3    3    0    0  0.99904571615E+00 -0.87693857880E+00  0.21190716514E+01  0.25015152485E+01  0.51100000000E-03 0.  1.
        -12    1    3    3    0    0  0.58196509092E+01  0.82099493271E+01 -0.26507199985E+01  0.10406628713E+02  0.00000000000E+00 0.  1.
</event>
<event>
 7    1  0.4236733E-010  0.4778727E+02  0.7816164E-02  0.1312668E+00
        -11   -1    0    0    0    0  0.00000000000E+00  0.00000000000E+00  0.45593999997E+02  0.45594000000E+02  0.51100000000E-03 0.  1.
         11   -1    0    0    0    0 -0.00000000000E+00 -0.00000000000E+00 -0.45593999997E+02  0.45594000000E+02  0.51100000000E-03 0. -1.
    9900012    2    1    2    0    0  0.38603908290E+01 -0.36913099600E+02 -0.22497633848E+02  0.47787273414E+02  0.20000010805E+02 0.  0.
        -12    1    1    2    0    0 -0.38603908290E+01  0.36913099600E+02  0.22497633848E+02  0.43400726586E+02  0.00000000000E+00 0.  1.
         11    1    3    3    0    0 -0.29772643642E+01 -0.39703211871E+01 -0.33193189821E+01  0.59703795682E+01  0.51100000000E-03 0. -1.
        -11    1    3    3    0    0  0.71640254329E+01 -0.15165603993E+02 -0.17037918231E+02  0.23908355502E+02  0.51100000000E-03 0.  1.
        -12    1    3    3    0    0 -0.32637023971E+00 -0.17777174420E+02 -0.21403966350E+01  0.17908538344E+02  0.00000000000E+00 0.  1.
</event>
<event>
 7    1  0.4236733E-010  0.4778727E+02  0.7816164E-02  0.1312668E+00
        -11   -1    0    0    0    0  0.00000000000E+00  0.00000000000E+00  0.45593999997E+02  0.45594000000E+02  0.51100000000E-03 0. -1.
         11   -1    0    0    0    0 -0.00000000000E+00 -0.00000000000E+00 -0.45593999997E+02  0.45594000000E+02  0.51100000000E-03 0.  1.
    9900012    2    1    2    0    0 -0.78224844203E+01  0.41984964902E+02 -0.77262286536E+01  0.47787272477E+02  0.20000006533E+02 0.  0.
        -12    1    1    2    0    0  0.78224844203E+01 -0.41984964902E+02  0.77262286536E+01  0.43400727523E+02  0.00000000000E+00 0.  1.
         11    1    3    3    0    0  0.19867160467E+00  0.25330118113E+01 -0.29259098636E+01  0.38751216798E+01  0.51100000000E-03 0. -1.
        -11    1    3    3    0    0  0.53230866439E+01  0.11648268717E+02 -0.15964295384E+01  0.12906045214E+02  0.51100000000E-03 0.  1.
         12    1    3    3    0    0 -0.13344242669E+02  0.27803684373E+02 -0.32038892516E+01  0.31006105584E+02  0.00000000000E+00 0. -1.
</event>
<event>
 7    1  0.4236733E-010  0.4778727E+02  0.7816164E-02  0.1312668E+00
        -11   -1    0    0    0    0  0.00000000000E+00  0.00000000000E+00  0.45593999997E+02  0.45594000000E+02  0.51100000000E-03 0. -1.
         11   -1    0    0    0    0 -0.00000000000E+00 -0.00000000000E+00 -0.45593999997E+02  0.45594000000E+02  0.51100000000E-03 0.  1.
    9900012    2    1    2    0    0  0.18312445548E+02  0.30990735993E+02  0.24245655100E+02  0.47787272234E+02  0.20000005425E+02 0.  0.
        -12    1    1    2    0    0 -0.18312445548E+02 -0.30990735993E+02 -0.24245655100E+02  0.43400727766E+02  0.00000000000E+00 0.  1.
         11    1    3    3    0    0  0.13834638159E+02  0.15979458256E+02  0.95013922350E+01  0.23173621940E+02  0.51100000000E-03 0. -1.
        -11    1    3    3    0    0  0.69314880970E+01  0.96332731664E+01  0.43193917490E+01  0.12629434844E+02  0.51100000000E-03 0.  1.
        -12    1    3    3    0    0 -0.24536807075E+01  0.53780045709E+01  0.10424871116E+02  0.11984215451E+02  0.00000000000E+00 0.  1.
</event>
<event>
 7    1  0.4236733E-010  0.4778726E+02  0.7816164E-02  0.1312668E+00
        -11   -1    0    0    0    0  0.00000000000E+00  0.00000000000E+00  0.45593999997E+02  0.45594000000E+02  0.51100000000E-03 0. -1.
         11   -1    0    0    0    0 -0.00000000000E+00 -0.00000000000E+00 -0.45593999997E+02  0.45594000000E+02  0.51100000000E-03 0.  1.
    9900012    2    1    2    0    0  0.29932660367E+02  0.30910228751E+02  0.56760489849E+01  0.47787263484E+02  0.19999965528E+02 0.  0.
        -12    1    1    2    0    0 -0.29932660367E+02 -0.30910228751E+02 -0.56760489849E+01  0.43400736516E+02  0.00000000000E+00 0.  1.
         11    1    3    3    0    0  0.23234290896E+02  0.14836464982E+02  0.43475714634E+01  0.27907962027E+02  0.51100000000E-03 0. -1.
        -11    1    3    3    0    0  0.88206944450E+01  0.14726725840E+02  0.31556454128E+00  0.17169178364E+02  0.51100000000E-03 0.  1.
        -12    1    3    3    0    0 -0.21223249735E+01  0.13470379287E+01  0.10129129802E+01  0.27101230932E+01  0.00000000000E+00 0.  1.
</event>
<event>
 7    1  0.4236733E-010  0.4778727E+02  0.7816164E-02  0.1312668E+00
        -11   -1    0    0    0    0  0.00000000000E+00  0.00000000000E+00  0.45593999997E+02  0.45594000000E+02  0.51100000000E-03 0.  1.
         11   -1    0    0    0    0 -0.00000000000E+00 -0.00000000000E+00 -0.45593999997E+02  0.45594000000E+02  0.51100000000E-03 0. -1.
    9900012    2    1    2    0    0 -0.19579219586E+02  0.76693401092E+01 -0.37966543301E+02  0.47787273882E+02  0.20000012939E+02 0.  0.
        -12    1    1    2    0    0  0.19579219586E+02 -0.76693401092E+01  0.37966543301E+02  0.43400726118E+02  0.00000000000E+00 0.  1.
         11    1    3    3    0    0 -0.78490987510E+01  0.21596705018E+01 -0.19078970768E+02  0.20743183307E+02  0.51100000000E-03 0. -1.
        -11    1    3    3    0    0 -0.18202444075E+01 -0.10194174771E+01 -0.14090051718E+02  0.14243667342E+02  0.51100000000E-03 0.  1.
         12    1    3    3    0    0 -0.99098764275E+01  0.65290870845E+01 -0.47975208157E+01  0.12800423233E+02  0.00000000000E+00 0. -1.
</event>
<event>
 7    1  0.4236733E-010  0.4778727E+02  0.7816164E-02  0.1312668E+00
        -11   -1    0    0    0    0  0.00000000000E+00  0.00000000000E+00  0.45593999997E+02  0.45594000000E+02  0.51100000000E-03 0.  1.
         11   -1    0    0    0    0 -0.00000000000E+00 -0.00000000000E+00 -0.45593999997E+02  0.45594000000E+02  0.51100000000E-03 0. -1.
    9900012    2    1    2    0    0 -0.21216514893E+02  0.32352241826E+02 -0.19667616374E+02  0.47787272020E+02  0.20000004448E+02 0.  0.
        -12    1    1    2    0    0  0.21216514893E+02 -0.32352241826E+02  0.19667616374E+02  0.43400727980E+02  0.00000000000E+00 0.  1.
         11    1    3    3    0    0 -0.12082202433E+02  0.27861575276E+02 -0.19382029062E+02  0.36026518613E+02  0.51100000000E-03 0. -1.
        -11    1    3    3    0    0 -0.24904306175E+01  0.24214843986E+01 -0.26953519467E+01  0.43966753042E+01  0.51100000000E-03 0.  1.
        -12    1    3    3    0    0 -0.66438818424E+01  0.20691821510E+01  0.24097646353E+01  0.73640781030E+01  0.00000000000E+00 0.  1.
</event>
<event>
 7    1  0.4236733E-010  0.4778727E+02  0.7816164E-02  0.1312668E+00
        -11   -1    0    0    0    0  0.00000000000E+00  0.00000000000E+00  0.45593999997E+02  0.45594000000E+02  0.51100000000E-03 0. -1.
         11   -1    0    0    0    0 -0.00000000000E+00 -0.00000000000E+00 -0.45593999997E+02  0.45594000000E+02  0.51100000000E-03 0.  1.
    9900012    2    1    2    0    0 -0.16478188116E+02 -0.28349663430E+01  0.40050662367E+02  0.47787271045E+02  0.20000000003E+02 0.  0.
        -12    1    1    2    0    0  0.16478188116E+02  0.28349663430E+01 -0.40050662367E+02  0.43400728955E+02  0.00000000000E+00 0.  1.
         11    1    3    3    0    0 -0.12922018528E+02 -0.49138457609E+01  0.28059487537E+02  0.31280333823E+02  0.51100000000E-03 0.  1.
        -11    1    3    3    0    0 -0.35014792174E+01  0.55033784314E+00  0.13736397996E+02  0.14186326466E+02  0.51100000000E-03 0. -1.
        -12    1    3    3    0    0 -0.54690370707E-01  0.15285415748E+01 -0.17452231651E+01  0.23206107555E+01  0.00000000000E+00 0.  1.
</event>
<event>
 7    1  0.4236733E-010  0.4778726E+02  0.7816164E-02  0.1312668E+00
        -11   -1    0    0    0    0  0.00000000000E+00  0.00000000000E+00  0.45593999997E+02  0.45594000000E+02  0.51100000000E-03 0. -1.
         11   -1    0    0    0    0 -0.00000000000E+00 -0.00000000000E+00 -0.45593999997E+02  0.45594000000E+02  0.51100000000E-03 0.  1.
    9900012    2    1    2    0    0 -0.10252959368E+02 -0.24143782789E+02  0.34577137396E+02  0.47787264365E+02  0.19999969548E+02 0.  0.
        -12    1    1    2    0    0  0.10252959368E+02  0.24143782789E+02 -0.34577137396E+02  0.43400735635E+02  0.00000000000E+00 0.  1.
         11    1    3    3    0    0  0.51423602587E+00 -0.43802823252E+01  0.54134786296E+00  0.44434637063E+01  0.51100000000E-03 0. -1.
        -11    1    3    3    0    0 -0.50410303269E+01 -0.17639964161E+01  0.12169887805E+01  0.54776575345E+01  0.51100000000E-03 0.  1.
         12    1    3    3    0    0 -0.57261650675E+01 -0.17999504047E+02  0.32818800752E+02  0.37866143125E+02  0.00000000000E+00 0. -1.
</event>
<event>
 7    1  0.4236733E-010  0.4778727E+02  0.7816164E-02  0.1312668E+00
        -11   -1    0    0    0    0  0.00000000000E+00  0.00000000000E+00  0.45593999997E+02  0.45594000000E+02  0.51100000000E-03 0.  1.
         11   -1    0    0    0    0 -0.00000000000E+00 -0.00000000000E+00 -0.45593999997E+02  0.45594000000E+02  0.51100000000E-03 0. -1.
    9900012    2    1    2    0    0 -0.44013336683E+01  0.28777251703E+02 -0.32188843542E+02  0.47787267262E+02  0.19999982754E+02 0.  0.
        -12    1    1    2    0    0  0.44013336683E+01 -0.28777251703E+02  0.32188843542E+02  0.43400732738E+02  0.00000000000E+00 0.  1.
         11    1    3    3    0    0  0.10353092282E+01  0.88591400016E+01 -0.14203868262E+02  0.16772182346E+02  0.51100000000E-03 0. -1.
        -11    1    3    3    0    0 -0.83505771899E+01  0.71057502517E+01 -0.12889154121E+02  0.16922001071E+02  0.51100000000E-03 0.  1.
         12    1    3    3    0    0  0.29139342934E+01  0.12812361450E+02 -0.50958211589E+01  0.14093083845E+02  0.00000000000E+00 0. -1.
</event>
<event>
 7    1  0.4236733E-010  0.4778727E+02  0.7816164E-02  0.1312668E+00
        -11   -1    0    0    0    0  0.00000000000E+00  0.00000000000E+00  0.45593999997E+02  0.45594000000E+02  0.51100000000E-03 0. -1.
         11   -1    0    0    0    0 -0.00000000000E+00 -0.00000000000E+00 -0.45593999997E+02  0.45594000000E+02  0.51100000000E-03 0.  1.
    9900012    2    1    2    0    0 -0.29303627889E+02  0.32002080710E+02  0.88749868902E+00  0.47787269233E+02  0.19999991740E+02 0.  0.
        -12    1    1    2    0    0  0.29303627889E+02 -0.32002080710E+02 -0.88749868902E+00  0.43400730767E+02  0.00000000000E+00 0.  1.
         11    1    3    3    0    0 -0.29085885132E+01  0.71645249625E+01  0.19906852991E+01  0.79845559237E+01  0.51100000000E-03 0. -1.
        -11    1    3    3    0    0 -0.12977677299E+02  0.12767299408E+02  0.76467946162E+01  0.19745822606E+02  0.51100000000E-03 0.  1.
        -12    1    3    3    0    0 -0.13417362077E+02  0.12070256340E+02 -0.87499812263E+01  0.20056890703E+02  0.00000000000E+00 0.  1.
</event>
<event>
 7    1  0.4236733E-010  0.4778727E+02  0.7816164E-02  0.1312668E+00
        -11   -1    0    0    0    0  0.00000000000E+00  0.00000000000E+00  0.45593999997E+02  0.45594000000E+02  0.51100000000E-03 0.  1.
         11   -1    0    0    0    0 -0.00000000000E+00 -0.00000000000E+00 -0.45593999997E+02  0.45594000000E+02  0.51100000000E-03 0. -1.
    9900012    2    1    2    0    0  0.36377958020E+02 -0.20102254535E+02 -0.12496677381E+02  0.47787269445E+02  0.19999992710E+02 0.  0.
        -12    1    1    2    0    0 -0.36377958020E+02  0.20102254535E+02  0.12496677381E+02  0.43400730555E+02  0.00000000000E+00 0.  1.
         11    1    3    3    0    0  0.26536115642E+02 -0.13590158539E+02 -0.53041233995E+01  0.30281868631E+02  0.51100000000E-03 0. -1.
        -11    1    3    3    0    0  0.39530588435E+01  0.10788459661E+01  0.16792373239E+01  0.44283655100E+01  0.51100000000E-03 0.  1.
         12    1    3    3    0    0  0.58887835346E+01 -0.75909419622E+01 -0.88717913056E+01  0.13077035305E+02  0.00000000000E+00 0. -1.
</event>
<event>
 7    1  0.4236733E-010  0.4778725E+02  0.7816164E-02  0.1312668E+00
        -11   -1    0    0    0    0  0.00000000000E+00  0.00000000000E+00  0.45593999997E+02  0.45594000000E+02  0.51100000000E-03 0.  1.
         11   -1    0    0    0    0 -0.00000000000E+00 -0.00000000000E+00 -0.45593999997E+02  0.45594000000E+02  0.51100000000E-03 0. -1.
    9900012    2    1    2    0    0  0.22274200746E+02 -0.19528574111E+02 -0.31719398148E+02  0.47787246037E+02  0.19999885981E+02 0.  0.
        -12    1    1    2    0    0 -0.22274200746E+02  0.19528574111E+02  0.31719398148E+02  0.43400753963E+02  0.00000000000E+00 0.  1.
         11    1    3    3    0    0  0.13924402309E+01 -0.68445687432E+01 -0.80735572431E+01  0.10675642271E+02  0.51100000000E-03 0. -1.
        -11    1    3    3    0    0 -0.59647425523E+00  0.14487174310E+01 -0.52994549760E+01  0.55261910061E+01  0.51100000000E-03 0.  1.
        -12    1    3    3    0    0  0.21478234771E+02 -0.14132722799E+02 -0.18346385929E+02  0.31585412760E+02  0.00000000000E+00 0.  1.
</event>
<event>
 7    1  0.4236733E-010  0.4778727E+02  0.7816164E-02  0.1312668E+00
        -11   -1    0    0    0    0  0.00000000000E+00  0.00000000000E+00  0.45593999997E+02  0.45594000000E+02  0.51100000000E-03 0. -1.
         11   -1    0    0    0    0 -0.00000000000E+00 -0.00000000000E+00 -0.45593999997E+02  0.45594000000E+02  0.51100000000E-03 0.  1.
    9900012    2    1    2    0    0 -0.39255346265E+02  0.52289323527E+01  0.17756669806E+02  0.47787271129E+02  0.20000000387E+02 0.  0.
        -12    1    1    2    0    0  0.39255346265E+02 -0.52289323527E+01 -0.17756669806E+02  0.43400728871E+02  0.00000000000E+00 0.  1.
         11    1    3    3    0    0 -0.10277532170E+02  0.31586788503E+01  0.12204617565E+02  0.16265227012E+02  0.51100000000E-03 0. -1.
        -11    1    3    3    0    0 -0.92099757843E+01  0.22351896445E+01  0.68764596789E+01  0.11709202563E+02  0.51100000000E-03 0.  1.
        -12    1    3    3    0    0 -0.19767838310E+02 -0.16493614213E+00 -0.13244074374E+01  0.19812841554E+02  0.00000000000E+00 0.  1.
</event>
<event>
 7    1  0.4236733E-010  0.4778728E+02  0.7816164E-02  0.1312668E+00
        -11   -1    0    0    0    0  0.00000000000E+00  0.00000000000E+00  0.45593999997E+02  0.45594000000E+02  0.51100000000E-03 0.  1.
         11   -1    0    0    0    0 -0.00000000000E+00 -0.00000000000E+00 -0.45593999997E+02  0.45594000000E+02  0.51100000000E-03 0. -1.
    9900012    2    1    2    0    0 -0.23954666408E+02 -0.35104072482E+02  0.88034443990E+01  0.47787279029E+02  0.20000036406E+02 0.  0.
        -12    1    1    2    0    0  0.23954666408E+02  0.35104072482E+02 -0.88034443990E+01  0.43400720971E+02  0.00000000000E+00 0.  1.
         11    1    3    3    0    0 -0.16933648964E+01 -0.46149917845E+01  0.34998873947E+01  0.60344714665E+01  0.51100000000E-03 0. -1.
        -11    1    3    3    0    0 -0.14587276789E+02 -0.16696273550E+02  0.11279707768E+02  0.24875409588E+02  0.51100000000E-03 0.  1.
         12    1    3    3    0    0 -0.76740247220E+01 -0.13792807147E+02 -0.59761507640E+01  0.16877397975E+02  0.00000000000E+00 0. -1.
</event>
<event>
 7    1  0.4236733E-010  0.4778727E+02  0.7816164E-02  0.1312668E+00
        -11   -1    0    0    0    0  0.00000000000E+00  0.00000000000E+00  0.45593999997E+02  0.45594000000E+02  0.51100000000E-03 0. -1.
         11   -1    0    0    0    0 -0.00000000000E+00 -0.00000000000E+00 -0.45593999997E+02  0.45594000000E+02  0.51100000000E-03 0.  1.
    9900012    2    1    2    0    0 -0.11410835086E+01  0.37660888403E+02  0.21540166265E+02  0.47787270172E+02  0.19999996021E+02 0.  0.
        -12    1    1    2    0    0  0.11410835086E+01 -0.37660888403E+02 -0.21540166265E+02  0.43400729828E+02  0.00000000000E+00 0.  1.
         11    1    3    3    0    0  0.13606346202E+01  0.25195710433E+02  0.12837233926E+02  0.28310240655E+02  0.51100000000E-03 0. -1.
        -11    1    3    3    0    0  0.28964531423E+01  0.11561013637E+02  0.54028932840E+01  0.13085783631E+02  0.51100000000E-03 0.  1.
        -12    1    3    3    0    0 -0.53981712711E+01  0.90416433263E+00  0.33000390555E+01  0.63912458864E+01  0.00000000000E+00 0.  1.
</event>
<event>
 7    1  0.4236733E-010  0.4778727E+02  0.7816164E-02  0.1312668E+00
        -11   -1    0    0    0    0  0.00000000000E+00  0.00000000000E+00  0.45593999997E+02  0.45594000000E+02  0.51100000000E-03 0.  1.
         11   -1    0    0    0    0 -0.00000000000E+00 -0.00000000000E+00 -0.45593999997E+02  0.45594000000E+02  0.51100000000E-03 0. -1.
    9900012    2    1    2    0    0  0.32335191453E+02  0.22538891443E+02 -0.18167475926E+02  0.47787269416E+02  0.19999992573E+02 0.  0.
        -12    1    1    2    0    0 -0.32335191453E+02 -0.22538891443E+02  0.18167475926E+02  0.43400730584E+02  0.00000000000E+00 0.  1.
         11    1    3    3    0    0  0.11888892086E+02  0.39973656486E+01 -0.10625528174E+02  0.16438568563E+02  0.51100000000E-03 0. -1.
        -11    1    3    3    0    0  0.24312669341E+01  0.42796324033E+01  0.33165381465E+01  0.59351274586E+01  0.51100000000E-03 0.  1.
         12    1    3    3    0    0  0.18015032433E+02  0.14261893391E+02 -0.10858485898E+02  0.25413573394E+02  0.00000000000E+00 0. -1.
</event>
<event>
 7    1  0.4236733E-010  0.4778727E+02  0.7816164E-02  0.1312668E+00
        -11   -1    0    0    0    0  0.00000000000E+00  0.00000000000E+00  0.45593999997E+02  0.45594000000E+02  0.51100000000E-03 0.  1.
         11   -1    0    0    0    0 -0.00000000000E+00 -0.00000000000E+00 -0.45593999997E+02  0.45594000000E+02  0.51100000000E-03 0. -1.
    9900012    2    1    2    0    0  0.42514107305E+02 -0.59450244396E+01  0.63898793896E+01  0.47787271963E+02  0.20000004186E+02 0.  0.
        -12    1    1    2    0    0 -0.42514107305E+02  0.59450244396E+01 -0.63898793896E+01  0.43400728037E+02  0.00000000000E+00 0.  1.
         11    1    3    3    0    0  0.36759536630E+02 -0.18895243029E+01  0.37566296770E+01  0.36999271643E+02  0.51100000000E-03 0. -1.
        -11    1    3    3    0    0  0.73689736541E+01 -0.16966991990E+01  0.23351648645E+01  0.79141364716E+01  0.51100000000E-03 0.  1.
        -12    1    3    3    0    0 -0.16144029782E+01 -0.23588009378E+01  0.29808484815E+00  0.28738638480E+01  0.00000000000E+00 0.  1.
</event>
<event>
 7    1  0.4236733E-010  0.4778727E+02  0.7816164E-02  0.1312668E+00
        -11   -1    0    0    0    0  0.00000000000E+00  0.00000000000E+00  0.45593999997E+02  0.45594000000E+02  0.51100000000E-03 0.  1.
         11   -1    0    0    0    0 -0.00000000000E+00 -0.00000000000E+00 -0.45593999997E+02  0.45594000000E+02  0.51100000000E-03 0. -1.
    9900012    2    1    2    0    0 -0.43114412559E+02  0.75941027297E+00 -0.49187375469E+01  0.47787271281E+02  0.20000001081E+02 0.  0.
        -12    1    1    2    0    0  0.43114412559E+02 -0.75941027297E+00  0.49187375469E+01  0.43400728719E+02  0.00000000000E+00 0.  1.
         11    1    3    3    0    0 -0.17151002310E+02 -0.12866749826E+01  0.23392931032E+01  0.17357554702E+02  0.51100000000E-03 0. -1.
        -11    1    3    3    0    0 -0.18718928101E+02 -0.67708258576E+00  0.14406255085E+01  0.18786487489E+02  0.51100000000E-03 0.  1.
         12    1    3    3    0    0 -0.72444821481E+01  0.27231678413E+01 -0.86986561586E+01  0.11643229090E+02  0.00000000000E+00 0. -1.
</event>
<event>
 7    1  0.4236733E-010  0.4778727E+02  0.7816164E-02  0.1312668E+00
        -11   -1    0    0    0    0  0.00000000000E+00  0.00000000000E+00  0.45593999997E+02  0.45594000000E+02  0.51100000000E-03 0.  1.
         11   -1    0    0    0    0 -0.00000000000E+00 -0.00000000000E+00 -0.45593999997E+02  0.45594000000E+02  0.51100000000E-03 0. -1.
    9900012    2    1    2    0    0  0.11989379541E+02  0.28407295111E+02 -0.30543477605E+02  0.47787266579E+02  0.19999979638E+02 0.  0.
        -12    1    1    2    0    0 -0.11989379541E+02 -0.28407295111E+02  0.30543477605E+02  0.43400733421E+02  0.00000000000E+00 0.  1.
         11    1    3    3    0    0  0.34353345135E+01  0.11856398774E+02 -0.91692000656E+01  0.15376928991E+02  0.51100000000E-03 0. -1.
        -11    1    3    3    0    0  0.10641188606E+02  0.18561228344E+02 -0.19578050836E+02  0.29000933905E+02  0.51100000000E-03 0.  1.
        -12    1    3    3    0    0 -0.20871435776E+01 -0.20103320075E+01 -0.17962267036E+01  0.34094036817E+01  0.00000000000E+00 0.  1.
</event>
<event>
 7    1  0.4236733E-010  0.4778727E+02  0.7816164E-02  0.1312668E+00
        -11   -1    0    0    0    0  0.00000000000E+00  0.00000000000E+00  0.45593999997E+02  0.45594000000E+02  0.51100000000E-03 0. -1.
         11   -1    0    0    0    0 -0.00000000000E+00 -0.00000000000E+00 -0.45593999997E+02  0.45594000000E+02  0.51100000000E-03 0.  1.
    9900012    2    1    2    0    0  0.14940952487E+02  0.12362991704E+02  0.38827150053E+02  0.47787271822E+02  0.20000003546E+02 0.  0.
        -12    1    1    2    0    0 -0.14940952487E+02 -0.12362991704E+02 -0.38827150053E+02  0.43400728178E+02  0.00000000000E+00 0.  1.
         11    1    3    3    0    0 -0.40192878486E+00  0.63643607934E+01  0.60433955901E+01  0.87857421756E+01  0.51100000000E-03 0. -1.
        -11    1    3    3    0    0 -0.14529348052E-01 -0.18635144512E+01 -0.10034591112E+00  0.18662708204E+01  0.51100000000E-03 0.  1.
         12    1    3    3    0    0  0.15357410620E+02  0.78621453622E+01  0.32884100374E+02  0.37135258826E+02  0.00000000000E+00 0. -1.
</event>
<event>
 7    1  0.4236733E-010  0.4778727E+02  0.7816164E-02  0.1312668E+00
        -11   -1    0    0    0    0  0.00000000000E+00  0.00000000000E+00  0.45593999997E+02  0.45594000000E+02  0.51100000000E-03 0.  1.
         11   -1    0    0    0    0 -0.00000000000E+00 -0.00000000000E+00 -0.45593999997E+02  0.45594000000E+02  0.51100000000E-03 0. -1.
    9900012    2    1    2    0    0  0.12380916573E+02 -0.21779671533E+02 -0.35439836437E+02  0.47787271965E+02  0.20000004198E+02 0.  0.
        -12    1    1    2    0    0 -0.12380916573E+02  0.21779671533E+02  0.35439836437E+02  0.43400728035E+02  0.00000000000E+00 0.  1.
         11    1    3    3    0    0  0.50306951487E+01 -0.24479420084E+00 -0.17640323930E+02  0.18345267687E+02  0.51100000000E-03 0. -1.
        -11    1    3    3    0    0  0.18668270708E+01 -0.13321391492E+02 -0.11749834641E+02  0.17860658693E+02  0.51100000000E-03 0.  1.
        -12    1    3    3    0    0  0.54833943538E+01 -0.82134858402E+01 -0.60496778658E+01  0.11581345585E+02  0.00000000000E+00 0.  1.
</event>
<event>
 7    1  0.4236733E-010  0.4778725E+02  0.7816164E-02  0.1312668E+00
        -11   -1    0    0    0    0  0.00000000000E+00  0.00000000000E+00  0.45593999997E+02  0.45594000000E+02  0.51100000000E-03 0.  1.
         11   -1    0    0    0    0 -0.00000000000E+00 -0.00000000000E+00 -0.45593999997E+02  0.45594000000E+02  0.51100000000E-03 0. -1.
    9900012    2    1    2    0    0 -0.35700072760E+02  0.24269706317E+02 -0.44845240400E+01  0.47787253513E+02  0.19999920067E+02 0.  0.
        -12    1    1    2    0    0  0.35700072760E+02 -0.24269706317E+02  0.44845240400E+01  0.43400746487E+02  0.00000000000E+00 0.  1.
         11    1    3    3    0    0 -0.19565451141E+02  0.11706314302E+02  0.21332472586E+01  0.22899681591E+02  0.51100000000E-03 0. -1.
        -11    1    3    3    0    0 -0.17357912179E+02  0.93312096609E+01 -0.30877844490E+01  0.19947506160E+02  0.51100000000E-03 0.  1.
        -12    1    3    3    0    0  0.12232905600E+01  0.32321823543E+01 -0.35299868496E+01  0.49400657611E+01  0.00000000000E+00 0.  1.
</event>
<event>
 7    1  0.4236733E-010  0.4778727E+02  0.7816164E-02  0.1312668E+00
        -11   -1    0    0    0    0  0.00000000000E+00  0.00000000000E+00  0.45593999997E+02  0.45594000000E+02  0.51100000000E-03 0.  1.
         11   -1    0    0    0    0 -0.00000000000E+00 -0.00000000000E+00 -0.45593999997E+02  0.45594000000E+02  0.51100000000E-03 0. -1.
    9900012    2    1    2    0    0 -0.23473981647E+02  0.25406475862E+02 -0.26212716457E+02  0.47787270350E+02  0.19999996835E+02 0.  0.
        -12    1    1    2    0    0  0.23473981647E+02 -0.25406475862E+02  0.26212716457E+02  0.43400729650E+02  0.00000000000E+00 0.  1.
         11    1    3    3    0    0 -0.12766392248E+02  0.28350388155E+01 -0.37195308130E+01  0.13596070236E+02  0.51100000000E-03 0. -1.
        -11    1    3    3    0    0 -0.47214353853E+01  0.50559712934E+01 -0.38376899757E+01  0.79109204539E+01  0.51100000000E-03 0.  1.
         12    1    3    3    0    0 -0.59861540133E+01  0.17515465753E+02 -0.18655495668E+02  0.26280279661E+02  0.00000000000E+00 0. -1.
</event>
<event>
 7    1  0.4236733E-010  0.4778727E+02  0.7816164E-02  0.1312668E+00
        -11   -1    0    0    0    0  0.00000000000E+00  0.00000000000E+00  0.45593999997E+02  0.45594000000E+02  0.51100000000E-03 0. -1.
         11   -1    0    0    0    0 -0.00000000000E+00 -0.00000000000E+00 -0.45593999997E+02  0.45594000000E+02  0.51100000000E-03 0.  1.
    9900012    2    1    2    0    0  0.23213627935E+02  0.35591137403E+02 -0.88329839387E+01  0.47787272025E+02  0.20000004471E+02 0.  0.
        -12    1    1    2    0    0 -0.23213627935E+02 -0.35591137403E+02  0.88329839387E+01  0.43400727975E+02  0.00000000000E+00 0.  1.
         11    1    3    3    0    0 -0.15954304354E+01  0.27082883439E+01  0.12135948928E+01  0.33694267840E+01  0.51100000000E-03 0. -1.
        -11    1    3    3    0    0  0.96210212164E+01  0.84233265023E+01  0.24694966306E+01  0.13023628238E+02  0.51100000000E-03 0.  1.
        -12    1    3    3    0    0  0.15188037154E+02  0.24459522556E+02 -0.12516075462E+02  0.31394217003E+02  0.00000000000E+00 0.  1.
</event>
<event>
 7    1  0.4236733E-010  0.4778726E+02  0.7816164E-02  0.1312668E+00
        -11   -1    0    0    0    0  0.00000000000E+00  0.00000000000E+00  0.45593999997E+02  0.45594000000E+02  0.51100000000E-03 0.  1.
         11   -1    0    0    0    0 -0.00000000000E+00 -0.00000000000E+00 -0.45593999997E+02  0.45594000000E+02  0.51100000000E-03 0. -1.
    9900012    2    1    2    0    0  0.13920649481E+02  0.13998868009E+02 -0.38650629430E+02  0.47787263338E+02  0.19999964862E+02 0.  0.
        -12    1    1    2    0    0 -0.13920649481E+02 -0.13998868009E+02  0.38650629430E+02  0.43400736662E+02  0.00000000000E+00 0.  1.
         11    1    3    3    0    0 -0.19112338770E+01  0.53761648824E+01 -0.16018748135E+02  0.17004595139E+02  0.51100000000E-03 0. -1.
        -11    1    3    3    0    0 -0.73609192114E+00  0.22333038218E+01 -0.60341662159E+01  0.64761593140E+01  0.51100000000E-03 0.  1.
         12    1    3    3    0    0  0.16567975279E+02  0.63893993049E+01 -0.16597715079E+02  0.24306508885E+02  0.00000000000E+00 0. -1.
</event>
<event>
 7    1  0.4236733E-010  0.4778727E+02  0.7816164E-02  0.1312668E+00
        -11   -1    0    0    0    0  0.00000000000E+00  0.00000000000E+00  0.45593999997E+02  0.45594000000E+02  0.51100000000E-03 0. -1.
         11   -1    0    0    0    0 -0.00000000000E+00 -0.00000000000E+00 -0.45593999997E+02  0.45594000000E+02  0.51100000000E-03 0.  1.
    9900012    2    1    2    0    0 -0.80615757480E+01 -0.42629608862E+02 -0.11622609386E+01  0.47787269525E+02  0.19999993074E+02 0.  0.
        -12    1    1    2    0    0  0.80615757480E+01  0.42629608862E+02  0.11622609386E+01  0.43400730475E+02  0.00000000000E+00 0.  1.
         11    1    3    3    0    0  0.26680330786E+01 -0.97852803443E+01 -0.41114389475E+00  0.10150820237E+02  0.51100000000E-03 0.  1.
        -11    1    3    3    0    0  0.93059720014E+00 -0.13236765503E+02 -0.54497352604E+01  0.14344949871E+02  0.51100000000E-03 0. -1.
         12    1    3    3    0    0 -0.11660206027E+02 -0.19607563014E+02  0.46986182165E+01  0.23291499417E+02  0.00000000000E+00 0. -1.
</event>
<event>
 7    1  0.4236733E-010  0.4778727E+02  0.7816164E-02  0.1312668E+00
        -11   -1    0    0    0    0  0.00000000000E+00  0.00000000000E+00  0.45593999997E+02  0.45594000000E+02  0.51100000000E-03 0. -1.
         11   -1    0    0    0    0 -0.00000000000E+00 -0.00000000000E+00 -0.45593999997E+02  0.45594000000E+02  0.51100000000E-03 0.  1.
    9900012    2    1    2    0    0 -0.11019417652E+02 -0.26259802572E+02  0.32750852990E+02  0.47787272263E+02  0.20000005558E+02 0.  0.
        -12    1    1    2    0    0  0.11019417652E+02  0.26259802572E+02 -0.32750852990E+02  0.43400727737E+02  0.00000000000E+00 0.  1.
         11    1    3    3    0    0  0.25399358906E+01 -0.46321953121E-02  0.81039566311E+01  0.84926679627E+01  0.51100000000E-03 0. -1.
        -11    1    3    3    0    0 -0.12119766707E+01  0.35613851857E+00  0.88912403133E+00  0.15447536694E+01  0.51100000000E-03 0.  1.
        -12    1    3    3    0    0 -0.12347376872E+02 -0.26611308895E+02  0.23757772327E+02  0.37749850631E+02  0.00000000000E+00 0.  1.
</event>
<event>
 7    1  0.4236733E-010  0.4778728E+02  0.7816164E-02  0.1312668E+00
        -11   -1    0    0    0    0  0.00000000000E+00  0.00000000000E+00  0.45593999997E+02  0.45594000000E+02  0.51100000000E-03 0.  1.
         11   -1    0    0    0    0 -0.00000000000E+00 -0.00000000000E+00 -0.45593999997E+02  0.45594000000E+02  0.51100000000E-03 0. -1.
    9900012    2    1    2    0    0 -0.29336606754E+02 -0.10817011522E+02 -0.30099477078E+02  0.47787277029E+02  0.20000027284E+02 0.  0.
        -12    1    1    2    0    0  0.29336606754E+02  0.10817011522E+02  0.30099477078E+02  0.43400722971E+02  0.00000000000E+00 0.  1.
         11    1    3    3    0    0 -0.81656712168E+01  0.10573699841E+01 -0.65680014587E+01  0.10532561945E+02  0.51100000000E-03 0. -1.
        -11    1    3    3    0    0 -0.10385246600E+02  0.25447034028E+01 -0.10830746376E+02  0.15219524620E+02  0.51100000000E-03 0.  1.
         12    1    3    3    0    0 -0.10785688938E+02 -0.14419084908E+02 -0.12700729243E+02  0.22035190463E+02  0.00000000000E+00 0. -1.
</event>
<event>
 7    1  0.4236733E-010  0.4778727E+02  0.7816164E-02  0.1312668E+00
        -11   -1    0    0    0    0  0.00000000000E+00  0.00000000000E+00  0.45593999997E+02  0.45594000000E+02  0.51100000000E-03 0. -1.
         11   -1    0    0    0    0 -0.00000000000E+00 -0.00000000000E+00 -0.45593999997E+02  0.45594000000E+02  0.51100000000E-03 0.  1.
    9900012    2    1    2    0    0  0.31393360220E+02 -0.14584103384E+02  0.26179843137E+02  0.47787270466E+02  0.19999997363E+02 0.  0.
        -12    1    1    2    0    0 -0.31393360220E+02  0.14584103384E+02 -0.26179843137E+02  0.43400729534E+02  0.00000000000E+00 0.  1.
         11    1    3    3    0    0  0.13417979134E+02 -0.99784858042E+01  0.11873821088E+02  0.20508534089E+02  0.51100000000E-03 0. -1.
        -11    1    3    3    0    0  0.87475216045E+01 -0.20980426851E+01  0.15212707462E+02  0.17673352424E+02  0.51100000000E-03 0.  1.
        -12    1    3    3    0    0  0.92278594807E+01 -0.25075748945E+01 -0.90668541227E+00  0.96053839529E+01  0.00000000000E+00 0.  1.
</event>
<event>
 7    1  0.4236733E-010  0.4778727E+02  0.7816164E-02  0.1312668E+00
        -11   -1    0    0    0    0  0.00000000000E+00  0.00000000000E+00  0.45593999997E+02  0.45594000000E+02  0.51100000000E-03 0. -1.
         11   -1    0    0    0    0 -0.00000000000E+00 -0.00000000000E+00 -0.45593999997E+02  0.45594000000E+02  0.51100000000E-03 0.  1.
    9900012    2    1    2    0    0  0.85985481305E+01  0.30952575436E+02 -0.29182634249E+02  0.47787273073E+02  0.20000009248E+02 0.  0.
        -12    1    1    2    0    0 -0.85985481305E+01 -0.30952575436E+02  0.29182634249E+02  0.43400726927E+02  0.00000000000E+00 0.  1.
         11    1    3    3    0    0 -0.33761181324E+01  0.24992863971E+01 -0.72326608900E+01  0.83639697483E+01  0.51100000000E-03 0. -1.
        -11    1    3    3    0    0 -0.14697210165E+01  0.26854953623E+01 -0.47497620886E+01  0.56508588168E+01  0.51100000000E-03 0.  1.
         12    1    3    3    0    0  0.13444387279E+02  0.25767793676E+02 -0.17200211271E+02  0.33772444508E+02  0.00000000000E+00 0. -1.
</event>
<event>
 7    1  0.4236733E-010  0.4778727E+02  0.7816164E-02  0.1312668E+00
        -11   -1    0    0    0    0  0.00000000000E+00  0.00000000000E+00  0.45593999997E+02  0.45594000000E+02  0.51100000000E-03 0.  1.
         11   -1    0    0    0    0 -0.00000000000E+00 -0.00000000000E+00 -0.45593999997E+02  0.45594000000E+02  0.51100000000E-03 0. -1.
    9900012    2    1    2    0    0  0.11379794738E+02 -0.24594812232E+02 -0.33900127946E+02  0.47787271990E+02  0.20000004311E+02 0.  0.
        -12    1    1    2    0    0 -0.11379794738E+02  0.24594812232E+02  0.33900127946E+02  0.43400728010E+02  0.00000000000E+00 0.  1.
         11    1    3    3    0    0  0.10893653826E+02 -0.21196653092E+02 -0.20534585524E+02  0.31458528238E+02  0.51100000000E-03 0. -1.
        -11    1    3    3    0    0 -0.58943692838E+00 -0.62108940892E+01 -0.76776811065E+01  0.98928978926E+01  0.51100000000E-03 0.  1.
        -12    1    3    3    0    0  0.10755778407E+01  0.28127349488E+01 -0.56878613158E+01  0.64358458598E+01  0.00000000000E+00 0.  1.
</event>
<event>
 7    1  0.4236733E-010  0.4778727E+02  0.7816164E-02  0.1312668E+00
        -11   -1    0    0    0    0  0.00000000000E+00  0.00000000000E+00  0.45593999997E+02  0.45594000000E+02  0.51100000000E-03 0.  1.
         11   -1    0    0    0    0 -0.00000000000E+00 -0.00000000000E+00 -0.45593999997E+02  0.45594000000E+02  0.51100000000E-03 0. -1.
    9900012    2    1    2    0    0  0.24025926072E+02  0.98451711115E-01 -0.36143717856E+02  0.47787272393E+02  0.20000006149E+02 0.  0.
        -12    1    1    2    0    0 -0.24025926072E+02 -0.98451711115E-01  0.36143717856E+02  0.43400727607E+02  0.00000000000E+00 0.  1.
         11    1    3    3    0    0  0.56294888852E+01 -0.41467704576E+01 -0.60828921942E+01  0.92676009864E+01  0.51100000000E-03 0. -1.
        -11    1    3    3    0    0  0.25619208346E+00  0.10283206027E+01  0.15820866975E+01  0.19042258860E+01  0.51100000000E-03 0.  1.
         12    1    3    3    0    0  0.18140245103E+02  0.32169015660E+01 -0.31642912359E+02  0.36615445521E+02  0.00000000000E+00 0. -1.
</event>
<event>
 7    1  0.4236733E-010  0.4778727E+02  0.7816164E-02  0.1312668E+00
        -11   -1    0    0    0    0  0.00000000000E+00  0.00000000000E+00  0.45593999997E+02  0.45594000000E+02  0.51100000000E-03 0. -1.
         11   -1    0    0    0    0 -0.00000000000E+00 -0.00000000000E+00 -0.45593999997E+02  0.45594000000E+02  0.51100000000E-03 0.  1.
    9900012    2    1    2    0    0  0.42388411893E+02 -0.59167307754E+00 -0.93002904431E+01  0.47787274866E+02  0.20000017423E+02 0.  0.
        -12    1    1    2    0    0 -0.42388411893E+02  0.59167307754E+00  0.93002904431E+01  0.43400725134E+02  0.00000000000E+00 0.  1.
         11    1    3    3    0    0  0.16084736771E+01  0.24830276166E+01  0.84555288804E+00  0.30769422585E+01  0.51100000000E-03 0. -1.
        -11    1    3    3    0    0  0.14022326075E+02  0.56767185166E+01 -0.12204482425E+01  0.15176964645E+02  0.51100000000E-03 0.  1.
        -12    1    3    3    0    0  0.26757612141E+02 -0.87514192108E+01 -0.89253950886E+01  0.29533367962E+02  0.00000000000E+00 0.  1.
</event>
<event>
 7    1  0.4236733E-010  0.4778727E+02  0.7816164E-02  0.1312668E+00
        -11   -1    0    0    0    0  0.00000000000E+00  0.00000000000E+00  0.45593999997E+02  0.45594000000E+02  0.51100000000E-03 0. -1.
         11   -1    0    0    0    0 -0.00000000000E+00 -0.00000000000E+00 -0.45593999997E+02  0.45594000000E+02  0.51100000000E-03 0.  1.
    9900012    2    1    2    0    0  0.18610087602E+02  0.35973527716E+02  0.15594647783E+02  0.47787273090E+02  0.20000009325E+02 0.  0.
        -12    1    1    2    0    0 -0.18610087602E+02 -0.35973527716E+02 -0.15594647783E+02  0.43400726910E+02  0.00000000000E+00 0.  1.
         11    1    3    3    0    0  0.23323929528E+01  0.15375664431E+02  0.82976812315E+01  0.17626758853E+02  0.51100000000E-03 0. -1.
        -11    1    3    3    0    0  0.66998715411E+01  0.64601072707E+01  0.90656027035E+01  0.12992552376E+02  0.51100000000E-03 0.  1.
        -12    1    3    3    0    0  0.95778231077E+01  0.14137756014E+02 -0.17686361517E+01  0.17167961860E+02  0.00000000000E+00 0.  1.
</event>
<event>
 7    1  0.4236733E-010  0.4778727E+02  0.7816164E-02  0.1312668E+00
        -11   -1    0    0    0    0  0.00000000000E+00  0.00000000000E+00  0.45593999997E+02  0.45594000000E+02  0.51100000000E-03 0.  1.
         11   -1    0    0    0    0 -0.00000000000E+00 -0.00000000000E+00 -0.45593999997E+02  0.45594000000E+02  0.51100000000E-03 0. -1.
    9900012    2    1    2    0    0  0.39410187596E+02 -0.77535066646E+00 -0.18162026099E+02  0.47787271354E+02  0.20000001413E+02 0.  0.
        -12    1    1    2    0    0 -0.39410187596E+02  0.77535066646E+00  0.18162026099E+02  0.43400728646E+02  0.00000000000E+00 0.  1.
         11    1    3    3    0    0  0.15463258695E+02 -0.70128469323E+01 -0.12367050774E+02  0.21005626310E+02  0.51100000000E-03 0. -1.
        -11    1    3    3    0    0  0.66147650523E+01 -0.30117347313E+00  0.16384847777E+01  0.68213235362E+01  0.51100000000E-03 0.  1.
         12    1    3    3    0    0  0.17332163848E+02  0.65386697389E+01 -0.74334601021E+01  0.19960321508E+02  0.00000000000E+00 0. -1.
</event>
<event>
 7    1  0.4236733E-010  0.4778727E+02  0.7816164E-02  0.1312668E+00
        -11   -1    0    0    0    0  0.00000000000E+00  0.00000000000E+00  0.45593999997E+02  0.45594000000E+02  0.51100000000E-03 0.  1.
         11   -1    0    0    0    0 -0.00000000000E+00 -0.00000000000E+00 -0.45593999997E+02  0.45594000000E+02  0.51100000000E-03 0. -1.
    9900012    2    1    2    0    0  0.29385036755E+02  0.17927239081E+02 -0.26434010503E+02  0.47787271925E+02  0.20000004016E+02 0.  0.
        -12    1    1    2    0    0 -0.29385036755E+02 -0.17927239081E+02  0.26434010503E+02  0.43400728075E+02  0.00000000000E+00 0.  1.
         11    1    3    3    0    0  0.14233152251E+02  0.17539155802E+02 -0.21859844163E+02  0.31433380288E+02  0.51100000000E-03 0. -1.
        -11    1    3    3    0    0  0.39794673124E+01 -0.73640208295E+00 -0.29501940925E+01  0.50082026280E+01  0.51100000000E-03 0.  1.
         12    1    3    3    0    0  0.11172417192E+02  0.11244853620E+01 -0.16239722471E+01  0.11345689009E+02  0.00000000000E+00 0. -1.
</event>
<event>
 7    1  0.4236733E-010  0.4778728E+02  0.7816164E-02  0.1312668E+00
        -11   -1    0    0    0    0  0.00000000000E+00  0.00000000000E+00  0.45593999997E+02  0.45594000000E+02  0.51100000000E-03 0.  1.
         11   -1    0    0    0    0 -0.00000000000E+00 -0.00000000000E+00 -0.45593999997E+02  0.45594000000E+02  0.51100000000E-03 0. -1.
    9900012    2    1    2    0    0  0.23858874460E+00  0.41003831106E+02 -0.14221525677E+02  0.47787275553E+02  0.20000020556E+02 0.  0.
        -12    1    1    2    0    0 -0.23858874460E+00 -0.41003831106E+02  0.14221525677E+02  0.43400724447E+02  0.00000000000E+00 0.  1.
         11    1    3    3    0    0  0.15185171147E+01  0.16378994093E+02 -0.33479174126E+01  0.16786479469E+02  0.51100000000E-03 0. -1.
        -11    1    3    3    0    0 -0.88179818280E+00  0.12096898074E+02  0.28036749754E+01  0.12448819409E+02  0.51100000000E-03 0.  1.
        -12    1    3    3    0    0 -0.39813018732E+00  0.12527938939E+02 -0.13677283240E+02  0.18551976675E+02  0.00000000000E+00 0.  1.
</event>
<event>
 7    1  0.4236733E-010  0.4778727E+02  0.7816164E-02  0.1312668E+00
        -11   -1    0    0    0    0  0.00000000000E+00  0.00000000000E+00  0.45593999997E+02  0.45594000000E+02  0.51100000000E-03 0. -1.
         11   -1    0    0    0    0 -0.00000000000E+00 -0.00000000000E+00 -0.45593999997E+02  0.45594000000E+02  0.51100000000E-03 0.  1.
    9900012    2    1    2    0    0 -0.62841896298E+01  0.31497606503E+02  0.29189601637E+02  0.47787273066E+02  0.20000009215E+02 0.  0.
        -12    1    1    2    0    0  0.62841896298E+01 -0.31497606503E+02 -0.29189601637E+02  0.43400726934E+02  0.00000000000E+00 0.  1.
         11    1    3    3    0    0 -0.32459045827E+01  0.19536216981E+02  0.14700656059E+02  0.24663920194E+02  0.51100000000E-03 0. -1.
        -11    1    3    3    0    0 -0.78481024910E+01  0.88803301192E+01  0.72152520484E+01  0.13874899571E+02  0.51100000000E-03 0.  1.
        -12    1    3    3    0    0  0.48098174439E+01  0.30810594023E+01  0.72736935297E+01  0.92484533003E+01  0.00000000000E+00 0.  1.
</event>
<event>
 7    1  0.4236733E-010  0.4778725E+02  0.7816164E-02  0.1312668E+00
        -11   -1    0    0    0    0  0.00000000000E+00  0.00000000000E+00  0.45593999997E+02  0.45594000000E+02  0.51100000000E-03 0.  1.
         11   -1    0    0    0    0 -0.00000000000E+00 -0.00000000000E+00 -0.45593999997E+02  0.45594000000E+02  0.51100000000E-03 0. -1.
    9900012    2    1    2    0    0 -0.45457958656E+01  0.42936821509E+02 -0.44034135770E+01  0.47787251706E+02  0.19999911830E+02 0.  0.
        -12    1    1    2    0    0  0.45457958656E+01 -0.42936821509E+02  0.44034135770E+01  0.43400748294E+02  0.00000000000E+00 0.  1.
         11    1    3    3    0    0 -0.93283355889E+00  0.87607538235E+01 -0.48808350482E+01  0.10071918240E+02  0.51100000000E-03 0. -1.
        -11    1    3    3    0    0  0.37953717601E+01  0.27069925802E+02 -0.94916913998E+00  0.27351172773E+02  0.51100000000E-03 0.  1.
         12    1    3    3    0    0 -0.74083340669E+01  0.71061418828E+01  0.14265906112E+01  0.10364160693E+02  0.00000000000E+00 0. -1.
</event>
<event>
 7    1  0.4236733E-010  0.4778727E+02  0.7816164E-02  0.1312668E+00
        -11   -1    0    0    0    0  0.00000000000E+00  0.00000000000E+00  0.45593999997E+02  0.45594000000E+02  0.51100000000E-03 0.  1.
         11   -1    0    0    0    0 -0.00000000000E+00 -0.00000000000E+00 -0.45593999997E+02  0.45594000000E+02  0.51100000000E-03 0. -1.
    9900012    2    1    2    0    0 -0.27288418400E+02 -0.29864423634E+02 -0.15718823187E+02  0.47787274428E+02  0.20000015426E+02 0.  0.
        -12    1    1    2    0    0  0.27288418400E+02  0.29864423634E+02  0.15718823187E+02  0.43400725572E+02  0.00000000000E+00 0.  1.
         11    1    3    3    0    0 -0.36316786700E+01 -0.53371474193E+01 -0.32684534728E+01  0.72358151512E+01  0.51100000000E-03 0. -1.
        -11    1    3    3    0    0 -0.20514163379E+02 -0.24653644600E+02 -0.49938332200E+01  0.32458765560E+02  0.51100000000E-03 0.  1.
         12    1    3    3    0    0 -0.31425763511E+01  0.12636838499E+00 -0.74565364945E+01  0.80926937162E+01  0.00000000000E+00 0. -1.
</event>
<event>
 7    1  0.4236733E-010  0.4778727E+02  0.7816164E-02  0.1312668E+00
        -11   -1    0    0    0    0  0.00000000000E+00  0.00000000000E+00  0.45593999997E+02  0.45594000000E+02  0.51100000000E-03 0. -1.
         11   -1    0    0    0    0 -0.00000000000E+00 -0.00000000000E+00 -0.45593999997E+02  0.45594000000E+02  0.51100000000E-03 0.  1.
    9900012    2    1    2    0    0 -0.26805153083E+02  0.11988898123E+02  0.31958933410E+02  0.47787270344E+02  0.19999996804E+02 0.  0.
        -12    1    1    2    0    0  0.26805153083E+02 -0.11988898123E+02 -0.31958933410E+02  0.43400729656E+02  0.00000000000E+00 0.  1.
         11    1    3    3    0    0 -0.18246495871E+02  0.12295245741E+02  0.24141166148E+02  0.32663490056E+02  0.51100000000E-03 0. -1.
        -11    1    3    3    0    0 -0.29908116633E+01  0.41548671843E+01  0.92275924688E+00  0.52018612643E+01  0.51100000000E-03 0.  1.
        -12    1    3    3    0    0 -0.55678455483E+01 -0.44612148027E+01  0.68950080151E+01  0.99219190227E+01  0.00000000000E+00 0.  1.
</event>
<event>
 7    1  0.4236733E-010  0.4778727E+02  0.7816164E-02  0.1312668E+00
        -11   -1    0    0    0    0  0.00000000000E+00  0.00000000000E+00  0.45593999997E+02  0.45594000000E+02  0.51100000000E-03 0.  1.
         11   -1    0    0    0    0 -0.00000000000E+00 -0.00000000000E+00 -0.45593999997E+02  0.45594000000E+02  0.51100000000E-03 0. -1.
    9900012    2    1    2    0    0 -0.27630224533E+01  0.43185400961E+02  0.33181514213E+01  0.47787270996E+02  0.19999999780E+02 0.  0.
        -12    1    1    2    0    0  0.27630224533E+01 -0.43185400961E+02 -0.33181514213E+01  0.43400729004E+02  0.00000000000E+00 0.  1.
         11    1    3    3    0    0 -0.21931741932E+01  0.55468569863E+00 -0.54211502446E+00  0.23262799115E+01  0.51100000000E-03 0. -1.
        -11    1    3    3    0    0 -0.44267069413E+01  0.28879457477E+01  0.13366607188E+01  0.54518462124E+01  0.51100000000E-03 0.  1.
         12    1    3    3    0    0  0.38568586812E+01  0.39742769514E+02  0.25236057269E+01  0.40009144872E+02  0.00000000000E+00 0. -1.
</event>
<event>
 7    1  0.4236733E-010  0.4778727E+02  0.7816164E-02  0.1312668E+00
        -11   -1    0    0    0    0  0.00000000000E+00  0.00000000000E+00  0.45593999997E+02  0.45594000000E+02  0.51100000000E-03 0.  1.
         11   -1    0    0    0    0 -0.00000000000E+00 -0.00000000000E+00 -0.45593999997E+02  0.45594000000E+02  0.51100000000E-03 0. -1.
    9900012    2    1    2    0    0  0.31437675612E+02  0.87417972318E+01 -0.28616023509E+02  0.47787271109E+02  0.20000000296E+02 0.  0.
        -12    1    1    2    0    0 -0.31437675612E+02 -0.87417972318E+01  0.28616023509E+02  0.43400728891E+02  0.00000000000E+00 0.  1.
         11    1    3    3    0    0  0.45295454058E+01  0.88466096070E+01 -0.63048968642E+01  0.11769919620E+02  0.51100000000E-03 0.  1.
        -11    1    3    3    0    0  0.65637431587E+01  0.37630293374E+01 -0.60045480899E+01  0.96590740795E+01  0.51100000000E-03 0. -1.
        -12    1    3    3    0    0  0.20344387048E+02 -0.38678417125E+01 -0.16306578555E+02  0.26358277410E+02  0.00000000000E+00 0.  1.
</event>
<event>
 7    1  0.4236733E-010  0.4778727E+02  0.7816164E-02  0.1312668E+00
        -11   -1    0    0    0    0  0.00000000000E+00  0.00000000000E+00  0.45593999997E+02  0.45594000000E+02  0.51100000000E-03 0.  1.
         11   -1    0    0    0    0 -0.00000000000E+00 -0.00000000000E+00 -0.45593999997E+02  0.45594000000E+02  0.51100000000E-03 0. -1.
    9900012    2    1    2    0    0 -0.36917479721E+02  0.14832859023E+02 -0.17340968730E+02  0.47787271755E+02  0.20000003238E+02 0.  0.
        -12    1    1    2    0    0  0.36917479721E+02 -0.14832859023E+02  0.17340968730E+02  0.43400728245E+02  0.00000000000E+00 0.  1.
         11    1    3    3    0    0 -0.12620200045E+01  0.97816121732E+00 -0.90897670556E+00  0.18373167313E+01  0.51100000000E-03 0.  1.
        -11    1    3    3    0    0 -0.22347619882E+02  0.16586416535E+02 -0.51761939497E+01  0.28307566337E+02  0.51100000000E-03 0. -1.
         12    1    3    3    0    0 -0.13307839834E+02 -0.27317187289E+01 -0.11255798075E+02  0.17642388686E+02  0.00000000000E+00 0. -1.
</event>
<event>
 7    1  0.4236733E-010  0.4778727E+02  0.7816164E-02  0.1312668E+00
        -11   -1    0    0    0    0  0.00000000000E+00  0.00000000000E+00  0.45593999997E+02  0.45594000000E+02  0.51100000000E-03 0.  1.
         11   -1    0    0    0    0 -0.00000000000E+00 -0.00000000000E+00 -0.45593999997E+02  0.45594000000E+02  0.51100000000E-03 0. -1.
    9900012    2    1    2    0    0  0.20553640291E+02  0.23627899512E+00 -0.38224545000E+02  0.47787265013E+02  0.19999972498E+02 0.  0.
        -12    1    1    2    0    0 -0.20553640291E+02 -0.23627899512E+00  0.38224545000E+02  0.43400734987E+02  0.00000000000E+00 0.  1.
         11    1    3    3    0    0  0.10137060004E+01 -0.57314873545E+00 -0.64782752466E+01  0.65821083067E+01  0.51100000000E-03 0. -1.
        -11    1    3    3    0    0  0.80775590023E+01  0.68617452188E+01 -0.55186521486E+01  0.11949310804E+02  0.51100000000E-03 0.  1.
        -12    1    3    3    0    0  0.11462375288E+02 -0.60523174883E+01 -0.26227617605E+02  0.29255845902E+02  0.00000000000E+00 0.  1.
</event>
<event>
 7    1  0.4236733E-010  0.4778727E+02  0.7816164E-02  0.1312668E+00
        -11   -1    0    0    0    0  0.00000000000E+00  0.00000000000E+00  0.45593999997E+02  0.45594000000E+02  0.51100000000E-03 0. -1.
         11   -1    0    0    0    0 -0.00000000000E+00 -0.00000000000E+00 -0.45593999997E+02  0.45594000000E+02  0.51100000000E-03 0.  1.
    9900012    2    1    2    0    0 -0.67130946483E+01  0.38814176255E+02  0.18221347642E+02  0.47787269269E+02  0.19999991906E+02 0.  0.
        -12    1    1    2    0    0  0.67130946483E+01 -0.38814176255E+02 -0.18221347642E+02  0.43400730731E+02  0.00000000000E+00 0.  1.
         11    1    3    3    0    0 -0.84292467227E+01  0.17547919206E+02  0.66161792985E+01  0.20561018884E+02  0.51100000000E-03 0. -1.
        -11    1    3    3    0    0 -0.43780679286E+01  0.30441501389E+01  0.16236095765E+01  0.55740862187E+01  0.51100000000E-03 0.  1.
        -12    1    3    3    0    0  0.60942200030E+01  0.18222106910E+02  0.99815587671E+01  0.21652164167E+02  0.00000000000E+00 0.  1.
</event>
<event>
 7    1  0.4236733E-010  0.4778727E+02  0.7816164E-02  0.1312668E+00
        -11   -1    0    0    0    0  0.00000000000E+00  0.00000000000E+00  0.45593999997E+02  0.45594000000E+02  0.51100000000E-03 0.  1.
         11   -1    0    0    0    0 -0.00000000000E+00 -0.00000000000E+00 -0.45593999997E+02  0.45594000000E+02  0.51100000000E-03 0. -1.
    9900012    2    1    2    0    0  0.12225816996E+02 -0.33428802879E+02 -0.24832793404E+02  0.47787273147E+02  0.20000009585E+02 0.  0.
        -12    1    1    2    0    0 -0.12225816996E+02  0.33428802879E+02  0.24832793404E+02  0.43400726853E+02  0.00000000000E+00 0.  1.
         11    1    3    3    0    0  0.19711241267E+01 -0.38344160308E+01  0.18519161877E+01  0.46922990578E+01  0.51100000000E-03 0. -1.
        -11    1    3    3    0    0  0.94236386079E+01 -0.86473506919E+01 -0.11617170051E+02  0.17278318172E+02  0.51100000000E-03 0.  1.
         12    1    3    3    0    0  0.83105426168E+00 -0.20947036157E+02 -0.15067539540E+02  0.25816655917E+02  0.00000000000E+00 0. -1.
</event>
<event>
 7    1  0.4236733E-010  0.4778727E+02  0.7816164E-02  0.1312668E+00
        -11   -1    0    0    0    0  0.00000000000E+00  0.00000000000E+00  0.45593999997E+02  0.45594000000E+02  0.51100000000E-03 0. -1.
         11   -1    0    0    0    0 -0.00000000000E+00 -0.00000000000E+00 -0.45593999997E+02  0.45594000000E+02  0.51100000000E-03 0.  1.
    9900012    2    1    2    0    0  0.39357140077E+02  0.14207332400E+02  0.11523478154E+02  0.47787270539E+02  0.19999997696E+02 0.  0.
        -12    1    1    2    0    0 -0.39357140077E+02 -0.14207332400E+02 -0.11523478154E+02  0.43400729461E+02  0.00000000000E+00 0.  1.
         11    1    3    3    0    0  0.22063589152E+01  0.68154953627E+01  0.24655149867E+01  0.75761310121E+01  0.51100000000E-03 0. -1.
        -11    1    3    3    0    0  0.59322135122E+01 -0.24072186513E+01  0.22819129573E+01  0.67965421940E+01  0.51100000000E-03 0.  1.
        -12    1    3    3    0    0  0.31218567649E+02  0.97990556891E+01  0.67760502100E+01  0.33414597333E+02  0.00000000000E+00 0.  1.
</event>
<event>
 7    1  0.4236733E-010  0.4778727E+02  0.7816164E-02  0.1312668E+00
        -11   -1    0    0    0    0  0.00000000000E+00  0.00000000000E+00  0.45593999997E+02  0.45594000000E+02  0.51100000000E-03 0.  1.
         11   -1    0    0    0    0 -0.00000000000E+00 -0.00000000000E+00 -0.45593999997E+02  0.45594000000E+02  0.51100000000E-03 0. -1.
    9900012    2    1    2    0    0  0.26015467091E+02 -0.10306763515E+02 -0.33175132507E+02  0.47787270525E+02  0.19999997631E+02 0.  0.
        -12    1    1    2    0    0 -0.26015467091E+02  0.10306763515E+02  0.33175132507E+02  0.43400729475E+02  0.00000000000E+00 0.  1.
         11    1    3    3    0    0  0.16908875000E+02 -0.14189985284E+02 -0.20848892577E+02  0.30363498778E+02  0.51100000000E-03 0. -1.
        -11    1    3    3    0    0 -0.28729843100E+00 -0.14600117010E+01 -0.18268462160E+01  0.23561710281E+01  0.51100000000E-03 0.  1.
        -12    1    3    3    0    0  0.93938905224E+01  0.53432334695E+01 -0.10499393714E+02  0.15067600718E+02  0.00000000000E+00 0.  1.
</event>
<event>
 7    1  0.4236733E-010  0.4778727E+02  0.7816164E-02  0.1312668E+00
        -11   -1    0    0    0    0  0.00000000000E+00  0.00000000000E+00  0.45593999997E+02  0.45594000000E+02  0.51100000000E-03 0. -1.
         11   -1    0    0    0    0 -0.00000000000E+00 -0.00000000000E+00 -0.45593999997E+02  0.45594000000E+02  0.51100000000E-03 0.  1.
    9900012    2    1    2    0    0 -0.21963810275E+02  0.36987741847E+02  0.57551122530E+01  0.47787270447E+02  0.19999997275E+02 0.  0.
        -12    1    1    2    0    0  0.21963810275E+02 -0.36987741847E+02 -0.57551122530E+01  0.43400729553E+02  0.00000000000E+00 0.  1.
         11    1    3    3    0    0 -0.65904923546E+01  0.33452557172E+01  0.54037809065E+01  0.91556634733E+01  0.51100000000E-03 0. -1.
        -11    1    3    3    0    0 -0.81788921244E+01  0.99524050050E+01 -0.40106883097E+01  0.13491859129E+02  0.51100000000E-03 0.  1.
        -12    1    3    3    0    0 -0.71944257960E+01  0.23690081124E+02  0.43620196562E+01  0.25139747845E+02  0.00000000000E+00 0.  1.
</event>
<event>
 7    1  0.4236733E-010  0.4778727E+02  0.7816164E-02  0.1312668E+00
        -11   -1    0    0    0    0  0.00000000000E+00  0.00000000000E+00  0.45593999997E+02  0.45594000000E+02  0.51100000000E-03 0.  1.
         11   -1    0    0    0    0 -0.00000000000E+00 -0.00000000000E+00 -0.45593999997E+02  0.45594000000E+02  0.51100000000E-03 0. -1.
    9900012    2    1    2    0    0  0.29104393344E+02 -0.31704821890E+02 -0.56001772157E+01  0.47787269271E+02  0.19999991913E+02 0.  0.
        -12    1    1    2    0    0 -0.29104393344E+02  0.31704821890E+02  0.56001772157E+01  0.43400730729E+02  0.00000000000E+00 0.  1.
         11    1    3    3    0    0  0.12085708367E+02 -0.23540063806E+02 -0.28400250284E+00  0.26462796685E+02  0.51100000000E-03 0.  1.
        -11    1    3    3    0    0  0.59376693412E+01 -0.72861640744E+01 -0.12201157018E+01  0.94780159692E+01  0.51100000000E-03 0. -1.
        -12    1    3    3    0    0  0.11081015635E+02 -0.87859400985E+00 -0.40960590110E+01  0.11846456617E+02  0.00000000000E+00 0.  1.
</event>
<event>
 7    1  0.4236733E-010  0.4778728E+02  0.7816164E-02  0.1312668E+00
        -11   -1    0    0    0    0  0.00000000000E+00  0.00000000000E+00  0.45593999997E+02  0.45594000000E+02  0.51100000000E-03 0.  1.
         11   -1    0    0    0    0 -0.00000000000E+00 -0.00000000000E+00 -0.45593999997E+02  0.45594000000E+02  0.51100000000E-03 0. -1.
    9900012    2    1    2    0    0  0.63642660016E+01 -0.24701927439E+01 -0.42860436835E+02  0.47787276739E+02  0.20000025963E+02 0.  0.
        -12    1    1    2    0    0 -0.63642660016E+01  0.24701927439E+01  0.42860436835E+02  0.43400723261E+02  0.00000000000E+00 0.  1.
         11    1    3    3    0    0 -0.34887613652E+01 -0.23895946904E+01 -0.38720767832E+01  0.57336373729E+01  0.51100000000E-03 0. -1.
        -11    1    3    3    0    0  0.15550989929E+01 -0.90765103949E+00  0.35582983159E+00  0.18354232257E+01  0.51100000000E-03 0.  1.
        -12    1    3    3    0    0  0.82979283740E+01  0.82705298603E+00 -0.39344189883E+02  0.40218216140E+02  0.00000000000E+00 0.  1.
</event>
<event>
 7    1  0.4236733E-010  0.4778727E+02  0.7816164E-02  0.1312668E+00
        -11   -1    0    0    0    0  0.00000000000E+00  0.00000000000E+00  0.45593999997E+02  0.45594000000E+02  0.51100000000E-03 0. -1.
         11   -1    0    0    0    0 -0.00000000000E+00 -0.00000000000E+00 -0.45593999997E+02  0.45594000000E+02  0.51100000000E-03 0.  1.
    9900012    2    1    2    0    0 -0.41098992967E+02  0.11827424572E+02  0.73897407424E+01  0.47787268864E+02  0.19999990056E+02 0.  0.
        -12    1    1    2    0    0  0.41098992967E+02 -0.11827424572E+02 -0.73897407424E+01  0.43400731136E+02  0.00000000000E+00 0.  1.
         11    1    3    3    0    0 -0.23303418336E+02  0.65778804407E+01 -0.10694064683E+01  0.24237604000E+02  0.51100000000E-03 0. -1.
        -11    1    3    3    0    0 -0.95887271837E+01 -0.13140274827E+01 -0.56950378606E+00  0.96950859745E+01  0.51100000000E-03 0.  1.
        -12    1    3    3    0    0 -0.82068474480E+01  0.65635716137E+01  0.90286509968E+01  0.13854578889E+02  0.00000000000E+00 0.  1.
</event>
<event>
 7    1  0.4236733E-010  0.4778727E+02  0.7816164E-02  0.1312668E+00
        -11   -1    0    0    0    0  0.00000000000E+00  0.00000000000E+00  0.45593999997E+02  0.45594000000E+02  0.51100000000E-03 0. -1.
         11   -1    0    0    0    0 -0.00000000000E+00 -0.00000000000E+00 -0.45593999997E+02  0.45594000000E+02  0.51100000000E-03 0.  1.
    9900012    2    1    2    0    0 -0.23990556010E+02 -0.29859578782E+02  0.20407892852E+02  0.47787270589E+02  0.19999997925E+02 0.  0.
        -12    1    1    2    0    0  0.23990556010E+02  0.29859578782E+02 -0.20407892852E+02  0.43400729411E+02  0.00000000000E+00 0.  1.
         11    1    3    3    0    0 -0.42159735640E+01 -0.11876232746E+02  0.69117791927E+01  0.14373309611E+02  0.51100000000E-03 0. -1.
        -11    1    3    3    0    0 -0.82046744243E+01 -0.16192768363E+02  0.11629438222E+02  0.21558438331E+02  0.51100000000E-03 0.  1.
        -12    1    3    3    0    0 -0.11569908022E+02 -0.17905776739E+01  0.18666754370E+01  0.11855522647E+02  0.00000000000E+00 0.  1.
</event>
<event>
 7    1  0.4236733E-010  0.4778726E+02  0.7816164E-02  0.1312668E+00
        -11   -1    0    0    0    0  0.00000000000E+00  0.00000000000E+00  0.45593999997E+02  0.45594000000E+02  0.51100000000E-03 0. -1.
         11   -1    0    0    0    0 -0.00000000000E+00 -0.00000000000E+00 -0.45593999997E+02  0.45594000000E+02  0.51100000000E-03 0.  1.
    9900012    2    1    2    0    0 -0.39692693249E+02 -0.14620677149E+02  0.97133833006E+01  0.47787263683E+02  0.19999966438E+02 0.  0.
        -12    1    1    2    0    0  0.39692693249E+02  0.14620677149E+02 -0.97133833006E+01  0.43400736317E+02  0.00000000000E+00 0.  1.
         11    1    3    3    0    0 -0.96507625502E+01 -0.25993855938E+01  0.54966644267E+00  0.10009803031E+02  0.51100000000E-03 0. -1.
        -11    1    3    3    0    0 -0.98960622140E+01 -0.11052233592E+02  0.94805406128E+01  0.17605810555E+02  0.51100000000E-03 0.  1.
        -12    1    3    3    0    0 -0.20145868485E+02 -0.96905796294E+00 -0.31682375490E+00  0.20171650097E+02  0.00000000000E+00 0.  1.
</event>
<event>
 7    1  0.4236733E-010  0.4778727E+02  0.7816164E-02  0.1312668E+00
        -11   -1    0    0    0    0  0.00000000000E+00  0.00000000000E+00  0.45593999997E+02  0.45594000000E+02  0.51100000000E-03 0.  1.
         11   -1    0    0    0    0 -0.00000000000E+00 -0.00000000000E+00 -0.45593999997E+02  0.45594000000E+02  0.51100000000E-03 0. -1.
    9900012    2    1    2    0    0  0.10202080069E+02 -0.20976526993E+02 -0.36599537839E+02  0.47787270830E+02  0.19999999022E+02 0.  0.
        -12    1    1    2    0    0 -0.10202080069E+02  0.20976526993E+02  0.36599537839E+02  0.43400729170E+02  0.00000000000E+00 0.  1.
         11    1    3    3    0    0  0.89341562266E+01 -0.59148327840E+01 -0.11069429258E+02  0.15405734604E+02  0.51100000000E-03 0. -1.
        -11    1    3    3    0    0 -0.18014994259E+00 -0.37780866430E+01  0.64885045375E+00  0.38376294579E+01  0.51100000000E-03 0.  1.
        -12    1    3    3    0    0  0.14480737849E+01 -0.11283607566E+02 -0.26178959035E+02  0.28543906768E+02  0.00000000000E+00 0.  1.
</event>
<event>
 7    1  0.4236733E-010  0.4778727E+02  0.7816164E-02  0.1312668E+00
        -11   -1    0    0    0    0  0.00000000000E+00  0.00000000000E+00  0.45593999997E+02  0.45594000000E+02  0.51100000000E-03 0.  1.
         11   -1    0    0    0    0 -0.00000000000E+00 -0.00000000000E+00 -0.45593999997E+02  0.45594000000E+02  0.51100000000E-03 0. -1.
    9900012    2    1    2    0    0 -0.32544788798E+02  0.18309413823E+02 -0.22118435747E+02  0.47787272905E+02  0.20000008485E+02 0.  0.
        -12    1    1    2    0    0  0.32544788798E+02 -0.18309413823E+02  0.22118435747E+02  0.43400727095E+02  0.00000000000E+00 0.  1.
         11    1    3    3    0    0 -0.39750346655E+01  0.33129212692E+01 -0.38288020483E+01  0.64370857781E+01  0.51100000000E-03 0. -1.
        -11    1    3    3    0    0 -0.29341967600E+02  0.10582153125E+02 -0.19400752855E+02  0.36733121825E+02  0.51100000000E-03 0.  1.
        -12    1    3    3    0    0  0.77221346744E+00  0.44143394281E+01  0.11111191562E+01  0.46170653022E+01  0.00000000000E+00 0.  1.
</event>
<event>
 7    1  0.4236733E-010  0.4778726E+02  0.7816164E-02  0.1312668E+00
        -11   -1    0    0    0    0  0.00000000000E+00  0.00000000000E+00  0.45593999997E+02  0.45594000000E+02  0.51100000000E-03 0.  1.
         11   -1    0    0    0    0 -0.00000000000E+00 -0.00000000000E+00 -0.45593999997E+02  0.45594000000E+02  0.51100000000E-03 0. -1.
    9900012    2    1    2    0    0 -0.37176038054E+02  0.19157500402E+02 -0.11599848056E+02  0.47787261505E+02  0.19999956504E+02 0.  0.
        -12    1    1    2    0    0  0.37176038054E+02 -0.19157500402E+02  0.11599848056E+02  0.43400738495E+02  0.00000000000E+00 0.  1.
         11    1    3    3    0    0 -0.14698585707E+02  0.63105360700E+01 -0.10379648461E+02  0.19068518288E+02  0.51100000000E-03 0. -1.
        -11    1    3    3    0    0 -0.87306831598E+01 -0.14154243687E+01  0.31712505548E+00  0.88503572324E+01  0.51100000000E-03 0.  1.
        -12    1    3    3    0    0 -0.13746769187E+02  0.14262388700E+02 -0.15373246503E+01  0.19868385984E+02  0.00000000000E+00 0.  1.
</event>
<event>
 7    1  0.4236733E-010  0.4778728E+02  0.7816164E-02  0.1312668E+00
        -11   -1    0    0    0    0  0.00000000000E+00  0.00000000000E+00  0.45593999997E+02  0.45594000000E+02  0.51100000000E-03 0.  1.
         11   -1    0    0    0    0 -0.00000000000E+00 -0.00000000000E+00 -0.45593999997E+02  0.45594000000E+02  0.51100000000E-03 0. -1.
    9900012    2    1    2    0    0 -0.35889697215E+02 -0.72491607662E+01 -0.23302405095E+02  0.47787276720E+02  0.20000025876E+02 0.  0.
        -12    1    1    2    0    0  0.35889697215E+02  0.72491607662E+01  0.23302405095E+02  0.43400723280E+02  0.00000000000E+00 0.  1.
         11    1    3    3    0    0 -0.44817410513E+01 -0.16697304247E+00 -0.15612715675E+01  0.47488369119E+01  0.51100000000E-03 0. -1.
        -11    1    3    3    0    0 -0.22853089667E+02 -0.12109529783E+02 -0.10158592148E+02  0.27786712896E+02  0.51100000000E-03 0.  1.
        -12    1    3    3    0    0 -0.85548664974E+01  0.50273420591E+01 -0.11582541380E+02  0.15251726912E+02  0.00000000000E+00 0.  1.
</event>
<event>
 7    1  0.4236733E-010  0.4778727E+02  0.7816164E-02  0.1312668E+00
        -11   -1    0    0    0    0  0.00000000000E+00  0.00000000000E+00  0.45593999997E+02  0.45594000000E+02  0.51100000000E-03 0. -1.
         11   -1    0    0    0    0 -0.00000000000E+00 -0.00000000000E+00 -0.45593999997E+02  0.45594000000E+02  0.51100000000E-03 0.  1.
    9900012    2    1    2    0    0 -0.40658912854E+02  0.37993515572E+01 -0.14698334932E+02  0.47787270553E+02  0.19999997761E+02 0.  0.
        -12    1    1    2    0    0  0.40658912854E+02 -0.37993515572E+01  0.14698334932E+02  0.43400729447E+02  0.00000000000E+00 0.  1.
         11    1    3    3    0    0  0.11171757138E+01 -0.76267375485E+00 -0.24206575382E+00  0.13741720861E+01  0.51100000000E-03 0. -1.
        -11    1    3    3    0    0 -0.34420035908E+01  0.12595053679E+01  0.24268776226E+01  0.43958477849E+01  0.51100000000E-03 0.  1.
         12    1    3    3    0    0 -0.38334084977E+02  0.33025199441E+01 -0.16883146801E+02  0.42017250682E+02  0.00000000000E+00 0. -1.
</event>
<event>
 7    1  0.4236733E-010  0.4778727E+02  0.7816164E-02  0.1312668E+00
        -11   -1    0    0    0    0  0.00000000000E+00  0.00000000000E+00  0.45593999997E+02  0.45594000000E+02  0.51100000000E-03 0.  1.
         11   -1    0    0    0    0 -0.00000000000E+00 -0.00000000000E+00 -0.45593999997E+02  0.45594000000E+02  0.51100000000E-03 0. -1.
    9900012    2    1    2    0    0 -0.19717761100E+02 -0.12308557213E+02 -0.36651497211E+02  0.47787274991E+02  0.20000017995E+02 0.  0.
        -12    1    1    2    0    0  0.19717761100E+02  0.12308557213E+02  0.36651497211E+02  0.43400725009E+02  0.00000000000E+00 0.  1.
         11    1    3    3    0    0 -0.28572304121E+00 -0.30802049937E+01 -0.14250500421E+02  0.14582388795E+02  0.51100000000E-03 0. -1.
        -11    1    3    3    0    0 -0.13205284336E+02 -0.38729915891E+01 -0.20637165259E+02  0.24804680777E+02  0.51100000000E-03 0.  1.
        -12    1    3    3    0    0 -0.62267537231E+01 -0.53553606306E+01 -0.17638315304E+01  0.84002054189E+01  0.00000000000E+00 0.  1.
</event>
<event>
 7    1  0.4236733E-010  0.4778728E+02  0.7816164E-02  0.1312668E+00
        -11   -1    0    0    0    0  0.00000000000E+00  0.00000000000E+00  0.45593999997E+02  0.45594000000E+02  0.51100000000E-03 0.  1.
         11   -1    0    0    0    0 -0.00000000000E+00 -0.00000000000E+00 -0.45593999997E+02  0.45594000000E+02  0.51100000000E-03 0. -1.
    9900012    2    1    2    0    0 -0.14766678092E+02 -0.23007774549E+02 -0.33707713565E+02  0.47787280820E+02  0.20000044568E+02 0.  0.
        -12    1    1    2    0    0  0.14766678092E+02  0.23007774549E+02  0.33707713565E+02  0.43400719180E+02  0.00000000000E+00 0.  1.
         11    1    3    3    0    0 -0.40749815069E+01 -0.10122804980E+02 -0.10500303135E+02  0.15143745280E+02  0.51100000000E-03 0. -1.
        -11    1    3    3    0    0 -0.25136947155E+01 -0.15436529824E+01  0.21748141349E+01  0.36648795936E+01  0.51100000000E-03 0.  1.
         12    1    3    3    0    0 -0.81780018695E+01 -0.11341316587E+02 -0.25382224566E+02  0.28978655946E+02  0.00000000000E+00 0. -1.
</event>
<event>
 7    1  0.4236733E-010  0.4778727E+02  0.7816164E-02  0.1312668E+00
        -11   -1    0    0    0    0  0.00000000000E+00  0.00000000000E+00  0.45593999997E+02  0.45594000000E+02  0.51100000000E-03 0. -1.
         11   -1    0    0    0    0 -0.00000000000E+00 -0.00000000000E+00 -0.45593999997E+02  0.45594000000E+02  0.51100000000E-03 0.  1.
    9900012    2    1    2    0    0  0.24303714113E+02 -0.31038077340E+02 -0.18154627631E+02  0.47787271100E+02  0.20000000253E+02 0.  0.
        -12    1    1    2    0    0 -0.24303714113E+02  0.31038077340E+02  0.18154627631E+02  0.43400728900E+02  0.00000000000E+00 0.  1.
         11    1    3    3    0    0  0.34589711468E+01  0.10781997161E+01 -0.18654948544E+01  0.40751769698E+01  0.51100000000E-03 0. -1.
        -11    1    3    3    0    0  0.13347066187E+02 -0.14424726823E+02 -0.19743845468E+01  0.19751331963E+02  0.51100000000E-03 0.  1.
         12    1    3    3    0    0  0.74976767791E+01 -0.17691550234E+02 -0.14314748230E+02  0.23960762167E+02  0.00000000000E+00 0. -1.
</event>
<event>
 7    1  0.4236733E-010  0.4778728E+02  0.7816164E-02  0.1312668E+00
        -11   -1    0    0    0    0  0.00000000000E+00  0.00000000000E+00  0.45593999997E+02  0.45594000000E+02  0.51100000000E-03 0.  1.
         11   -1    0    0    0    0 -0.00000000000E+00 -0.00000000000E+00 -0.45593999997E+02  0.45594000000E+02  0.51100000000E-03 0. -1.
    9900012    2    1    2    0    0  0.18267970363E+02  0.17235805986E+02 -0.35395348694E+02  0.47787280439E+02  0.20000042835E+02 0.  0.
        -12    1    1    2    0    0 -0.18267970363E+02 -0.17235805986E+02  0.35395348694E+02  0.43400719561E+02  0.00000000000E+00 0.  1.
         11    1    3    3    0    0  0.11133817474E+02  0.30646367668E+01 -0.17606632532E+02  0.21055816285E+02  0.51100000000E-03 0. -1.
        -11    1    3    3    0    0  0.10412195739E+02  0.10305561533E+02 -0.14909209659E+02  0.20902223603E+02  0.51100000000E-03 0.  1.
        -12    1    3    3    0    0 -0.32780428495E+01  0.38656076862E+01 -0.28795065029E+01  0.58292405514E+01  0.00000000000E+00 0.  1.
</event>
<event>
 7    1  0.4236733E-010  0.4778728E+02  0.7816164E-02  0.1312668E+00
        -11   -1    0    0    0    0  0.00000000000E+00  0.00000000000E+00  0.45593999997E+02  0.45594000000E+02  0.51100000000E-03 0.  1.
         11   -1    0    0    0    0 -0.00000000000E+00 -0.00000000000E+00 -0.45593999997E+02  0.45594000000E+02  0.51100000000E-03 0. -1.
    9900012    2    1    2    0    0 -0.24745871904E+02  0.22102710877E+02 -0.27977392780E+02  0.47787279831E+02  0.20000040062E+02 0.  0.
        -12    1    1    2    0    0  0.24745871904E+02 -0.22102710877E+02  0.27977392780E+02  0.43400720169E+02  0.00000000000E+00 0.  1.
         11    1    3    3    0    0 -0.34201041495E+01  0.60720992508E+01  0.86126699979E+00  0.70220568790E+01  0.51100000000E-03 0. -1.
        -11    1    3    3    0    0 -0.49741775760E+01  0.19288474649E+01 -0.82925900769E+00  0.53991263982E+01  0.51100000000E-03 0.  1.
         12    1    3    3    0    0 -0.16351590178E+02  0.14101764162E+02 -0.28009400773E+02  0.35366096554E+02  0.00000000000E+00 0. -1.
</event>
<event>
 7    1  0.4236733E-010  0.4778727E+02  0.7816164E-02  0.1312668E+00
        -11   -1    0    0    0    0  0.00000000000E+00  0.00000000000E+00  0.45593999997E+02  0.45594000000E+02  0.51100000000E-03 0.  1.
         11   -1    0    0    0    0 -0.00000000000E+00 -0.00000000000E+00 -0.45593999997E+02  0.45594000000E+02  0.51100000000E-03 0. -1.
    9900012    2    1    2    0    0  0.21761461986E+02  0.15512339076E+02 -0.34196921269E+02  0.47787270563E+02  0.19999997805E+02 0.  0.
        -12    1    1    2    0    0 -0.21761461986E+02 -0.15512339076E+02  0.34196921269E+02  0.43400729437E+02  0.00000000000E+00 0.  1.
         11    1    3    3    0    0  0.90065848757E+01 -0.11460205404E+01 -0.12682743438E+02  0.15597561206E+02  0.51100000000E-03 0.  1.
        -11    1    3    3    0    0  0.25211001631E+01  0.46690464809E+01 -0.13502058654E+02  0.14507292278E+02  0.51100000000E-03 0. -1.
        -12    1    3    3    0    0  0.10233776947E+02  0.11989313135E+02 -0.80121191772E+01  0.17682417079E+02  0.00000000000E+00 0.  1.
</event>
<event>
 7    1  0.4236733E-010  0.4778727E+02  0.7816164E-02  0.1312668E+00
        -11   -1    0    0    0    0  0.00000000000E+00  0.00000000000E+00  0.45593999997E+02  0.45594000000E+02  0.51100000000E-03 0. -1.
         11   -1    0    0    0    0 -0.00000000000E+00 -0.00000000000E+00 -0.45593999997E+02  0.45594000000E+02  0.51100000000E-03 0.  1.
    9900012    2    1    2    0    0  0.18463550709E+01 -0.42395025080E+02 -0.91036476854E+01  0.47787267520E+02  0.19999983932E+02 0.  0.
        -12    1    1    2    0    0 -0.18463550709E+01  0.42395025080E+02  0.91036476854E+01  0.43400732480E+02  0.00000000000E+00 0.  1.
         11    1    3    3    0    0 -0.28420344522E+01 -0.63128319876E+01 -0.17293054218E+01  0.71357904281E+01  0.51100000000E-03 0. -1.
        -11    1    3    3    0    0  0.92163493369E+01 -0.32813480796E+02 -0.45256994157E+01  0.34382372991E+02  0.51100000000E-03 0.  1.
        -12    1    3    3    0    0 -0.45279598138E+01 -0.32687122964E+01 -0.28486428479E+01  0.62691041008E+01  0.00000000000E+00 0.  1.
</event>
<event>
 7    1  0.4236733E-010  0.4778726E+02  0.7816164E-02  0.1312668E+00
        -11   -1    0    0    0    0  0.00000000000E+00  0.00000000000E+00  0.45593999997E+02  0.45594000000E+02  0.51100000000E-03 0.  1.
         11   -1    0    0    0    0 -0.00000000000E+00 -0.00000000000E+00 -0.45593999997E+02  0.45594000000E+02  0.51100000000E-03 0. -1.
    9900012    2    1    2    0    0  0.25246901398E+02 -0.31083720376E+01 -0.35164702553E+02  0.47787259079E+02  0.19999945444E+02 0.  0.
        -12    1    1    2    0    0 -0.25246901398E+02  0.31083720376E+01  0.35164702553E+02  0.43400740921E+02  0.00000000000E+00 0.  1.
         11    1    3    3    0    0  0.98589033681E+00  0.20900540807E+01 -0.53412136835E+00  0.23718329860E+01  0.51100000000E-03 0. -1.
        -11    1    3    3    0    0 -0.16332655303E+01  0.18061734879E+01 -0.18504307599E+01  0.30584167831E+01  0.51100000000E-03 0.  1.
         12    1    3    3    0    0  0.25894276591E+02 -0.70045996061E+01 -0.32780150424E+02  0.42357009310E+02  0.00000000000E+00 0. -1.
</event>
<event>
 7    1  0.4236733E-010  0.4778727E+02  0.7816164E-02  0.1312668E+00
        -11   -1    0    0    0    0  0.00000000000E+00  0.00000000000E+00  0.45593999997E+02  0.45594000000E+02  0.51100000000E-03 0. -1.
         11   -1    0    0    0    0 -0.00000000000E+00 -0.00000000000E+00 -0.45593999997E+02  0.45594000000E+02  0.51100000000E-03 0.  1.
    9900012    2    1    2    0    0 -0.18780274741E+02 -0.15615557173E+02  0.35875883930E+02  0.47787269672E+02  0.19999993745E+02 0.  0.
        -12    1    1    2    0    0  0.18780274741E+02  0.15615557173E+02 -0.35875883930E+02  0.43400730328E+02  0.00000000000E+00 0.  1.
         11    1    3    3    0    0 -0.58467517763E+01 -0.25798920677E+01  0.77576890680E+01  0.10050974547E+02  0.51100000000E-03 0. -1.
        -11    1    3    3    0    0 -0.73808012144E+01 -0.76177889340E+01  0.28038698486E+02  0.29977917671E+02  0.51100000000E-03 0.  1.
         12    1    3    3    0    0 -0.55527217508E+01 -0.54178761717E+01  0.79496375930E-01  0.77583774546E+01  0.00000000000E+00 0. -1.
</event>
<event>
 7    1  0.4236733E-010  0.4778727E+02  0.7816164E-02  0.1312668E+00
        -11   -1    0    0    0    0  0.00000000000E+00  0.00000000000E+00  0.45593999997E+02  0.45594000000E+02  0.51100000000E-03 0. -1.
         11   -1    0    0    0    0 -0.00000000000E+00 -0.00000000000E+00 -0.45593999997E+02  0.45594000000E+02  0.51100000000E-03 0.  1.
    9900012    2    1    2    0    0  0.17804395697E+02  0.14973315857E+02  0.36639146455E+02  0.47787265596E+02  0.19999975159E+02 0.  0.
        -12    1    1    2    0    0 -0.17804395697E+02 -0.14973315857E+02 -0.36639146455E+02  0.43400734404E+02  0.00000000000E+00 0.  1.
         11    1    3    3    0    0  0.17161053769E+02  0.15040997028E+02  0.32454563271E+02  0.39674072584E+02  0.51100000000E-03 0. -1.
        -11    1    3    3    0    0  0.26296390296E+01 -0.43682426929E+00  0.52064315473E+01  0.58491663155E+01  0.51100000000E-03 0.  1.
         12    1    3    3    0    0 -0.19862971012E+01  0.36914309848E+00 -0.10218483642E+01  0.22640266962E+01  0.00000000000E+00 0. -1.
</event>
<event>
 7    1  0.4236733E-010  0.4778727E+02  0.7816164E-02  0.1312668E+00
        -11   -1    0    0    0    0  0.00000000000E+00  0.00000000000E+00  0.45593999997E+02  0.45594000000E+02  0.51100000000E-03 0.  1.
         11   -1    0    0    0    0 -0.00000000000E+00 -0.00000000000E+00 -0.45593999997E+02  0.45594000000E+02  0.51100000000E-03 0. -1.
    9900012    2    1    2    0    0  0.17953438983E+02 -0.21116239438E+02 -0.33397631907E+02  0.47787270094E+02  0.19999995668E+02 0.  0.
        -12    1    1    2    0    0 -0.17953438983E+02  0.21116239438E+02  0.33397631907E+02  0.43400729906E+02  0.00000000000E+00 0.  1.
         11    1    3    3    0    0  0.13748006547E+02 -0.14797277647E+02 -0.90916768010E+01  0.22150072169E+02  0.51100000000E-03 0. -1.
        -11    1    3    3    0    0 -0.44371472280E+00 -0.51635344844E+00 -0.28222652175E+01  0.29032197399E+01  0.51100000000E-03 0.  1.
        -12    1    3    3    0    0  0.46491471588E+01 -0.58026083423E+01 -0.21483689889E+02  0.22733978185E+02  0.00000000000E+00 0.  1.
</event>
<event>
 7    1  0.4236733E-010  0.4778727E+02  0.7816164E-02  0.1312668E+00
        -11   -1    0    0    0    0  0.00000000000E+00  0.00000000000E+00  0.45593999997E+02  0.45594000000E+02  0.51100000000E-03 0.  1.
         11   -1    0    0    0    0 -0.00000000000E+00 -0.00000000000E+00 -0.45593999997E+02  0.45594000000E+02  0.51100000000E-03 0. -1.
    9900012    2    1    2    0    0 -0.20953970312E+02  0.24427778859E+01 -0.37928712690E+02  0.47787270951E+02  0.19999999576E+02 0.  0.
        -12    1    1    2    0    0  0.20953970312E+02 -0.24427778859E+01  0.37928712690E+02  0.43400729049E+02  0.00000000000E+00 0.  1.
         11    1    3    3    0    0 -0.17853123842E+02 -0.19085214108E+01 -0.32167504547E+02  0.36839175261E+02  0.51100000000E-03 0. -1.
        -11    1    3    3    0    0  0.59215152105E+00 -0.15143027030E+01 -0.31431277304E+01  0.35387862737E+01  0.51100000000E-03 0.  1.
         12    1    3    3    0    0 -0.36929979910E+01  0.58656019998E+01 -0.26180804126E+01  0.74093094164E+01  0.00000000000E+00 0. -1.
</event>
<event>
 7    1  0.4236733E-010  0.4778727E+02  0.7816164E-02  0.1312668E+00
        -11   -1    0    0    0    0  0.00000000000E+00  0.00000000000E+00  0.45593999997E+02  0.45594000000E+02  0.51100000000E-03 0. -1.
         11   -1    0    0    0    0 -0.00000000000E+00 -0.00000000000E+00 -0.45593999997E+02  0.45594000000E+02  0.51100000000E-03 0.  1.
    9900012    2    1    2    0    0 -0.37380833959E+02 -0.32252270733E+01  0.21815015001E+02  0.47787265944E+02  0.19999976744E+02 0.  0.
        -12    1    1    2    0    0  0.37380833959E+02  0.32252270733E+01 -0.21815015001E+02  0.43400734056E+02  0.00000000000E+00 0.  1.
         11    1    3    3    0    0 -0.14990484335E+02 -0.31020657929E+01  0.54059933784E+01  0.16234598777E+02  0.51100000000E-03 0.  1.
        -11    1    3    3    0    0 -0.73061221233E+01 -0.72184080561E+01  0.58392799301E+01  0.11814483726E+02  0.51100000000E-03 0. -1.
        -12    1    3    3    0    0 -0.15084227500E+02  0.70952467758E+01  0.10569741693E+02  0.19738183441E+02  0.00000000000E+00 0.  1.
</event>
<event>
 7    1  0.4236733E-010  0.4778727E+02  0.7816164E-02  0.1312668E+00
        -11   -1    0    0    0    0  0.00000000000E+00  0.00000000000E+00  0.45593999997E+02  0.45594000000E+02  0.51100000000E-03 0.  1.
         11   -1    0    0    0    0 -0.00000000000E+00 -0.00000000000E+00 -0.45593999997E+02  0.45594000000E+02  0.51100000000E-03 0. -1.
    9900012    2    1    2    0    0 -0.21552678652E+02  0.34096296278E+02 -0.16017120756E+02  0.47787268045E+02  0.19999986325E+02 0.  0.
        -12    1    1    2    0    0  0.21552678652E+02 -0.34096296278E+02  0.16017120756E+02  0.43400731955E+02  0.00000000000E+00 0.  1.
         11    1    3    3    0    0 -0.60019523894E+01  0.13650638196E+01 -0.18332619088E+01  0.64224357687E+01  0.51100000000E-03 0.  1.
        -11    1    3    3    0    0 -0.15510440122E+02  0.18040695468E+02 -0.59509091332E+01  0.24524554338E+02  0.51100000000E-03 0. -1.
        -12    1    3    3    0    0 -0.40286140842E-01  0.14690536990E+02 -0.82329497137E+01  0.16840277938E+02  0.00000000000E+00 0.  1.
</event>
<event>
 7    1  0.4236733E-010  0.4778726E+02  0.7816164E-02  0.1312668E+00
        -11   -1    0    0    0    0  0.00000000000E+00  0.00000000000E+00  0.45593999997E+02  0.45594000000E+02  0.51100000000E-03 0.  1.
         11   -1    0    0    0    0 -0.00000000000E+00 -0.00000000000E+00 -0.45593999997E+02  0.45594000000E+02  0.51100000000E-03 0. -1.
    9900012    2    1    2    0    0  0.10480673782E+02 -0.26343551956E+02 -0.32860259370E+02  0.47787263849E+02  0.19999967192E+02 0.  0.
        -12    1    1    2    0    0 -0.10480673782E+02  0.26343551956E+02  0.32860259370E+02  0.43400736151E+02  0.00000000000E+00 0.  1.
         11    1    3    3    0    0  0.74295556107E+01 -0.18545385231E+02 -0.25562288876E+02  0.32443184535E+02  0.51100000000E-03 0. -1.
        -11    1    3    3    0    0 -0.25156454595E+01 -0.30207836735E+01 -0.69686831234E+01  0.80010093623E+01  0.51100000000E-03 0.  1.
         12    1    3    3    0    0  0.55667636310E+01 -0.47773830509E+01 -0.32928737115E+00  0.73430699514E+01  0.00000000000E+00 0. -1.
</event>
<event>
 7    1  0.4236733E-010  0.4778727E+02  0.7816164E-02  0.1312668E+00
        -11   -1    0    0    0    0  0.00000000000E+00  0.00000000000E+00  0.45593999997E+02  0.45594000000E+02  0.51100000000E-03 0.  1.
         11   -1    0    0    0    0 -0.00000000000E+00 -0.00000000000E+00 -0.45593999997E+02  0.45594000000E+02  0.51100000000E-03 0. -1.
    9900012    2    1    2    0    0  0.22584865059E+02 -0.36952899424E+02  0.28338094362E+01  0.47787269804E+02  0.19999994347E+02 0.  0.
        -12    1    1    2    0    0 -0.22584865059E+02  0.36952899424E+02 -0.28338094362E+01  0.43400730196E+02  0.00000000000E+00 0.  1.
         11    1    3    3    0    0  0.14599229983E+02 -0.13886080589E+02  0.82284187765E+01  0.21763906497E+02  0.51100000000E-03 0. -1.
        -11    1    3    3    0    0  0.17558996581E+01 -0.10355049208E+02  0.87837211285E+00  0.10539533459E+02  0.51100000000E-03 0.  1.
         12    1    3    3    0    0  0.62297354175E+01 -0.12711769628E+02 -0.62729814532E+01  0.15483829848E+02  0.00000000000E+00 0. -1.
</event>
<event>
 7    1  0.4236733E-010  0.4778727E+02  0.7816164E-02  0.1312668E+00
        -11   -1    0    0    0    0  0.00000000000E+00  0.00000000000E+00  0.45593999997E+02  0.45594000000E+02  0.51100000000E-03 0.  1.
         11   -1    0    0    0    0 -0.00000000000E+00 -0.00000000000E+00 -0.45593999997E+02  0.45594000000E+02  0.51100000000E-03 0. -1.
    9900012    2    1    2    0    0  0.18592710890E+02  0.27684108641E+02 -0.27776331988E+02  0.47787269728E+02  0.19999993998E+02 0.  0.
        -12    1    1    2    0    0 -0.18592710890E+02 -0.27684108641E+02  0.27776331988E+02  0.43400730272E+02  0.00000000000E+00 0.  1.
         11    1    3    3    0    0  0.13655014027E+02  0.12638443064E+02 -0.40867081846E+01  0.19049693834E+02  0.51100000000E-03 0. -1.
        -11    1    3    3    0    0  0.18455249923E+00  0.58221667471E+01 -0.72960264753E+01  0.93361495192E+01  0.51100000000E-03 0.  1.
         12    1    3    3    0    0  0.47531443639E+01  0.92234988298E+01 -0.16393597328E+02  0.19401426374E+02  0.00000000000E+00 0. -1.
</event>
<event>
 7    1  0.4236733E-010  0.4778727E+02  0.7816164E-02  0.1312668E+00
        -11   -1    0    0    0    0  0.00000000000E+00  0.00000000000E+00  0.45593999997E+02  0.45594000000E+02  0.51100000000E-03 0. -1.
         11   -1    0    0    0    0 -0.00000000000E+00 -0.00000000000E+00 -0.45593999997E+02  0.45594000000E+02  0.51100000000E-03 0.  1.
    9900012    2    1    2    0    0  0.35935626294E+01 -0.22831264176E+02  0.36734766718E+02  0.47787269568E+02  0.19999993267E+02 0.  0.
        -12    1    1    2    0    0 -0.35935626294E+01  0.22831264176E+02 -0.36734766718E+02  0.43400730432E+02  0.00000000000E+00 0.  1.
         11    1    3    3    0    0  0.14332218428E+01 -0.18910801387E+01  0.15996713326E+01  0.28616878892E+01  0.51100000000E-03 0. -1.
        -11    1    3    3    0    0 -0.42219484642E+01 -0.68876310927E+01  0.25457186691E+02  0.26708288327E+02  0.51100000000E-03 0.  1.
        -12    1    3    3    0    0  0.63822892508E+01 -0.14052552945E+02  0.96779086945E+01  0.18217293351E+02  0.00000000000E+00 0.  1.
</event>
<event>
 7    1  0.4236733E-010  0.4778727E+02  0.7816164E-02  0.1312668E+00
        -11   -1    0    0    0    0  0.00000000000E+00  0.00000000000E+00  0.45593999997E+02  0.45594000000E+02  0.51100000000E-03 0.  1.
         11   -1    0    0    0    0 -0.00000000000E+00 -0.00000000000E+00 -0.45593999997E+02  0.45594000000E+02  0.51100000000E-03 0. -1.
    9900012    2    1    2    0    0  0.84622893319E+01  0.35939453285E+02 -0.22811589460E+02  0.47787271241E+02  0.20000000896E+02 0.  0.
        -12    1    1    2    0    0 -0.84622893319E+01 -0.35939453285E+02  0.22811589460E+02  0.43400728759E+02  0.00000000000E+00 0.  1.
         11    1    3    3    0    0 -0.39819388082E-01  0.97022622829E+01 -0.11034042544E+02  0.14693045094E+02  0.51100000000E-03 0. -1.
        -11    1    3    3    0    0 -0.35976616941E+01  0.86475241682E+01 -0.18393620424E+01  0.95449513822E+01  0.51100000000E-03 0.  1.
         12    1    3    3    0    0  0.12099770414E+02  0.17589666834E+02 -0.99381848728E+01  0.23549274765E+02  0.00000000000E+00 0. -1.
</event>
<event>
 7    1  0.4236733E-010  0.4778727E+02  0.7816164E-02  0.1312668E+00
        -11   -1    0    0    0    0  0.00000000000E+00  0.00000000000E+00  0.45593999997E+02  0.45594000000E+02  0.51100000000E-03 0.  1.
         11   -1    0    0    0    0 -0.00000000000E+00 -0.00000000000E+00 -0.45593999997E+02  0.45594000000E+02  0.51100000000E-03 0. -1.
    9900012    2    1    2    0    0 -0.28865090861E+01 -0.20967768632E+02 -0.37889895158E+02  0.47787269462E+02  0.19999992784E+02 0.  0.
        -12    1    1    2    0    0  0.28865090861E+01  0.20967768632E+02  0.37889895158E+02  0.43400730538E+02  0.00000000000E+00 0.  1.
         11    1    3    3    0    0  0.32441331968E+01 -0.11405644716E+02 -0.32670249886E+02  0.34755695353E+02  0.51100000000E-03 0. -1.
        -11    1    3    3    0    0 -0.13711070490E+01 -0.45800326606E+01 -0.35141853555E+01  0.59334755992E+01  0.51100000000E-03 0.  1.
         12    1    3    3    0    0 -0.47595352338E+01 -0.49820912558E+01 -0.17054599165E+01  0.70980985094E+01  0.00000000000E+00 0. -1.
</event>
<event>
 7    1  0.4236733E-010  0.4778727E+02  0.7816164E-02  0.1312668E+00
        -11   -1    0    0    0    0  0.00000000000E+00  0.00000000000E+00  0.45593999997E+02  0.45594000000E+02  0.51100000000E-03 0. -1.
         11   -1    0    0    0    0 -0.00000000000E+00 -0.00000000000E+00 -0.45593999997E+02  0.45594000000E+02  0.51100000000E-03 0.  1.
    9900012    2    1    2    0    0  0.66165918845E+01  0.36809026352E+02  0.22021347512E+02  0.47787268954E+02  0.19999990467E+02 0.  0.
        -12    1    1    2    0    0 -0.66165918845E+01 -0.36809026352E+02 -0.22021347512E+02  0.43400731046E+02  0.00000000000E+00 0.  1.
         11    1    3    3    0    0  0.55886547088E+01  0.19433533710E+02  0.80182894359E+01  0.21752890834E+02  0.51100000000E-03 0. -1.
        -11    1    3    3    0    0  0.56461482754E+01  0.77931881463E+01  0.11702567912E+02  0.15151332213E+02  0.51100000000E-03 0.  1.
        -12    1    3    3    0    0 -0.46182110998E+01  0.95823044956E+01  0.23004901640E+01  0.10883045906E+02  0.00000000000E+00 0.  1.
</event>
<event>
 7    1  0.4236733E-010  0.4778727E+02  0.7816164E-02  0.1312668E+00
        -11   -1    0    0    0    0  0.00000000000E+00  0.00000000000E+00  0.45593999997E+02  0.45594000000E+02  0.51100000000E-03 0. -1.
         11   -1    0    0    0    0 -0.00000000000E+00 -0.00000000000E+00 -0.45593999997E+02  0.45594000000E+02  0.51100000000E-03 0.  1.
    9900012    2    1    2    0    0  0.10560848427E+02 -0.31180433152E+02  0.28282013138E+02  0.47787271916E+02  0.20000003974E+02 0.  0.
        -12    1    1    2    0    0 -0.10560848427E+02  0.31180433152E+02 -0.28282013138E+02  0.43400728084E+02  0.00000000000E+00 0.  1.
         11    1    3    3    0    0  0.40677530812E+01 -0.22262844303E+01  0.65573591660E+01  0.80313085476E+01  0.51100000000E-03 0. -1.
        -11    1    3    3    0    0 -0.12423698377E+00 -0.25356042869E+02  0.19222311919E+02  0.31818887796E+02  0.51100000000E-03 0.  1.
        -12    1    3    3    0    0  0.66173323299E+01 -0.35981058533E+01  0.25023420529E+01  0.79370755726E+01  0.00000000000E+00 0.  1.
</event>
<event>
 7    1  0.4236733E-010  0.4778727E+02  0.7816164E-02  0.1312668E+00
        -11   -1    0    0    0    0  0.00000000000E+00  0.00000000000E+00  0.45593999997E+02  0.45594000000E+02  0.51100000000E-03 0. -1.
         11   -1    0    0    0    0 -0.00000000000E+00 -0.00000000000E+00 -0.45593999997E+02  0.45594000000E+02  0.51100000000E-03 0.  1.
    9900012    2    1    2    0    0  0.43203696559E+02 -0.11323031845E+01  0.39726360348E+01  0.47787270238E+02  0.19999996322E+02 0.  0.
        -12    1    1    2    0    0 -0.43203696559E+02  0.11323031845E+01 -0.39726360348E+01  0.43400729762E+02  0.00000000000E+00 0.  1.
         11    1    3    3    0    0 -0.15795668673E+01  0.10969902734E-01  0.22976360200E+00  0.15962278662E+01  0.51100000000E-03 0. -1.
        -11    1    3    3    0    0  0.19001333308E+01  0.19241373612E+01 -0.11143806198E+01  0.29248343007E+01  0.51100000000E-03 0.  1.
         12    1    3    3    0    0  0.42883130095E+02 -0.30674104485E+01  0.48572530526E+01  0.43266208071E+02  0.00000000000E+00 0. -1.
</event>
<event>
 7    1  0.4236733E-010  0.4778727E+02  0.7816164E-02  0.1312668E+00
        -11   -1    0    0    0    0  0.00000000000E+00  0.00000000000E+00  0.45593999997E+02  0.45594000000E+02  0.51100000000E-03 0.  1.
         11   -1    0    0    0    0 -0.00000000000E+00 -0.00000000000E+00 -0.45593999997E+02  0.45594000000E+02  0.51100000000E-03 0. -1.
    9900012    2    1    2    0    0 -0.16471277871E+02 -0.90164363943E+01 -0.39128303986E+02  0.47787270826E+02  0.19999999005E+02 0.  0.
        -12    1    1    2    0    0  0.16471277871E+02  0.90164363943E+01  0.39128303986E+02  0.43400729174E+02  0.00000000000E+00 0.  1.
         11    1    3    3    0    0 -0.62823652710E+01  0.28514734537E+01 -0.12154431787E+02  0.13976023275E+02  0.51100000000E-03 0. -1.
        -11    1    3    3    0    0  0.27603724716E+01 -0.40873679175E+00 -0.19906883862E+01  0.34277634776E+01  0.51100000000E-03 0.  1.
         12    1    3    3    0    0 -0.12949285072E+02 -0.11459173056E+02 -0.24983183813E+02  0.30383484074E+02  0.00000000000E+00 0. -1.
</event>
<event>
 7    1  0.4236733E-010  0.4778727E+02  0.7816164E-02  0.1312668E+00
        -11   -1    0    0    0    0  0.00000000000E+00  0.00000000000E+00  0.45593999997E+02  0.45594000000E+02  0.51100000000E-03 0. -1.
         11   -1    0    0    0    0 -0.00000000000E+00 -0.00000000000E+00 -0.45593999997E+02  0.45594000000E+02  0.51100000000E-03 0.  1.
    9900012    2    1    2    0    0 -0.62272618304E+00 -0.22291443193E+02  0.37233408744E+02  0.47787274727E+02  0.20000016790E+02 0.  0.
        -12    1    1    2    0    0  0.62272618304E+00  0.22291443193E+02 -0.37233408744E+02  0.43400725273E+02  0.00000000000E+00 0.  1.
         11    1    3    3    0    0  0.22350784475E+01 -0.12508873627E+02  0.53788220926E+01  0.13798522474E+02  0.51100000000E-03 0.  1.
        -11    1    3    3    0    0 -0.11070941041E+01 -0.71912932216E+01  0.13187767422E+02  0.15061791573E+02  0.51100000000E-03 0. -1.
        -12    1    3    3    0    0 -0.17507105265E+01 -0.25912763436E+01  0.18666819230E+02  0.18926960680E+02  0.00000000000E+00 0.  1.
</event>
<event>
 7    1  0.4236733E-010  0.4778727E+02  0.7816164E-02  0.1312668E+00
        -11   -1    0    0    0    0  0.00000000000E+00  0.00000000000E+00  0.45593999997E+02  0.45594000000E+02  0.51100000000E-03 0.  1.
         11   -1    0    0    0    0 -0.00000000000E+00 -0.00000000000E+00 -0.45593999997E+02  0.45594000000E+02  0.51100000000E-03 0. -1.
    9900012    2    1    2    0    0  0.42111639121E+02 -0.10498639988E+02 -0.10813402961E+00  0.47787270927E+02  0.19999999467E+02 0.  0.
        -12    1    1    2    0    0 -0.42111639121E+02  0.10498639988E+02  0.10813402961E+00  0.43400729073E+02  0.00000000000E+00 0.  1.
         11    1    3    3    0    0  0.42431273783E+01 -0.39409258308E+01 -0.92363662251E+00  0.58641394274E+01  0.51100000000E-03 0.  1.
        -11    1    3    3    0    0  0.62572141317E+01 -0.72543121246E+01 -0.30848698278E+01  0.10064501737E+02  0.51100000000E-03 0. -1.
         12    1    3    3    0    0  0.31611297611E+02  0.69659796714E+00  0.39003724207E+01  0.31858629763E+02  0.00000000000E+00 0. -1.
</event>
<event>
 7    1  0.4236733E-010  0.4778727E+02  0.7816164E-02  0.1312668E+00
        -11   -1    0    0    0    0  0.00000000000E+00  0.00000000000E+00  0.45593999997E+02  0.45594000000E+02  0.51100000000E-03 0.  1.
         11   -1    0    0    0    0 -0.00000000000E+00 -0.00000000000E+00 -0.45593999997E+02  0.45594000000E+02  0.51100000000E-03 0. -1.
    9900012    2    1    2    0    0 -0.23440532120E+02 -0.35796145681E+02 -0.72664147552E+01  0.47787269878E+02  0.19999994684E+02 0.  0.
        -12    1    1    2    0    0  0.23440532120E+02  0.35796145681E+02  0.72664147552E+01  0.43400730122E+02  0.00000000000E+00 0.  1.
         11    1    3    3    0    0  0.22033071593E+01 -0.35731148264E+01  0.15557454733E+01  0.44768355162E+01  0.51100000000E-03 0. -1.
        -11    1    3    3    0    0 -0.91429894651E+01 -0.61567003664E+01  0.64164435394E+00  0.11041327977E+02  0.51100000000E-03 0.  1.
         12    1    3    3    0    0 -0.16500849814E+02 -0.26066330489E+02 -0.94638045824E+01  0.32269106385E+02  0.00000000000E+00 0. -1.
</event>
<event>
 7    1  0.4236733E-010  0.4778727E+02  0.7816164E-02  0.1312668E+00
        -11   -1    0    0    0    0  0.00000000000E+00  0.00000000000E+00  0.45593999997E+02  0.45594000000E+02  0.51100000000E-03 0.  1.
         11   -1    0    0    0    0 -0.00000000000E+00 -0.00000000000E+00 -0.45593999997E+02  0.45594000000E+02  0.51100000000E-03 0. -1.
    9900012    2    1    2    0    0 -0.33521911332E+02 -0.24863767346E+02  0.11903697621E+02  0.47787268635E+02  0.19999989014E+02 0.  0.
        -12    1    1    2    0    0  0.33521911332E+02  0.24863767346E+02 -0.11903697621E+02  0.43400731365E+02  0.00000000000E+00 0.  1.
         11    1    3    3    0    0 -0.94931841086E+01 -0.11940556110E+01 -0.69353191313E+00  0.95930860570E+01  0.51100000000E-03 0. -1.
        -11    1    3    3    0    0 -0.14154118447E+02 -0.82044656203E+01  0.79914832070E+00  0.16379589843E+02  0.51100000000E-03 0.  1.
         12    1    3    3    0    0 -0.98746087763E+01 -0.15465246114E+02  0.11798081214E+02  0.21814592735E+02  0.00000000000E+00 0. -1.
</event>
<event>
 7    1  0.4236733E-010  0.4778727E+02  0.7816164E-02  0.1312668E+00
        -11   -1    0    0    0    0  0.00000000000E+00  0.00000000000E+00  0.45593999997E+02  0.45594000000E+02  0.51100000000E-03 0.  1.
         11   -1    0    0    0    0 -0.00000000000E+00 -0.00000000000E+00 -0.45593999997E+02  0.45594000000E+02  0.51100000000E-03 0. -1.
    9900012    2    1    2    0    0  0.21853475967E+02  0.33625724819E+01 -0.37346242623E+02  0.47787272545E+02  0.20000006843E+02 0.  0.
        -12    1    1    2    0    0 -0.21853475967E+02 -0.33625724819E+01  0.37346242623E+02  0.43400727455E+02  0.00000000000E+00 0.  1.
         11    1    3    3    0    0  0.71192162478E+01 -0.20222998893E+00 -0.70037590876E+01  0.99888326931E+01  0.51100000000E-03 0. -1.
        -11    1    3    3    0    0  0.50298917795E+01 -0.27279466658E+01 -0.23866417123E+02  0.24542766162E+02  0.51100000000E-03 0.  1.
        -12    1    3    3    0    0  0.97043679396E+01  0.62927491366E+01 -0.64760664124E+01  0.13255673690E+02  0.00000000000E+00 0.  1.
</event>
<event>
 7    1  0.4236733E-010  0.4778727E+02  0.7816164E-02  0.1312668E+00
        -11   -1    0    0    0    0  0.00000000000E+00  0.00000000000E+00  0.45593999997E+02  0.45594000000E+02  0.51100000000E-03 0.  1.
         11   -1    0    0    0    0 -0.00000000000E+00 -0.00000000000E+00 -0.45593999997E+02  0.45594000000E+02  0.51100000000E-03 0. -1.
    9900012    2    1    2    0    0  0.27764707317E+02  0.33263546970E+02 -0.25061171792E+01  0.47787272439E+02  0.20000006360E+02 0.  0.
        -12    1    1    2    0    0 -0.27764707317E+02 -0.33263546970E+02  0.25061171792E+01  0.43400727561E+02  0.00000000000E+00 0.  1.
         11    1    3    3    0    0  0.75543983130E+01  0.21253786237E+02 -0.21754577453E+01  0.22661089558E+02  0.51100000000E-03 0. -1.
        -11    1    3    3    0    0  0.13791251082E+01  0.15433603575E+01  0.26652393062E+01  0.33745293120E+01  0.51100000000E-03 0.  1.
        -12    1    3    3    0    0  0.18831183896E+02  0.10466400376E+02 -0.29958987400E+01  0.21751653570E+02  0.00000000000E+00 0.  1.
</event>
<event>
 7    1  0.4236733E-010  0.4778728E+02  0.7816164E-02  0.1312668E+00
        -11   -1    0    0    0    0  0.00000000000E+00  0.00000000000E+00  0.45593999997E+02  0.45594000000E+02  0.51100000000E-03 0.  1.
         11   -1    0    0    0    0 -0.00000000000E+00 -0.00000000000E+00 -0.45593999997E+02  0.45594000000E+02  0.51100000000E-03 0. -1.
    9900012    2    1    2    0    0  0.19853543746E+02  0.38166717072E+02 -0.57237455396E+01  0.47787277030E+02  0.20000027291E+02 0.  0.
        -12    1    1    2    0    0 -0.19853543746E+02 -0.38166717072E+02  0.57237455396E+01  0.43400722970E+02  0.00000000000E+00 0.  1.
         11    1    3    3    0    0  0.97186431914E+01  0.32083280553E+02 -0.73101697454E+01  0.34310749023E+02  0.51100000000E-03 0. -1.
        -11    1    3    3    0    0  0.59074910805E+01  0.54886144212E+01 -0.15085615779E+01  0.82036027102E+01  0.51100000000E-03 0.  1.
         12    1    3    3    0    0  0.42274094741E+01  0.59482209722E+00  0.30949857836E+01  0.52729252972E+01  0.00000000000E+00 0. -1.
</event>
<event>
 7    1  0.4236733E-010  0.4778727E+02  0.7816164E-02  0.1312668E+00
        -11   -1    0    0    0    0  0.00000000000E+00  0.00000000000E+00  0.45593999997E+02  0.45594000000E+02  0.51100000000E-03 0.  1.
         11   -1    0    0    0    0 -0.00000000000E+00 -0.00000000000E+00 -0.45593999997E+02  0.45594000000E+02  0.51100000000E-03 0. -1.
    9900012    2    1    2    0    0  0.15753295125E+02 -0.17207116102E+02 -0.36597432431E+02  0.47787271753E+02  0.20000003229E+02 0.  0.
        -12    1    1    2    0    0 -0.15753295125E+02  0.17207116102E+02  0.36597432431E+02  0.43400728247E+02  0.00000000000E+00 0.  1.
         11    1    3    3    0    0  0.32148020305E+01 -0.29452069836E+01 -0.47560559607E+01  0.64520744597E+01  0.51100000000E-03 0. -1.
        -11    1    3    3    0    0 -0.23035034290E+01 -0.10625277741E+00 -0.13885543609E+02  0.14075714521E+02  0.51100000000E-03 0.  1.
        -12    1    3    3    0    0  0.14841996524E+02 -0.14155656341E+02 -0.17955832862E+02  0.27259482772E+02  0.00000000000E+00 0.  1.
</event>
<event>
 7    1  0.4236733E-010  0.4778727E+02  0.7816164E-02  0.1312668E+00
        -11   -1    0    0    0    0  0.00000000000E+00  0.00000000000E+00  0.45593999997E+02  0.45594000000E+02  0.51100000000E-03 0.  1.
         11   -1    0    0    0    0 -0.00000000000E+00 -0.00000000000E+00 -0.45593999997E+02  0.45594000000E+02  0.51100000000E-03 0. -1.
    9900012    2    1    2    0    0  0.18981190940E+02 -0.16812426608E+02 -0.35223286176E+02  0.47787272046E+02  0.20000004565E+02 0.  0.
        -12    1    1    2    0    0 -0.18981190940E+02  0.16812426608E+02  0.35223286176E+02  0.43400727954E+02  0.00000000000E+00 0.  1.
         11    1    3    3    0    0  0.44110794947E+01  0.17604726137E+01 -0.13608755821E+02  0.14413712963E+02  0.51100000000E-03 0. -1.
        -11    1    3    3    0    0  0.72839426999E+00 -0.65934111235E+00  0.98104217246E+00  0.13884282193E+01  0.51100000000E-03 0.  1.
        -12    1    3    3    0    0  0.13841717175E+02 -0.17913558109E+02 -0.22595572528E+02  0.31985130863E+02  0.00000000000E+00 0.  1.
</event>
<event>
 7    1  0.4236733E-010  0.4778727E+02  0.7816164E-02  0.1312668E+00
        -11   -1    0    0    0    0  0.00000000000E+00  0.00000000000E+00  0.45593999997E+02  0.45594000000E+02  0.51100000000E-03 0. -1.
         11   -1    0    0    0    0 -0.00000000000E+00 -0.00000000000E+00 -0.45593999997E+02  0.45594000000E+02  0.51100000000E-03 0.  1.
    9900012    2    1    2    0    0  0.25892206235E+02  0.85546784504E+01  0.33764397545E+02  0.47787269492E+02  0.19999992921E+02 0.  0.
        -12    1    1    2    0    0 -0.25892206235E+02 -0.85546784504E+01 -0.33764397545E+02  0.43400730508E+02  0.00000000000E+00 0.  1.
         11    1    3    3    0    0  0.62208138218E+01  0.30288845372E+01  0.10379925214E+02  0.12474594737E+02  0.51100000000E-03 0. -1.
        -11    1    3    3    0    0  0.16961434519E+02  0.10905936197E+02  0.20007963408E+02  0.28406835538E+02  0.51100000000E-03 0.  1.
        -12    1    3    3    0    0  0.27099578938E+01 -0.53801422842E+01  0.33765089233E+01  0.69058392172E+01  0.00000000000E+00 0.  1.
</event>
<event>
 7    1  0.4236733E-010  0.4778726E+02  0.7816164E-02  0.1312668E+00
        -11   -1    0    0    0    0  0.00000000000E+00  0.00000000000E+00  0.45593999997E+02  0.45594000000E+02  0.51100000000E-03 0.  1.
         11   -1    0    0    0    0 -0.00000000000E+00 -0.00000000000E+00 -0.45593999997E+02  0.45594000000E+02  0.51100000000E-03 0. -1.
    9900012    2    1    2    0    0 -0.30524450256E+02 -0.30648624812E+02  0.35417132802E+01  0.47787262687E+02  0.19999961897E+02 0.  0.
        -12    1    1    2    0    0  0.30524450256E+02  0.30648624812E+02 -0.35417132802E+01  0.43400737313E+02  0.00000000000E+00 0.  1.
         11    1    3    3    0    0 -0.12865067755E+02 -0.16023207584E+02 -0.39974160254E+01  0.20934003075E+02  0.51100000000E-03 0. -1.
        -11    1    3    3    0    0 -0.16847812551E+02 -0.15864303964E+02  0.46461519654E+01  0.23603212840E+02  0.51100000000E-03 0.  1.
        -12    1    3    3    0    0 -0.81156995016E+00  0.12388867361E+01  0.28929773402E+01  0.32500467719E+01  0.00000000000E+00 0.  1.
</event>
<event>
 7    1  0.4236733E-010  0.4778727E+02  0.7816164E-02  0.1312668E+00
        -11   -1    0    0    0    0  0.00000000000E+00  0.00000000000E+00  0.45593999997E+02  0.45594000000E+02  0.51100000000E-03 0.  1.
         11   -1    0    0    0    0 -0.00000000000E+00 -0.00000000000E+00 -0.45593999997E+02  0.45594000000E+02  0.51100000000E-03 0. -1.
    9900012    2    1    2    0    0 -0.31330135560E+02 -0.27707538897E+02 -0.11590429186E+02  0.47787272418E+02  0.20000006264E+02 0.  0.
        -12    1    1    2    0    0  0.31330135560E+02  0.27707538897E+02  0.11590429186E+02  0.43400727582E+02  0.00000000000E+00 0.  1.
         11    1    3    3    0    0 -0.10355351620E+02 -0.10426016878E+02  0.36324926025E+01  0.15137045216E+02  0.51100000000E-03 0. -1.
        -11    1    3    3    0    0 -0.12056191884E+02 -0.15498729363E+02 -0.88095819902E+01  0.21521410495E+02  0.51100000000E-03 0.  1.
        -12    1    3    3    0    0 -0.89185920563E+01 -0.17827926554E+01 -0.64133397983E+01  0.11128816706E+02  0.00000000000E+00 0.  1.
</event>
<event>
 7    1  0.4236733E-010  0.4778727E+02  0.7816164E-02  0.1312668E+00
        -11   -1    0    0    0    0  0.00000000000E+00  0.00000000000E+00  0.45593999997E+02  0.45594000000E+02  0.51100000000E-03 0. -1.
         11   -1    0    0    0    0 -0.00000000000E+00 -0.00000000000E+00 -0.45593999997E+02  0.45594000000E+02  0.51100000000E-03 0.  1.
    9900012    2    1    2    0    0  0.12807084949E+02  0.27586763281E+02  0.30960821818E+02  0.47787269351E+02  0.19999992278E+02 0.  0.
        -12    1    1    2    0    0 -0.12807084949E+02 -0.27586763281E+02 -0.30960821818E+02  0.43400730649E+02  0.00000000000E+00 0.  1.
         11    1    3    3    0    0  0.18346002773E+01  0.73291429789E+01  0.13689828877E+02  0.15636288240E+02  0.51100000000E-03 0.  1.
        -11    1    3    3    0    0  0.86083347654E+01  0.35995650690E+01  0.10413516330E+02  0.13982189340E+02  0.51100000000E-03 0. -1.
         12    1    3    3    0    0  0.23641499065E+01  0.16658055233E+02  0.68574766108E+01  0.18168791771E+02  0.00000000000E+00 0. -1.
</event>
<event>
 7    1  0.4236733E-010  0.4778728E+02  0.7816164E-02  0.1312668E+00
        -11   -1    0    0    0    0  0.00000000000E+00  0.00000000000E+00  0.45593999997E+02  0.45594000000E+02  0.51100000000E-03 0. -1.
         11   -1    0    0    0    0 -0.00000000000E+00 -0.00000000000E+00 -0.45593999997E+02  0.45594000000E+02  0.51100000000E-03 0.  1.
    9900012    2    1    2    0    0 -0.10974411362E+02 -0.26701214651E+02  0.32407253327E+02  0.47787278384E+02  0.20000033466E+02 0.  0.
        -12    1    1    2    0    0  0.10974411362E+02  0.26701214651E+02 -0.32407253327E+02  0.43400721616E+02  0.00000000000E+00 0.  1.
         11    1    3    3    0    0 -0.31103142212E+01 -0.18015270020E+02  0.20542496618E+02  0.27499421376E+02  0.51100000000E-03 0. -1.
        -11    1    3    3    0    0 -0.86578527095E+01 -0.69228116067E+01  0.13699246639E+02  0.17622516642E+02  0.51100000000E-03 0.  1.
         12    1    3    3    0    0  0.79375556830E+00 -0.17631330238E+01 -0.18344899302E+01  0.26653403658E+01  0.00000000000E+00 0. -1.
</event>
<event>
 7    1  0.4236733E-010  0.4778727E+02  0.7816164E-02  0.1312668E+00
        -11   -1    0    0    0    0  0.00000000000E+00  0.00000000000E+00  0.45593999997E+02  0.45594000000E+02  0.51100000000E-03 0. -1.
         11   -1    0    0    0    0 -0.00000000000E+00 -0.00000000000E+00 -0.45593999997E+02  0.45594000000E+02  0.51100000000E-03 0.  1.
    9900012    2    1    2    0    0 -0.12271975156E+01 -0.38019154049E+02  0.20896435724E+02  0.47787272882E+02  0.20000008380E+02 0.  0.
        -12    1    1    2    0    0  0.12271975156E+01  0.38019154049E+02 -0.20896435724E+02  0.43400727118E+02  0.00000000000E+00 0.  1.
         11    1    3    3    0    0 -0.94053656859E+00 -0.37491576445E+02  0.18503425648E+02  0.41819608730E+02  0.51100000000E-03 0. -1.
        -11    1    3    3    0    0 -0.85342730729E+00 -0.26820448784E+01  0.16875442793E+00  0.28196065712E+01  0.51100000000E-03 0.  1.
        -12    1    3    3    0    0  0.56676636032E+00  0.21544672743E+01  0.22242556484E+01  0.31480575809E+01  0.00000000000E+00 0.  1.
</event>
<event>
 7    1  0.4236733E-010  0.4778731E+02  0.7816164E-02  0.1312668E+00
        -11   -1    0    0    0    0  0.00000000000E+00  0.00000000000E+00  0.45593999997E+02  0.45594000000E+02  0.51100000000E-03 0.  1.
         11   -1    0    0    0    0 -0.00000000000E+00 -0.00000000000E+00 -0.45593999997E+02  0.45594000000E+02  0.51100000000E-03 0. -1.
    9900012    2    1    2    0    0 -0.26942730935E+02  0.33300961149E+02 -0.69824885824E+01  0.47787309792E+02  0.20000176667E+02 0.  0.
        -12    1    1    2    0    0  0.26942730935E+02 -0.33300961149E+02  0.69824885824E+01  0.43400690208E+02  0.00000000000E+00 0.  1.
         11    1    3    3    0    0 -0.14525541708E+02  0.13869327968E+02  0.12718444884E+01  0.20123797079E+02  0.51100000000E-03 0.  1.
        -11    1    3    3    0    0 -0.32327197701E+01  0.13634591834E+02  0.15334285543E-01  0.14012594585E+02  0.51100000000E-03 0. -1.
         12    1    3    3    0    0 -0.91844694568E+01  0.57970413474E+01 -0.82696673564E+01  0.13650918129E+02  0.00000000000E+00 0. -1.
</event>
<event>
 7    1  0.4236733E-010  0.4778727E+02  0.7816164E-02  0.1312668E+00
        -11   -1    0    0    0    0  0.00000000000E+00  0.00000000000E+00  0.45593999997E+02  0.45594000000E+02  0.51100000000E-03 0. -1.
         11   -1    0    0    0    0 -0.00000000000E+00 -0.00000000000E+00 -0.45593999997E+02  0.45594000000E+02  0.51100000000E-03 0.  1.
    9900012    2    1    2    0    0  0.41022850826E+02  0.14063902603E+02 -0.17191788925E+01  0.47787271637E+02  0.20000002703E+02 0.  0.
        -12    1    1    2    0    0 -0.41022850826E+02 -0.14063902603E+02  0.17191788925E+01  0.43400728363E+02  0.00000000000E+00 0.  1.
         11    1    3    3    0    0  0.19872274213E+02  0.82725219711E+01 -0.99827319780E+01  0.23727554450E+02  0.51100000000E-03 0. -1.
        -11    1    3    3    0    0 -0.11113119514E+00  0.68849272389E+00  0.49488401615E+00  0.85515076094E+00  0.51100000000E-03 0.  1.
         12    1    3    3    0    0  0.21261707809E+02  0.51028879080E+01  0.77686690693E+01  0.23204566427E+02  0.00000000000E+00 0. -1.
</event>
<event>
 7    1  0.4236733E-010  0.4778727E+02  0.7816164E-02  0.1312668E+00
        -11   -1    0    0    0    0  0.00000000000E+00  0.00000000000E+00  0.45593999997E+02  0.45594000000E+02  0.51100000000E-03 0.  1.
         11   -1    0    0    0    0 -0.00000000000E+00 -0.00000000000E+00 -0.45593999997E+02  0.45594000000E+02  0.51100000000E-03 0. -1.
    9900012    2    1    2    0    0 -0.21346254548E+02  0.21225696399E+02 -0.31263888240E+02  0.47787268685E+02  0.19999989241E+02 0.  0.
        -12    1    1    2    0    0  0.21346254548E+02 -0.21225696399E+02  0.31263888240E+02  0.43400731315E+02  0.00000000000E+00 0.  1.
         11    1    3    3    0    0 -0.23115056198E+01 -0.12101278318E+01 -0.91477622256E+01  0.95125717657E+01  0.51100000000E-03 0. -1.
        -11    1    3    3    0    0 -0.28331607848E+01  0.10957745219E+02 -0.92269763541E+01  0.14602605015E+02  0.51100000000E-03 0.  1.
         12    1    3    3    0    0 -0.16201588144E+02  0.11478079012E+02 -0.12889149660E+02  0.23672091904E+02  0.00000000000E+00 0. -1.
</event>
<event>
 7    1  0.4236733E-010  0.4778727E+02  0.7816164E-02  0.1312668E+00
        -11   -1    0    0    0    0  0.00000000000E+00  0.00000000000E+00  0.45593999997E+02  0.45594000000E+02  0.51100000000E-03 0.  1.
         11   -1    0    0    0    0 -0.00000000000E+00 -0.00000000000E+00 -0.45593999997E+02  0.45594000000E+02  0.51100000000E-03 0. -1.
    9900012    2    1    2    0    0  0.13463078716E+00  0.96568713962E+01 -0.42312526033E+02  0.47787272473E+02  0.20000006513E+02 0.  0.
        -12    1    1    2    0    0 -0.13463078716E+00 -0.96568713962E+01  0.42312526033E+02  0.43400727527E+02  0.00000000000E+00 0.  1.
         11    1    3    3    0    0 -0.39008811295E+00  0.32022603302E+01 -0.19391852122E+02  0.19658346037E+02  0.51100000000E-03 0. -1.
        -11    1    3    3    0    0 -0.63187632051E+01 -0.20681996110E+00 -0.60945192403E+01  0.87813841716E+01  0.51100000000E-03 0.  1.
        -12    1    3    3    0    0  0.68434821052E+01  0.66614310271E+01 -0.16826154671E+02  0.19347542264E+02  0.00000000000E+00 0.  1.
</event>
<event>
 7    1  0.4236733E-010  0.4778727E+02  0.7816164E-02  0.1312668E+00
        -11   -1    0    0    0    0  0.00000000000E+00  0.00000000000E+00  0.45593999997E+02  0.45594000000E+02  0.51100000000E-03 0.  1.
         11   -1    0    0    0    0 -0.00000000000E+00 -0.00000000000E+00 -0.45593999997E+02  0.45594000000E+02  0.51100000000E-03 0. -1.
    9900012    2    1    2    0    0 -0.29036014999E+02 -0.32237045725E+02 -0.11428142716E+01  0.47787270645E+02  0.19999998178E+02 0.  0.
        -12    1    1    2    0    0  0.29036014999E+02  0.32237045725E+02  0.11428142716E+01  0.43400729355E+02  0.00000000000E+00 0.  1.
         11    1    3    3    0    0 -0.11561182896E+02 -0.22983918159E+02  0.35965437520E+01  0.25978001677E+02  0.51100000000E-03 0. -1.
        -11    1    3    3    0    0 -0.93653989468E+01 -0.51951636539E+01  0.14824717994E+01  0.10811944586E+02  0.51100000000E-03 0.  1.
        -12    1    3    3    0    0 -0.81094331564E+01 -0.40579639125E+01 -0.62218298230E+01  0.10997324383E+02  0.00000000000E+00 0.  1.
</event>
<event>
 7    1  0.4236733E-010  0.4778727E+02  0.7816164E-02  0.1312668E+00
        -11   -1    0    0    0    0  0.00000000000E+00  0.00000000000E+00  0.45593999997E+02  0.45594000000E+02  0.51100000000E-03 0. -1.
         11   -1    0    0    0    0 -0.00000000000E+00 -0.00000000000E+00 -0.45593999997E+02  0.45594000000E+02  0.51100000000E-03 0.  1.
    9900012    2    1    2    0    0 -0.38551394551E+02 -0.17174724085E+02  0.10121370611E+02  0.47787270602E+02  0.19999997982E+02 0.  0.
        -12    1    1    2    0    0  0.38551394551E+02  0.17174724085E+02 -0.10121370611E+02  0.43400729398E+02  0.00000000000E+00 0.  1.
         11    1    3    3    0    0 -0.21962141909E+02 -0.59783684812E+01  0.86232795439E+01  0.24340039386E+02  0.51100000000E-03 0.  1.
        -11    1    3    3    0    0 -0.59161331906E+00 -0.20609260241E+01  0.43077964946E+01  0.48119157616E+01  0.51100000000E-03 0. -1.
        -12    1    3    3    0    0 -0.15997639323E+02 -0.91354295794E+01 -0.28097054272E+01  0.18635315455E+02  0.00000000000E+00 0.  1.
</event>
<event>
 7    1  0.4236733E-010  0.4778727E+02  0.7816164E-02  0.1312668E+00
        -11   -1    0    0    0    0  0.00000000000E+00  0.00000000000E+00  0.45593999997E+02  0.45594000000E+02  0.51100000000E-03 0.  1.
         11   -1    0    0    0    0 -0.00000000000E+00 -0.00000000000E+00 -0.45593999997E+02  0.45594000000E+02  0.51100000000E-03 0. -1.
    9900012    2    1    2    0    0 -0.28217663316E+02 -0.17349277240E+02 -0.28042632426E+02  0.47787272159E+02  0.20000005081E+02 0.  0.
        -12    1    1    2    0    0  0.28217663316E+02  0.17349277240E+02  0.28042632426E+02  0.43400727841E+02  0.00000000000E+00 0.  1.
         11    1    3    3    0    0 -0.11536952124E+02 -0.13340262191E+02 -0.17647588500E+02  0.24949974745E+02  0.51100000000E-03 0. -1.
        -11    1    3    3    0    0 -0.74099860064E+01 -0.25008676643E+01 -0.10918175529E+02  0.13430144780E+02  0.51100000000E-03 0.  1.
        -12    1    3    3    0    0 -0.92707251856E+01 -0.15081473848E+01  0.52313160261E+00  0.94071526338E+01  0.00000000000E+00 0.  1.
</event>
<event>
 7    1  0.4236733E-010  0.4778727E+02  0.7816164E-02  0.1312668E+00
        -11   -1    0    0    0    0  0.00000000000E+00  0.00000000000E+00  0.45593999997E+02  0.45594000000E+02  0.51100000000E-03 0. -1.
         11   -1    0    0    0    0 -0.00000000000E+00 -0.00000000000E+00 -0.45593999997E+02  0.45594000000E+02  0.51100000000E-03 0.  1.
    9900012    2    1    2    0    0 -0.14892296080E+01 -0.12785554096E+02  0.41447979251E+02  0.47787272099E+02  0.20000004806E+02 0.  0.
        -12    1    1    2    0    0  0.14892296080E+01  0.12785554096E+02 -0.41447979251E+02  0.43400727901E+02  0.00000000000E+00 0.  1.
         11    1    3    3    0    0  0.81219594512E+00 -0.35613978097E+01  0.27254565474E+02  0.27498264601E+02  0.51100000000E-03 0. -1.
        -11    1    3    3    0    0 -0.89652576393E+00 -0.86350967327E+01  0.15829275922E+02  0.18053659754E+02  0.51100000000E-03 0.  1.
        -12    1    3    3    0    0 -0.14048997892E+01 -0.58905955323E+00 -0.16358621455E+01  0.22353477434E+01  0.00000000000E+00 0.  1.
</event>
<event>
 7    1  0.4236733E-010  0.4778727E+02  0.7816164E-02  0.1312668E+00
        -11   -1    0    0    0    0  0.00000000000E+00  0.00000000000E+00  0.45593999997E+02  0.45594000000E+02  0.51100000000E-03 0.  1.
         11   -1    0    0    0    0 -0.00000000000E+00 -0.00000000000E+00 -0.45593999997E+02  0.45594000000E+02  0.51100000000E-03 0. -1.
    9900012    2    1    2    0    0  0.25209577045E+02  0.42274116579E+01 -0.35074628020E+02  0.47787270572E+02  0.19999997847E+02 0.  0.
        -12    1    1    2    0    0 -0.25209577045E+02 -0.42274116579E+01  0.35074628020E+02  0.43400729428E+02  0.00000000000E+00 0.  1.
         11    1    3    3    0    0  0.53939432301E+01  0.46866395049E+01 -0.43969836227E+01  0.83900344849E+01  0.51100000000E-03 0. -1.
        -11    1    3    3    0    0  0.16188653903E+02 -0.60819718633E+01 -0.17417082082E+02  0.24544197796E+02  0.51100000000E-03 0.  1.
         12    1    3    3    0    0  0.36269799115E+01  0.56227440163E+01 -0.13260562316E+02  0.14853038291E+02  0.00000000000E+00 0. -1.
</event>
<event>
 7    1  0.4236733E-010  0.4778728E+02  0.7816164E-02  0.1312668E+00
        -11   -1    0    0    0    0  0.00000000000E+00  0.00000000000E+00  0.45593999997E+02  0.45594000000E+02  0.51100000000E-03 0.  1.
         11   -1    0    0    0    0 -0.00000000000E+00 -0.00000000000E+00 -0.45593999997E+02  0.45594000000E+02  0.51100000000E-03 0. -1.
    9900012    2    1    2    0    0 -0.88380372064E+01 -0.42459032982E+02  0.16560292046E+01  0.47787276318E+02  0.20000024043E+02 0.  0.
        -12    1    1    2    0    0  0.88380372064E+01  0.42459032982E+02 -0.16560292046E+01  0.43400723682E+02  0.00000000000E+00 0.  1.
         11    1    3    3    0    0 -0.21777857757E+00 -0.17570167491E+02 -0.23108671560E+01  0.17722819201E+02  0.51100000000E-03 0. -1.
        -11    1    3    3    0    0  0.34435661707E+01 -0.86303165440E+01  0.31184399438E+01  0.98012845875E+01  0.51100000000E-03 0.  1.
         12    1    3    3    0    0 -0.12063824800E+02 -0.16258548947E+02  0.84845641671E+00  0.20263172529E+02  0.00000000000E+00 0. -1.
</event>
<event>
 7    1  0.4236733E-010  0.4778729E+02  0.7816164E-02  0.1312668E+00
        -11   -1    0    0    0    0  0.00000000000E+00  0.00000000000E+00  0.45593999997E+02  0.45594000000E+02  0.51100000000E-03 0. -1.
         11   -1    0    0    0    0 -0.00000000000E+00 -0.00000000000E+00 -0.45593999997E+02  0.45594000000E+02  0.51100000000E-03 0.  1.
    9900012    2    1    2    0    0 -0.18671724846E+02  0.26563231724E+01  0.39088771306E+02  0.47787292589E+02  0.20000098231E+02 0.  0.
        -12    1    1    2    0    0  0.18671724846E+02 -0.26563231724E+01 -0.39088771306E+02  0.43400707411E+02  0.00000000000E+00 0.  1.
         11    1    3    3    0    0 -0.10699137154E+02  0.10732508745E+01  0.21844897214E+02  0.24347955517E+02  0.51100000000E-03 0. -1.
        -11    1    3    3    0    0 -0.71627905442E+00  0.51378954665E+01  0.13637424168E+02  0.14590762958E+02  0.51100000000E-03 0.  1.
         12    1    3    3    0    0 -0.72563086376E+01 -0.35548231686E+01  0.36064499246E+01  0.88485741147E+01  0.00000000000E+00 0. -1.
</event>
<event>
 7    1  0.5545621E-010  0.4778728E+02  0.7816164E-02  0.1312668E+00
        -11   -1    0    0    0    0  0.00000000000E+00  0.00000000000E+00  0.45593999997E+02  0.45594000000E+02  0.51100000000E-03 0.  1.
         11   -1    0    0    0    0 -0.00000000000E+00 -0.00000000000E+00 -0.45593999997E+02  0.45594000000E+02  0.51100000000E-03 0. -1.
    9900012    2    1    2    0    0 -0.29745356786E+02 -0.30267495624E+02 -0.90947743591E+01  0.47787280394E+02  0.20000042629E+02 0.  0.
        -12    1    1    2    0    0  0.29745356786E+02  0.30267495624E+02  0.90947743591E+01  0.43400719606E+02  0.00000000000E+00 0.  1.
         11    1    3    3    0    0 -0.20080045378E+02 -0.18261881069E+02 -0.74664392474E+01  0.28150528198E+02  0.51100000000E-03 0. -1.
        -11    1    3    3    0    0 -0.82539581781E+01 -0.14373331074E+02 -0.30113561117E+00  0.16577429073E+02  0.51100000000E-03 0.  1.
        -12    1    3    3    0    0 -0.14113532297E+01  0.23677165187E+01 -0.13271995006E+01  0.30593231222E+01  0.00000000000E+00 0.  1.
</event>
<event>
 7    1  0.9464260E-010  0.4778729E+02  0.7816164E-02  0.1312668E+00
        -11   -1    0    0    0    0  0.00000000000E+00  0.00000000000E+00  0.45593999997E+02  0.45594000000E+02  0.51100000000E-03 0.  1.
         11   -1    0    0    0    0 -0.00000000000E+00 -0.00000000000E+00 -0.45593999997E+02  0.45594000000E+02  0.51100000000E-03 0. -1.
    9900012    2    1    2    0    0  0.32654043621E+02 -0.13102684906E+02 -0.25409744156E+02  0.47787285552E+02  0.20000066145E+02 0.  0.
        -12    1    1    2    0    0 -0.32654043621E+02  0.13102684906E+02  0.25409744156E+02  0.43400714448E+02  0.00000000000E+00 0.  1.
         11    1    3    3    0    0  0.14160695434E+02 -0.14281230286E+01 -0.10110228324E+02  0.17457993802E+02  0.51100000000E-03 0. -1.
        -11    1    3    3    0    0  0.18741320865E+02 -0.12600962263E+02 -0.95827435299E+01  0.24532638088E+02  0.51100000000E-03 0.  1.
        -12    1    3    3    0    0 -0.24797267862E+00  0.92640038587E+00 -0.57167723020E+01  0.57966536620E+01  0.00000000000E+00 0.  1.
</event>
<event>
 7    1  0.4236733E-010  0.4778727E+02  0.7816164E-02  0.1312668E+00
        -11   -1    0    0    0    0  0.00000000000E+00  0.00000000000E+00  0.45593999997E+02  0.45594000000E+02  0.51100000000E-03 0.  1.
         11   -1    0    0    0    0 -0.00000000000E+00 -0.00000000000E+00 -0.45593999997E+02  0.45594000000E+02  0.51100000000E-03 0. -1.
    9900012    2    1    2    0    0 -0.27543434465E+02  0.19478344282E+02 -0.27305250314E+02  0.47787269905E+02  0.19999994803E+02 0.  0.
        -12    1    1    2    0    0  0.27543434465E+02 -0.19478344282E+02  0.27305250314E+02  0.43400730095E+02  0.00000000000E+00 0.  1.
         11    1    3    3    0    0  0.10348691611E+01  0.30120073415E+01 -0.23612254962E+01  0.39646599489E+01  0.51100000000E-03 0. -1.
        -11    1    3    3    0    0 -0.50324151116E+01  0.68628063678E+01 -0.46031608216E+00  0.85226289521E+01  0.51100000000E-03 0.  1.
        -12    1    3    3    0    0 -0.23545888515E+02  0.96035305722E+01 -0.24483708736E+02  0.35299981004E+02  0.00000000000E+00 0.  1.
</event>
<event>
 7    1  0.4236733E-010  0.4778727E+02  0.7816164E-02  0.1312668E+00
        -11   -1    0    0    0    0  0.00000000000E+00  0.00000000000E+00  0.45593999997E+02  0.45594000000E+02  0.51100000000E-03 0. -1.
         11   -1    0    0    0    0 -0.00000000000E+00 -0.00000000000E+00 -0.45593999997E+02  0.45594000000E+02  0.51100000000E-03 0.  1.
    9900012    2    1    2    0    0  0.29171323909E+02 -0.16185505454E+02  0.27761240007E+02  0.47787272217E+02  0.20000005345E+02 0.  0.
        -12    1    1    2    0    0 -0.29171323909E+02  0.16185505454E+02 -0.27761240007E+02  0.43400727783E+02  0.00000000000E+00 0.  1.
         11    1    3    3    0    0  0.26946161639E+01 -0.67234105690E+00  0.76987366173E+01  0.81843475324E+01  0.51100000000E-03 0. -1.
        -11    1    3    3    0    0  0.12819544780E+02 -0.11651375791E+02  0.18467670808E+02  0.25320942943E+02  0.51100000000E-03 0.  1.
        -12    1    3    3    0    0  0.13657162965E+02 -0.38617886061E+01  0.15948325809E+01  0.14281981741E+02  0.00000000000E+00 0.  1.
</event>
<event>
 7    1  0.4236733E-010  0.4778727E+02  0.7816164E-02  0.1312668E+00
        -11   -1    0    0    0    0  0.00000000000E+00  0.00000000000E+00  0.45593999997E+02  0.45594000000E+02  0.51100000000E-03 0.  1.
         11   -1    0    0    0    0 -0.00000000000E+00 -0.00000000000E+00 -0.45593999997E+02  0.45594000000E+02  0.51100000000E-03 0. -1.
    9900012    2    1    2    0    0 -0.55399710777E+01  0.28395530525E+02 -0.32351604228E+02  0.47787265796E+02  0.19999976068E+02 0.  0.
        -12    1    1    2    0    0  0.55399710777E+01 -0.28395530525E+02  0.32351604228E+02  0.43400734204E+02  0.00000000000E+00 0.  1.
         11    1    3    3    0    0 -0.16294893807E+01  0.91265774365E+01 -0.59415976891E+01  0.11011459245E+02  0.51100000000E-03 0.  1.
        -11    1    3    3    0    0 -0.29882430625E+01  0.19753016314E+02 -0.14173098500E+02  0.24494651895E+02  0.51100000000E-03 0. -1.
        -12    1    3    3    0    0 -0.92223863451E+00 -0.48406322586E+00 -0.12236908039E+02  0.12281154655E+02  0.00000000000E+00 0.  1.
</event>
<event>
 7    1  0.4236733E-010  0.4778721E+02  0.7816164E-02  0.1312668E+00
        -11   -1    0    0    0    0  0.00000000000E+00  0.00000000000E+00  0.45593999997E+02  0.45594000000E+02  0.51100000000E-03 0.  1.
         11   -1    0    0    0    0 -0.00000000000E+00 -0.00000000000E+00 -0.45593999997E+02  0.45594000000E+02  0.51100000000E-03 0. -1.
    9900012    2    1    2    0    0 -0.12490371166E+02  0.21846877357E+02 -0.35360044403E+02  0.47787214727E+02  0.19999743224E+02 0.  0.
        -12    1    1    2    0    0  0.12490371166E+02 -0.21846877357E+02  0.35360044403E+02  0.43400785273E+02  0.00000000000E+00 0.  1.
         11    1    3    3    0    0  0.12789419669E+01  0.14936900666E+01  0.13234248544E+01  0.23702860959E+01  0.51100000000E-03 0. -1.
        -11    1    3    3    0    0 -0.82156608955E+00  0.39073112511E+01 -0.13971992483E+02  0.14531298161E+02  0.51100000000E-03 0.  1.
         12    1    3    3    0    0 -0.12947747043E+02  0.16445876039E+02 -0.22711476775E+02  0.30885630470E+02  0.00000000000E+00 0. -1.
</event>
<event>
 7    1  0.4236733E-010  0.4778727E+02  0.7816164E-02  0.1312668E+00
        -11   -1    0    0    0    0  0.00000000000E+00  0.00000000000E+00  0.45593999997E+02  0.45594000000E+02  0.51100000000E-03 0.  1.
         11   -1    0    0    0    0 -0.00000000000E+00 -0.00000000000E+00 -0.45593999997E+02  0.45594000000E+02  0.51100000000E-03 0. -1.
    9900012    2    1    2    0    0  0.25610661030E+02  0.34751434361E+02 -0.44782684087E+01  0.47787273779E+02  0.20000012469E+02 0.  0.
        -12    1    1    2    0    0 -0.25610661030E+02 -0.34751434361E+02  0.44782684087E+01  0.43400726221E+02  0.00000000000E+00 0.  1.
         11    1    3    3    0    0  0.14117920415E+02  0.10118149532E+02  0.88213568166E+00  0.17391687394E+02  0.51100000000E-03 0. -1.
        -11    1    3    3    0    0  0.97476100330E+01  0.16514276178E+02  0.20237976430E+01  0.19282971146E+02  0.51100000000E-03 0.  1.
         12    1    3    3    0    0  0.17451305825E+01  0.81190086509E+01 -0.73842017334E+01  0.11112615240E+02  0.00000000000E+00 0. -1.
</event>
<event>
 7    1  0.4236733E-010  0.4778727E+02  0.7816164E-02  0.1312668E+00
        -11   -1    0    0    0    0  0.00000000000E+00  0.00000000000E+00  0.45593999997E+02  0.45594000000E+02  0.51100000000E-03 0.  1.
         11   -1    0    0    0    0 -0.00000000000E+00 -0.00000000000E+00 -0.45593999997E+02  0.45594000000E+02  0.51100000000E-03 0. -1.
    9900012    2    1    2    0    0  0.30746328113E+02 -0.27005029978E+02  0.14457352303E+02  0.47787269912E+02  0.19999994838E+02 0.  0.
        -12    1    1    2    0    0 -0.30746328113E+02  0.27005029978E+02 -0.14457352303E+02  0.43400730088E+02  0.00000000000E+00 0.  1.
         11    1    3    3    0    0  0.20389120885E+02 -0.21372081903E+02  0.85849774414E+01  0.30760103597E+02  0.51100000000E-03 0. -1.
        -11    1    3    3    0    0  0.73688586242E+01 -0.74449556080E+01  0.77775980144E+01  0.13046780161E+02  0.51100000000E-03 0.  1.
         12    1    3    3    0    0  0.29883486038E+01  0.18120075333E+01 -0.19052231530E+01  0.39803861548E+01  0.00000000000E+00 0. -1.
</event>
<event>
 7    1  0.4236733E-010  0.4778727E+02  0.7816164E-02  0.1312668E+00
        -11   -1    0    0    0    0  0.00000000000E+00  0.00000000000E+00  0.45593999997E+02  0.45594000000E+02  0.51100000000E-03 0.  1.
         11   -1    0    0    0    0 -0.00000000000E+00 -0.00000000000E+00 -0.45593999997E+02  0.45594000000E+02  0.51100000000E-03 0. -1.
    9900012    2    1    2    0    0  0.29820224516E+02  0.26761099308E+02 -0.16679961809E+02  0.47787270141E+02  0.19999995880E+02 0.  0.
        -12    1    1    2    0    0 -0.29820224516E+02 -0.26761099308E+02  0.16679961809E+02  0.43400729859E+02  0.00000000000E+00 0.  1.
         11    1    3    3    0    0  0.18724102927E+02  0.12973294029E+02 -0.74354161556E+01  0.23962132669E+02  0.51100000000E-03 0. -1.
        -11    1    3    3    0    0  0.12310974393E+02  0.15157128901E+02 -0.66064884374E+01  0.20614178052E+02  0.51100000000E-03 0.  1.
        -12    1    3    3    0    0 -0.12148528030E+01 -0.13693236231E+01 -0.26380572162E+01  0.32109594195E+01  0.00000000000E+00 0.  1.
</event>
<event>
 7    1  0.4236733E-010  0.4778727E+02  0.7816164E-02  0.1312668E+00
        -11   -1    0    0    0    0  0.00000000000E+00  0.00000000000E+00  0.45593999997E+02  0.45594000000E+02  0.51100000000E-03 0. -1.
         11   -1    0    0    0    0 -0.00000000000E+00 -0.00000000000E+00 -0.45593999997E+02  0.45594000000E+02  0.51100000000E-03 0.  1.
    9900012    2    1    2    0    0  0.35754496729E+01  0.23573873178E+02  0.36264479312E+02  0.47787265021E+02  0.19999972537E+02 0.  0.
        -12    1    1    2    0    0 -0.35754496729E+01 -0.23573873178E+02 -0.36264479312E+02  0.43400734979E+02  0.00000000000E+00 0.  1.
         11    1    3    3    0    0 -0.39366041939E+01  0.99366278591E+01  0.13209503536E+02  0.16991892470E+02  0.51100000000E-03 0. -1.
        -11    1    3    3    0    0 -0.21668811766E+01  0.62559997550E+01  0.14432340066E+02  0.15878455436E+02  0.51100000000E-03 0.  1.
        -12    1    3    3    0    0  0.96789350434E+01  0.73812455636E+01  0.86226357093E+01  0.14916917115E+02  0.00000000000E+00 0.  1.
</event>
<event>
 7    1  0.4236733E-010  0.4778727E+02  0.7816164E-02  0.1312668E+00
        -11   -1    0    0    0    0  0.00000000000E+00  0.00000000000E+00  0.45593999997E+02  0.45594000000E+02  0.51100000000E-03 0.  1.
         11   -1    0    0    0    0 -0.00000000000E+00 -0.00000000000E+00 -0.45593999997E+02  0.45594000000E+02  0.51100000000E-03 0. -1.
    9900012    2    1    2    0    0  0.36483072946E+02 -0.14254092367E+02 -0.18693043835E+02  0.47787266727E+02  0.19999980315E+02 0.  0.
        -12    1    1    2    0    0 -0.36483072946E+02  0.14254092367E+02  0.18693043835E+02  0.43400733273E+02  0.00000000000E+00 0.  1.
         11    1    3    3    0    0  0.58817871700E+01  0.31052461902E+00  0.19430386815E+01  0.62021968230E+01  0.51100000000E-03 0. -1.
        -11    1    3    3    0    0  0.19456185018E+01  0.21549942118E+01 -0.20811566716E+01  0.35722044679E+01  0.51100000000E-03 0.  1.
         12    1    3    3    0    0  0.28655667275E+02 -0.16719611198E+02 -0.18554925845E+02  0.38012865436E+02  0.00000000000E+00 0. -1.
</event>
<event>
 7    1  0.4236733E-010  0.4778727E+02  0.7816164E-02  0.1312668E+00
        -11   -1    0    0    0    0  0.00000000000E+00  0.00000000000E+00  0.45593999997E+02  0.45594000000E+02  0.51100000000E-03 0.  1.
         11   -1    0    0    0    0 -0.00000000000E+00 -0.00000000000E+00 -0.45593999997E+02  0.45594000000E+02  0.51100000000E-03 0. -1.
    9900012    2    1    2    0    0  0.39508126747E+02  0.74112995585E+01 -0.16364722145E+02  0.47787267620E+02  0.19999984388E+02 0.  0.
        -12    1    1    2    0    0 -0.39508126747E+02 -0.74112995585E+01  0.16364722145E+02  0.43400732380E+02  0.00000000000E+00 0.  1.
         11    1    3    3    0    0  0.10393882182E+02 -0.38336494532E+01  0.35083742186E+00  0.11083895619E+02  0.51100000000E-03 0. -1.
        -11    1    3    3    0    0  0.97311127887E+01  0.60963921758E+01 -0.16091267870E+01  0.11595250879E+02  0.51100000000E-03 0.  1.
        -12    1    3    3    0    0  0.19383131777E+02  0.51485568359E+01 -0.15106432779E+02  0.25108121122E+02  0.00000000000E+00 0.  1.
</event>
<event>
 7    1  0.4236733E-010  0.4778727E+02  0.7816164E-02  0.1312668E+00
        -11   -1    0    0    0    0  0.00000000000E+00  0.00000000000E+00  0.45593999997E+02  0.45594000000E+02  0.51100000000E-03 0.  1.
         11   -1    0    0    0    0 -0.00000000000E+00 -0.00000000000E+00 -0.45593999997E+02  0.45594000000E+02  0.51100000000E-03 0. -1.
    9900012    2    1    2    0    0  0.33513011731E+01  0.32675694930E+01 -0.43147595505E+02  0.47787271575E+02  0.20000002419E+02 0.  0.
        -12    1    1    2    0    0 -0.33513011731E+01 -0.32675694930E+01  0.43147595505E+02  0.43400728425E+02  0.00000000000E+00 0.  1.
         11    1    3    3    0    0  0.49916991363E+00  0.52268306141E+01 -0.22011680230E+02  0.22629250886E+02  0.51100000000E-03 0. -1.
        -11    1    3    3    0    0  0.32007609407E+01 -0.23418463482E+01  0.49479774963E-01  0.39663034966E+01  0.51100000000E-03 0.  1.
        -12    1    3    3    0    0 -0.34862968121E+00  0.38258522702E+00 -0.21185395050E+02  0.21191717192E+02  0.00000000000E+00 0.  1.
</event>
<event>
 7    1  0.4236733E-010  0.4778727E+02  0.7816164E-02  0.1312668E+00
        -11   -1    0    0    0    0  0.00000000000E+00  0.00000000000E+00  0.45593999997E+02  0.45594000000E+02  0.51100000000E-03 0.  1.
         11   -1    0    0    0    0 -0.00000000000E+00 -0.00000000000E+00 -0.45593999997E+02  0.45594000000E+02  0.51100000000E-03 0. -1.
    9900012    2    1    2    0    0 -0.18139196991E+01 -0.56180441740E+01 -0.42997328770E+02  0.47787274126E+02  0.20000014052E+02 0.  0.
        -12    1    1    2    0    0  0.18139196991E+01  0.56180441740E+01  0.42997328770E+02  0.43400725874E+02  0.00000000000E+00 0.  1.
         11    1    3    3    0    0  0.70538714858E+00  0.86356869978E+00 -0.13664251727E+02  0.13709671675E+02  0.51100000000E-03 0. -1.
        -11    1    3    3    0    0  0.19234506001E+01 -0.49272738079E+01 -0.28867199635E+02  0.29347792156E+02  0.51100000000E-03 0.  1.
        -12    1    3    3    0    0 -0.44427574478E+01 -0.15543390658E+01 -0.46587740801E+00  0.47298102954E+01  0.00000000000E+00 0.  1.
</event>
<event>
 7    1  0.4236733E-010  0.4778727E+02  0.7816164E-02  0.1312668E+00
        -11   -1    0    0    0    0  0.00000000000E+00  0.00000000000E+00  0.45593999997E+02  0.45594000000E+02  0.51100000000E-03 0. -1.
         11   -1    0    0    0    0 -0.00000000000E+00 -0.00000000000E+00 -0.45593999997E+02  0.45594000000E+02  0.51100000000E-03 0.  1.
    9900012    2    1    2    0    0 -0.44846025331E+01 -0.94424322958E+01  0.42123054880E+02  0.47787274891E+02  0.20000017539E+02 0.  0.
        -12    1    1    2    0    0  0.44846025331E+01  0.94424322958E+01 -0.42123054880E+02  0.43400725109E+02  0.00000000000E+00 0.  1.
         11    1    3    3    0    0 -0.54749540089E+01 -0.12847950471E+01  0.20035194912E+02  0.20809489546E+02  0.51100000000E-03 0. -1.
        -11    1    3    3    0    0  0.16199201486E+01  0.33834525421E+01  0.73136932571E+01  0.82196108005E+01  0.51100000000E-03 0.  1.
         12    1    3    3    0    0 -0.62956867271E+00 -0.11541089791E+02  0.14774166711E+02  0.18758174545E+02  0.00000000000E+00 0. -1.
</event>
<event>
 7    1  0.4236733E-010  0.4778728E+02  0.7816164E-02  0.1312668E+00
        -11   -1    0    0    0    0  0.00000000000E+00  0.00000000000E+00  0.45593999997E+02  0.45594000000E+02  0.51100000000E-03 0.  1.
         11   -1    0    0    0    0 -0.00000000000E+00 -0.00000000000E+00 -0.45593999997E+02  0.45594000000E+02  0.51100000000E-03 0. -1.
    9900012    2    1    2    0    0 -0.34268411970E+02  0.23852376306E+02 -0.11847477924E+02  0.47787278260E+02  0.20000032898E+02 0.  0.
        -12    1    1    2    0    0  0.34268411970E+02 -0.23852376306E+02  0.11847477924E+02  0.43400721740E+02  0.00000000000E+00 0.  1.
         11    1    3    3    0    0 -0.28218791051E+02  0.18939669472E+02 -0.44395833602E+01  0.34274205297E+02  0.51100000000E-03 0. -1.
        -11    1    3    3    0    0 -0.49499840031E+01  0.63302538011E+01 -0.27038383560E+01  0.84785138399E+01  0.51100000000E-03 0.  1.
        -12    1    3    3    0    0 -0.10996369164E+01 -0.14175469673E+01 -0.47040562081E+01  0.50345591229E+01  0.00000000000E+00 0.  1.
</event>
<event>
 7    1  0.4236733E-010  0.4778727E+02  0.7816164E-02  0.1312668E+00
        -11   -1    0    0    0    0  0.00000000000E+00  0.00000000000E+00  0.45593999997E+02  0.45594000000E+02  0.51100000000E-03 0.  1.
         11   -1    0    0    0    0 -0.00000000000E+00 -0.00000000000E+00 -0.45593999997E+02  0.45594000000E+02  0.51100000000E-03 0. -1.
    9900012    2    1    2    0    0 -0.31509548561E+02  0.29689977086E+02 -0.30457860483E+01  0.47787271866E+02  0.20000003748E+02 0.  0.
        -12    1    1    2    0    0  0.31509548561E+02 -0.29689977086E+02  0.30457860483E+01  0.43400728134E+02  0.00000000000E+00 0.  1.
         11    1    3    3    0    0 -0.64300047192E+01  0.12722118707E+02 -0.16590410149E+01  0.14350947092E+02  0.51100000000E-03 0. -1.
        -11    1    3    3    0    0 -0.11065003185E+00  0.31693497038E+00  0.30763707111E+01  0.30946321620E+01  0.51100000000E-03 0.  1.
        -12    1    3    3    0    0 -0.24968893810E+02  0.16650923408E+02 -0.44631157444E+01  0.30341692613E+02  0.00000000000E+00 0.  1.
</event>
<event>
 7    1  0.4236733E-010  0.4778727E+02  0.7816164E-02  0.1312668E+00
        -11   -1    0    0    0    0  0.00000000000E+00  0.00000000000E+00  0.45593999997E+02  0.45594000000E+02  0.51100000000E-03 0. -1.
         11   -1    0    0    0    0 -0.00000000000E+00 -0.00000000000E+00 -0.45593999997E+02  0.45594000000E+02  0.51100000000E-03 0.  1.
    9900012    2    1    2    0    0 -0.21451877465E+02 -0.33669731659E+02  0.17023202841E+02  0.47787270608E+02  0.19999998008E+02 0.  0.
        -12    1    1    2    0    0  0.21451877465E+02  0.33669731659E+02 -0.17023202841E+02  0.43400729392E+02  0.00000000000E+00 0.  1.
         11    1    3    3    0    0 -0.70887757643E+01 -0.69345782574E+01 -0.26125162203E+01  0.10254967514E+02  0.51100000000E-03 0. -1.
        -11    1    3    3    0    0  0.14043230669E+01 -0.36824443077E+01  0.14261825094E+01  0.41912427950E+01  0.51100000000E-03 0.  1.
        -12    1    3    3    0    0 -0.15767424768E+02 -0.23052709094E+02  0.18209536552E+02  0.33341060299E+02  0.00000000000E+00 0.  1.
</event>
<event>
 7    1  0.4236733E-010  0.4778727E+02  0.7816164E-02  0.1312668E+00
        -11   -1    0    0    0    0  0.00000000000E+00  0.00000000000E+00  0.45593999997E+02  0.45594000000E+02  0.51100000000E-03 0. -1.
         11   -1    0    0    0    0 -0.00000000000E+00 -0.00000000000E+00 -0.45593999997E+02  0.45594000000E+02  0.51100000000E-03 0.  1.
    9900012    2    1    2    0    0 -0.28343110940E+02  0.75912726552E+01  0.31979117392E+02  0.47787270658E+02  0.19999998236E+02 0.  0.
        -12    1    1    2    0    0  0.28343110940E+02 -0.75912726552E+01 -0.31979117392E+02  0.43400729342E+02  0.00000000000E+00 0.  1.
         11    1    3    3    0    0  0.28803633588E+01  0.99167191496E+00  0.47988088710E+01  0.56840542843E+01  0.51100000000E-03 0. -1.
        -11    1    3    3    0    0 -0.53626792442E+01 -0.13659218494E-01  0.33685880325E+01  0.63329219831E+01  0.51100000000E-03 0.  1.
         12    1    3    3    0    0 -0.25860795054E+02  0.66132599587E+01  0.23811720489E+02  0.35770294390E+02  0.00000000000E+00 0. -1.
</event>
<event>
 7    1  0.4236733E-010  0.4778728E+02  0.7816164E-02  0.1312668E+00
        -11   -1    0    0    0    0  0.00000000000E+00  0.00000000000E+00  0.45593999997E+02  0.45594000000E+02  0.51100000000E-03 0.  1.
         11   -1    0    0    0    0 -0.00000000000E+00 -0.00000000000E+00 -0.45593999997E+02  0.45594000000E+02  0.51100000000E-03 0. -1.
    9900012    2    1    2    0    0 -0.34053314168E+02  0.16977276613E+02 -0.20875021740E+02  0.47787278120E+02  0.20000032262E+02 0.  0.
        -12    1    1    2    0    0  0.34053314168E+02 -0.16977276613E+02  0.20875021740E+02  0.43400721880E+02  0.00000000000E+00 0.  1.
         11    1    3    3    0    0  0.45991363475E+00  0.48992365243E+01 -0.31446548763E+01  0.58397682852E+01  0.51100000000E-03 0. -1.
        -11    1    3    3    0    0 -0.68676840516E+01  0.65774354157E+01 -0.21833137457E+01  0.97567720099E+01  0.51100000000E-03 0.  1.
         12    1    3    3    0    0 -0.27645543751E+02  0.55006046728E+01 -0.15547053118E+02  0.32190737825E+02  0.00000000000E+00 0. -1.
</event>
<event>
 7    1  0.4236733E-010  0.4778727E+02  0.7816164E-02  0.1312668E+00
        -11   -1    0    0    0    0  0.00000000000E+00  0.00000000000E+00  0.45593999997E+02  0.45594000000E+02  0.51100000000E-03 0.  1.
         11   -1    0    0    0    0 -0.00000000000E+00 -0.00000000000E+00 -0.45593999997E+02  0.45594000000E+02  0.51100000000E-03 0. -1.
    9900012    2    1    2    0    0 -0.43172708275E+02 -0.27441211165E+01 -0.34943893494E+01  0.47787266165E+02  0.19999977754E+02 0.  0.
        -12    1    1    2    0    0  0.43172708275E+02  0.27441211165E+01  0.34943893494E+01  0.43400733835E+02  0.00000000000E+00 0.  1.
         11    1    3    3    0    0 -0.16297175490E+02  0.97108755583E+00  0.55688454003E+01  0.17249724036E+02  0.51100000000E-03 0. -1.
        -11    1    3    3    0    0 -0.31566003724E+01  0.31357156596E+01 -0.18323974194E+01  0.48119142939E+01  0.51100000000E-03 0.  1.
         12    1    3    3    0    0 -0.23718932413E+02 -0.68509243319E+01 -0.72308373303E+01  0.25725627835E+02  0.00000000000E+00 0. -1.
</event>
<event>
 7    1  0.4236733E-010  0.4778729E+02  0.7816164E-02  0.1312668E+00
        -11   -1    0    0    0    0  0.00000000000E+00  0.00000000000E+00  0.45593999997E+02  0.45594000000E+02  0.51100000000E-03 0.  1.
         11   -1    0    0    0    0 -0.00000000000E+00 -0.00000000000E+00 -0.45593999997E+02  0.45594000000E+02  0.51100000000E-03 0. -1.
    9900012    2    1    2    0    0  0.71252193648E+01  0.91577882209E+01 -0.41820905805E+02  0.47787285738E+02  0.20000066995E+02 0.  0.
        -12    1    1    2    0    0 -0.71252193648E+01 -0.91577882209E+01  0.41820905805E+02  0.43400714262E+02  0.00000000000E+00 0.  1.
         11    1    3    3    0    0  0.13532511525E-01  0.15989565564E+01 -0.16231096338E+02  0.16309669948E+02  0.51100000000E-03 0. -1.
        -11    1    3    3    0    0  0.62038843178E+01  0.86895859888E+01 -0.27253725151E+02  0.29270507685E+02  0.51100000000E-03 0.  1.
        -12    1    3    3    0    0  0.90780253545E+00 -0.11307543243E+01  0.16639156844E+01  0.22071081057E+01  0.00000000000E+00 0.  1.
</event>
<event>
 7    1  0.4236733E-010  0.4778727E+02  0.7816164E-02  0.1312668E+00
        -11   -1    0    0    0    0  0.00000000000E+00  0.00000000000E+00  0.45593999997E+02  0.45594000000E+02  0.51100000000E-03 0.  1.
         11   -1    0    0    0    0 -0.00000000000E+00 -0.00000000000E+00 -0.45593999997E+02  0.45594000000E+02  0.51100000000E-03 0. -1.
    9900012    2    1    2    0    0  0.71227698883E+01 -0.21265208068E+01 -0.42759416516E+02  0.47787266798E+02  0.19999980640E+02 0.  0.
        -12    1    1    2    0    0 -0.71227698883E+01  0.21265208068E+01  0.42759416516E+02  0.43400733202E+02  0.00000000000E+00 0.  1.
         11    1    3    3    0    0  0.80857254115E+01  0.12539659931E+01 -0.11841479202E+02  0.14393471301E+02  0.51100000000E-03 0.  1.
        -11    1    3    3    0    0  0.25891342817E+01  0.14177786095E+01 -0.24309463083E+02  0.24488031937E+02  0.51100000000E-03 0. -1.
        -12    1    3    3    0    0 -0.35520898050E+01 -0.47982654094E+01 -0.66084742314E+01  0.89057635601E+01  0.00000000000E+00 0.  1.
</event>
<event>
 7    1  0.4236733E-010  0.4778727E+02  0.7816164E-02  0.1312668E+00
        -11   -1    0    0    0    0  0.00000000000E+00  0.00000000000E+00  0.45593999997E+02  0.45594000000E+02  0.51100000000E-03 0.  1.
         11   -1    0    0    0    0 -0.00000000000E+00 -0.00000000000E+00 -0.45593999997E+02  0.45594000000E+02  0.51100000000E-03 0. -1.
    9900012    2    1    2    0    0  0.64108622542E+01  0.45545262449E+01 -0.42682316589E+02  0.47787274043E+02  0.20000013672E+02 0.  0.
        -12    1    1    2    0    0 -0.64108622542E+01 -0.45545262449E+01  0.42682316589E+02  0.43400725957E+02  0.00000000000E+00 0.  1.
         11    1    3    3    0    0 -0.18065484179E+01 -0.14163535026E+01 -0.14065972794E+01  0.26922463851E+01  0.51100000000E-03 0. -1.
        -11    1    3    3    0    0  0.61630545435E+01  0.87081360021E+01 -0.13980338978E+02  0.17585924830E+02  0.51100000000E-03 0.  1.
         12    1    3    3    0    0  0.20543561286E+01 -0.27372562546E+01 -0.27295380332E+02  0.27509102827E+02  0.00000000000E+00 0. -1.
</event>
<event>
 7    1  0.4236733E-010  0.4778727E+02  0.7816164E-02  0.1312668E+00
        -11   -1    0    0    0    0  0.00000000000E+00  0.00000000000E+00  0.45593999997E+02  0.45594000000E+02  0.51100000000E-03 0.  1.
         11   -1    0    0    0    0 -0.00000000000E+00 -0.00000000000E+00 -0.45593999997E+02  0.45594000000E+02  0.51100000000E-03 0. -1.
    9900012    2    1    2    0    0 -0.15442134817E+02 -0.40000360513E+02  0.67182503581E+01  0.47787271242E+02  0.20000000899E+02 0.  0.
        -12    1    1    2    0    0  0.15442134817E+02  0.40000360513E+02 -0.67182503581E+01  0.43400728758E+02  0.00000000000E+00 0.  1.
         11    1    3    3    0    0 -0.94715595955E+00 -0.51474043107E+00  0.36342530729E-01  0.10786024123E+01  0.51100000000E-03 0. -1.
        -11    1    3    3    0    0 -0.99028360030E+01 -0.86273080530E+01 -0.40050592202E+01  0.13730881427E+02  0.51100000000E-03 0.  1.
        -12    1    3    3    0    0 -0.45921428542E+01 -0.30858312029E+02  0.10686967047E+02  0.32977787402E+02  0.00000000000E+00 0.  1.
</event>
<event>
 7    1  0.4236733E-010  0.4778727E+02  0.7816164E-02  0.1312668E+00
        -11   -1    0    0    0    0  0.00000000000E+00  0.00000000000E+00  0.45593999997E+02  0.45594000000E+02  0.51100000000E-03 0.  1.
         11   -1    0    0    0    0 -0.00000000000E+00 -0.00000000000E+00 -0.45593999997E+02  0.45594000000E+02  0.51100000000E-03 0. -1.
    9900012    2    1    2    0    0 -0.28521173734E+02 -0.18732777234E+02 -0.26818814889E+02  0.47787272746E+02  0.20000007760E+02 0.  0.
        -12    1    1    2    0    0  0.28521173734E+02  0.18732777234E+02  0.26818814889E+02  0.43400727254E+02  0.00000000000E+00 0.  1.
         11    1    3    3    0    0 -0.23998711149E+01  0.12345597954E+01 -0.56924858776E+01  0.62998345204E+01  0.51100000000E-03 0. -1.
        -11    1    3    3    0    0 -0.39442299145E+01 -0.11170190151E+02 -0.71744063555E+01  0.13849267289E+02  0.51100000000E-03 0.  1.
        -12    1    3    3    0    0 -0.22177072705E+02 -0.87971468788E+01 -0.13951922656E+02  0.27638170937E+02  0.00000000000E+00 0.  1.
</event>
<event>
 7    1  0.4236733E-010  0.4778727E+02  0.7816164E-02  0.1312668E+00
        -11   -1    0    0    0    0  0.00000000000E+00  0.00000000000E+00  0.45593999997E+02  0.45594000000E+02  0.51100000000E-03 0.  1.
         11   -1    0    0    0    0 -0.00000000000E+00 -0.00000000000E+00 -0.45593999997E+02  0.45594000000E+02  0.51100000000E-03 0. -1.
    9900012    2    1    2    0    0  0.15130198826E+02 -0.10283912604E+02 -0.39356594186E+02  0.47787270964E+02  0.19999999634E+02 0.  0.
        -12    1    1    2    0    0 -0.15130198826E+02  0.10283912604E+02  0.39356594186E+02  0.43400729036E+02  0.00000000000E+00 0.  1.
         11    1    3    3    0    0  0.48214614209E+00  0.96592917270E+00  0.13491786071E-01  0.10796602977E+01  0.51100000000E-03 0. -1.
        -11    1    3    3    0    0 -0.93048990431E+00 -0.23709312613E+00 -0.18137925337E+02  0.18163324597E+02  0.51100000000E-03 0.  1.
         12    1    3    3    0    0  0.15578542588E+02 -0.11012748650E+02 -0.21232160634E+02  0.28544286069E+02  0.00000000000E+00 0. -1.
</event>
<event>
 7    1  0.4236733E-010  0.4778727E+02  0.7816164E-02  0.1312668E+00
        -11   -1    0    0    0    0  0.00000000000E+00  0.00000000000E+00  0.45593999997E+02  0.45594000000E+02  0.51100000000E-03 0. -1.
         11   -1    0    0    0    0 -0.00000000000E+00 -0.00000000000E+00 -0.45593999997E+02  0.45594000000E+02  0.51100000000E-03 0.  1.
    9900012    2    1    2    0    0  0.18124899310E+02 -0.39359829611E+02  0.24320588484E+01  0.47787273368E+02  0.20000010593E+02 0.  0.
        -12    1    1    2    0    0 -0.18124899310E+02  0.39359829611E+02 -0.24320588484E+01  0.43400726632E+02  0.00000000000E+00 0.  1.
         11    1    3    3    0    0  0.13891041607E+02 -0.24961290205E+02  0.20274708056E+01  0.28638046088E+02  0.51100000000E-03 0. -1.
        -11    1    3    3    0    0  0.68541203671E+01 -0.10286160326E+02  0.41088147879E+01  0.13025606300E+02  0.51100000000E-03 0.  1.
        -12    1    3    3    0    0 -0.26202626639E+01 -0.41123790794E+01 -0.37042267451E+01  0.61236209794E+01  0.00000000000E+00 0.  1.
</event>
<event>
 7    1  0.4236733E-010  0.4778725E+02  0.7816164E-02  0.1312668E+00
        -11   -1    0    0    0    0  0.00000000000E+00  0.00000000000E+00  0.45593999997E+02  0.45594000000E+02  0.51100000000E-03 0.  1.
         11   -1    0    0    0    0 -0.00000000000E+00 -0.00000000000E+00 -0.45593999997E+02  0.45594000000E+02  0.51100000000E-03 0. -1.
    9900012    2    1    2    0    0  0.28123686593E+02  0.27190174985E+02 -0.18798353653E+02  0.47787245820E+02  0.19999884991E+02 0.  0.
        -12    1    1    2    0    0 -0.28123686593E+02 -0.27190174985E+02  0.18798353653E+02  0.43400754180E+02  0.00000000000E+00 0.  1.
         11    1    3    3    0    0  0.29028139376E+01 -0.59305021112E-01  0.23287602172E+01  0.37219578520E+01  0.51100000000E-03 0. -1.
        -11    1    3    3    0    0  0.58755826393E+01  0.35579115778E+01  0.39728490773E-01  0.68689726132E+01  0.51100000000E-03 0.  1.
         12    1    3    3    0    0  0.19345290016E+02  0.23691568428E+02 -0.21166842361E+02  0.37196315355E+02  0.00000000000E+00 0. -1.
</event>
<event>
 7    1  0.4236733E-010  0.4778730E+02  0.7816164E-02  0.1312668E+00
        -11   -1    0    0    0    0  0.00000000000E+00  0.00000000000E+00  0.45593999997E+02  0.45594000000E+02  0.51100000000E-03 0.  1.
         11   -1    0    0    0    0 -0.00000000000E+00 -0.00000000000E+00 -0.45593999997E+02  0.45594000000E+02  0.51100000000E-03 0. -1.
    9900012    2    1    2    0    0 -0.91475778634E+01 -0.29989101466E+02 -0.30009943887E+02  0.47787295863E+02  0.20000113157E+02 0.  0.
        -12    1    1    2    0    0  0.91475778634E+01  0.29989101466E+02  0.30009943887E+02  0.43400704137E+02  0.00000000000E+00 0.  1.
         11    1    3    3    0    0 -0.43470376085E+01 -0.26485101877E+01 -0.76152525266E+01  0.91598806482E+01  0.51100000000E-03 0. -1.
        -11    1    3    3    0    0  0.14816403968E+01  0.13577969386E+01 -0.78453402631E+00  0.21573976665E+01  0.51100000000E-03 0.  1.
         12    1    3    3    0    0 -0.62821806517E+01 -0.28698388216E+02 -0.21610157334E+02  0.36470017548E+02  0.00000000000E+00 0. -1.
</event>
<event>
 7    1  0.4236733E-010  0.4778728E+02  0.7816164E-02  0.1312668E+00
        -11   -1    0    0    0    0  0.00000000000E+00  0.00000000000E+00  0.45593999997E+02  0.45594000000E+02  0.51100000000E-03 0. -1.
         11   -1    0    0    0    0 -0.00000000000E+00 -0.00000000000E+00 -0.45593999997E+02  0.45594000000E+02  0.51100000000E-03 0.  1.
    9900012    2    1    2    0    0 -0.17274133244E+02 -0.12271331514E+02  0.37876657951E+02  0.47787280260E+02  0.20000042017E+02 0.  0.
        -12    1    1    2    0    0  0.17274133244E+02  0.12271331514E+02 -0.37876657951E+02  0.43400719740E+02  0.00000000000E+00 0.  1.
         11    1    3    3    0    0 -0.61563618765E+01 -0.12060075270E+02  0.31041675070E+02  0.33866381538E+02  0.51100000000E-03 0. -1.
        -11    1    3    3    0    0 -0.50811616095E+01  0.23147391085E+01  0.31684238344E+01  0.64199011127E+01  0.51100000000E-03 0.  1.
         12    1    3    3    0    0 -0.60366097583E+01 -0.25259953519E+01  0.36665590466E+01  0.75009976093E+01  0.00000000000E+00 0. -1.
</event>
<event>
 7    1  0.4236733E-010  0.4778728E+02  0.7816164E-02  0.1312668E+00
        -11   -1    0    0    0    0  0.00000000000E+00  0.00000000000E+00  0.45593999997E+02  0.45594000000E+02  0.51100000000E-03 0.  1.
         11   -1    0    0    0    0 -0.00000000000E+00 -0.00000000000E+00 -0.45593999997E+02  0.45594000000E+02  0.51100000000E-03 0. -1.
    9900012    2    1    2    0    0  0.34407313801E+01 -0.34034541961E+02 -0.26710187798E+02  0.47787276375E+02  0.20000024304E+02 0.  0.
        -12    1    1    2    0    0 -0.34407313801E+01  0.34034541961E+02  0.26710187798E+02  0.43400723625E+02  0.00000000000E+00 0.  1.
         11    1    3    3    0    0  0.19678071525E+01 -0.25106919216E+02 -0.17075124454E+02  0.30426789724E+02  0.51100000000E-03 0. -1.
        -11    1    3    3    0    0  0.44940916821E+01 -0.10120471043E+02 -0.64686924888E+01  0.12824382128E+02  0.51100000000E-03 0.  1.
         12    1    3    3    0    0 -0.30211674545E+01  0.11928482980E+01 -0.31663708556E+01  0.45361045232E+01  0.00000000000E+00 0. -1.
</event>
<event>
 7    1  0.4329191E-010  0.4778727E+02  0.7816164E-02  0.1312668E+00
        -11   -1    0    0    0    0  0.00000000000E+00  0.00000000000E+00  0.45593999997E+02  0.45594000000E+02  0.51100000000E-03 0. -1.
         11   -1    0    0    0    0 -0.00000000000E+00 -0.00000000000E+00 -0.45593999997E+02  0.45594000000E+02  0.51100000000E-03 0.  1.
    9900012    2    1    2    0    0  0.18584562348E+02  0.30151954502E+02  0.25081810920E+02  0.47787267783E+02  0.19999985130E+02 0.  0.
        -12    1    1    2    0    0 -0.18584562348E+02 -0.30151954502E+02 -0.25081810920E+02  0.43400732217E+02  0.00000000000E+00 0.  1.
         11    1    3    3    0    0  0.50877861677E+01  0.12961055992E+02  0.15984869459E+02  0.21198834694E+02  0.51100000000E-03 0. -1.
        -11    1    3    3    0    0  0.79828448848E+01  0.17060098431E+02  0.94275799629E+01  0.21063049047E+02  0.51100000000E-03 0.  1.
        -12    1    3    3    0    0  0.55139312955E+01  0.13080007903E+00 -0.33063850196E+00  0.55253840419E+01  0.00000000000E+00 0.  1.
</event>
<event>
 7    1  0.4236733E-010  0.4778726E+02  0.7816164E-02  0.1312668E+00
        -11   -1    0    0    0    0  0.00000000000E+00  0.00000000000E+00  0.45593999997E+02  0.45594000000E+02  0.51100000000E-03 0. -1.
         11   -1    0    0    0    0 -0.00000000000E+00 -0.00000000000E+00 -0.45593999997E+02  0.45594000000E+02  0.51100000000E-03 0.  1.
    9900012    2    1    2    0    0  0.61273113282E+01 -0.24832665742E+02  0.35063073789E+02  0.47787258353E+02  0.19999942136E+02 0.  0.
        -12    1    1    2    0    0 -0.61273113282E+01  0.24832665742E+02 -0.35063073789E+02  0.43400741647E+02  0.00000000000E+00 0.  1.
         11    1    3    3    0    0 -0.33424717232E+01 -0.54837358671E+01  0.87497902897E+01  0.10853677103E+02  0.51100000000E-03 0. -1.
        -11    1    3    3    0    0 -0.19318433555E+01 -0.54720108032E+01  0.14007838978E+02  0.15162271402E+02  0.51100000000E-03 0.  1.
         12    1    3    3    0    0  0.11401626407E+02 -0.13876919071E+02  0.12305444522E+02  0.21771309848E+02  0.00000000000E+00 0. -1.
</event>
<event>
 7    1  0.4236733E-010  0.4778727E+02  0.7816164E-02  0.1312668E+00
        -11   -1    0    0    0    0  0.00000000000E+00  0.00000000000E+00  0.45593999997E+02  0.45594000000E+02  0.51100000000E-03 0. -1.
         11   -1    0    0    0    0 -0.00000000000E+00 -0.00000000000E+00 -0.45593999997E+02  0.45594000000E+02  0.51100000000E-03 0.  1.
    9900012    2    1    2    0    0  0.10308434704E+02  0.41945879187E+02 -0.42311751575E+01  0.47787269015E+02  0.19999990747E+02 0.  0.
        -12    1    1    2    0    0 -0.10308434704E+02 -0.41945879187E+02  0.42311751575E+01  0.43400730985E+02  0.00000000000E+00 0.  1.
         11    1    3    3    0    0  0.12685854509E+02  0.23436151312E+02  0.34957408126E+01  0.26877579821E+02  0.51100000000E-03 0. -1.
        -11    1    3    3    0    0  0.14650878082E+01  0.37665087167E+01 -0.27234235180E+01  0.48734080599E+01  0.51100000000E-03 0.  1.
        -12    1    3    3    0    0 -0.38425076127E+01  0.14743219158E+02 -0.50034924521E+01  0.16036281134E+02  0.00000000000E+00 0.  1.
</event>
<event>
 7    1  0.4236733E-010  0.4778727E+02  0.7816164E-02  0.1312668E+00
        -11   -1    0    0    0    0  0.00000000000E+00  0.00000000000E+00  0.45593999997E+02  0.45594000000E+02  0.51100000000E-03 0.  1.
         11   -1    0    0    0    0 -0.00000000000E+00 -0.00000000000E+00 -0.45593999997E+02  0.45594000000E+02  0.51100000000E-03 0. -1.
    9900012    2    1    2    0    0 -0.23587542121E+02  0.11982541443E+01 -0.36411747156E+02  0.47787270890E+02  0.19999999296E+02 0.  0.
        -12    1    1    2    0    0  0.23587542121E+02 -0.11982541443E+01  0.36411747156E+02  0.43400729110E+02  0.00000000000E+00 0.  1.
         11    1    3    3    0    0  0.99808603989E+00  0.97665294828E+00 -0.83546235523E+00  0.16272751250E+01  0.51100000000E-03 0. -1.
        -11    1    3    3    0    0 -0.14916844477E+02 -0.74698450761E+01 -0.24003909704E+02  0.29231806580E+02  0.51100000000E-03 0.  1.
         12    1    3    3    0    0 -0.96687836844E+01  0.76914462721E+01 -0.11572375097E+02  0.16928189185E+02  0.00000000000E+00 0. -1.
</event>
<event>
 7    1  0.4236733E-010  0.4778727E+02  0.7816164E-02  0.1312668E+00
        -11   -1    0    0    0    0  0.00000000000E+00  0.00000000000E+00  0.45593999997E+02  0.45594000000E+02  0.51100000000E-03 0.  1.
         11   -1    0    0    0    0 -0.00000000000E+00 -0.00000000000E+00 -0.45593999997E+02  0.45594000000E+02  0.51100000000E-03 0. -1.
    9900012    2    1    2    0    0 -0.78293966435E+00  0.29838908860E+02 -0.31506346278E+02  0.47787270372E+02  0.19999996932E+02 0.  0.
        -12    1    1    2    0    0  0.78293966435E+00 -0.29838908860E+02  0.31506346278E+02  0.43400729628E+02  0.00000000000E+00 0.  1.
         11    1    3    3    0    0  0.22946494859E+01  0.98030944086E+01 -0.42756754570E+01  0.10938348921E+02  0.51100000000E-03 0. -1.
        -11    1    3    3    0    0  0.27449450053E+01  0.81560744103E+01 -0.27713091003E+01  0.90408200546E+01  0.51100000000E-03 0.  1.
         12    1    3    3    0    0 -0.58225341556E+01  0.11879740041E+02 -0.24459361721E+02  0.27808101396E+02  0.00000000000E+00 0. -1.
</event>
<event>
 7    1  0.4236733E-010  0.4778727E+02  0.7816164E-02  0.1312668E+00
        -11   -1    0    0    0    0  0.00000000000E+00  0.00000000000E+00  0.45593999997E+02  0.45594000000E+02  0.51100000000E-03 0.  1.
         11   -1    0    0    0    0 -0.00000000000E+00 -0.00000000000E+00 -0.45593999997E+02  0.45594000000E+02  0.51100000000E-03 0. -1.
    9900012    2    1    2    0    0  0.20597854751E+02  0.37406940394E+02 -0.77506350393E+01  0.47787272432E+02  0.20000006324E+02 0.  0.
        -12    1    1    2    0    0 -0.20597854751E+02 -0.37406940394E+02  0.77506350393E+01  0.43400727568E+02  0.00000000000E+00 0.  1.
         11    1    3    3    0    0  0.15708482410E+00 -0.74992615698E+00  0.37422566882E+00  0.85270744995E+00  0.51100000000E-03 0. -1.
        -11    1    3    3    0    0  0.41321892226E+01  0.16042724569E+02 -0.10072751208E+02  0.19388252023E+02  0.51100000000E-03 0.  1.
         12    1    3    3    0    0  0.16308580705E+02  0.22114141982E+02  0.19478905000E+01  0.27546312958E+02  0.00000000000E+00 0. -1.
</event>
<event>
 7    1  0.4236733E-010  0.4778728E+02  0.7816164E-02  0.1312668E+00
        -11   -1    0    0    0    0  0.00000000000E+00  0.00000000000E+00  0.45593999997E+02  0.45594000000E+02  0.51100000000E-03 0. -1.
         11   -1    0    0    0    0 -0.00000000000E+00 -0.00000000000E+00 -0.45593999997E+02  0.45594000000E+02  0.51100000000E-03 0.  1.
    9900012    2    1    2    0    0 -0.17184225792E+01 -0.32414533897E+02  0.28809160383E+02  0.47787277588E+02  0.20000029833E+02 0.  0.
        -12    1    1    2    0    0  0.17184225792E+01  0.32414533897E+02 -0.28809160383E+02  0.43400722412E+02  0.00000000000E+00 0.  1.
         11    1    3    3    0    0  0.54993127667E+00 -0.31821098904E+02  0.30629398408E+02  0.44170632857E+02  0.51100000000E-03 0. -1.
        -11    1    3    3    0    0 -0.85180747277E+00 -0.11052870553E+01 -0.20892557015E+00  0.14109874558E+01  0.51100000000E-03 0.  1.
         12    1    3    3    0    0 -0.14165463831E+01  0.51185206233E+00 -0.16113124545E+01  0.22056572751E+01  0.00000000000E+00 0. -1.
</event>
<event>
 7    1  0.4236733E-010  0.4778727E+02  0.7816164E-02  0.1312668E+00
        -11   -1    0    0    0    0  0.00000000000E+00  0.00000000000E+00  0.45593999997E+02  0.45594000000E+02  0.51100000000E-03 0. -1.
         11   -1    0    0    0    0 -0.00000000000E+00 -0.00000000000E+00 -0.45593999997E+02  0.45594000000E+02  0.51100000000E-03 0.  1.
    9900012    2    1    2    0    0 -0.14206255809E+02 -0.13602158739E+02  0.38688329984E+02  0.47787270704E+02  0.19999998446E+02 0.  0.
        -12    1    1    2    0    0  0.14206255809E+02  0.13602158739E+02 -0.38688329984E+02  0.43400729296E+02  0.00000000000E+00 0.  1.
         11    1    3    3    0    0 -0.75601428774E+01 -0.51253580317E+01  0.20557593750E+02  0.22495326545E+02  0.51100000000E-03 0. -1.
        -11    1    3    3    0    0  0.34969560981E+01 -0.27557540621E+01  0.10403487312E+02  0.11316157957E+02  0.51100000000E-03 0.  1.
        -12    1    3    3    0    0 -0.10143069030E+02 -0.57210466447E+01  0.77272489225E+01  0.13975786202E+02  0.00000000000E+00 0.  1.
</event>
<event>
 7    1  0.4236733E-010  0.4778727E+02  0.7816164E-02  0.1312668E+00
        -11   -1    0    0    0    0  0.00000000000E+00  0.00000000000E+00  0.45593999997E+02  0.45594000000E+02  0.51100000000E-03 0. -1.
         11   -1    0    0    0    0 -0.00000000000E+00 -0.00000000000E+00 -0.45593999997E+02  0.45594000000E+02  0.51100000000E-03 0.  1.
    9900012    2    1    2    0    0 -0.43028771462E+02  0.94134891303E+00  0.55912381805E+01  0.47787271254E+02  0.20000000953E+02 0.  0.
        -12    1    1    2    0    0  0.43028771462E+02 -0.94134891303E+00 -0.55912381805E+01  0.43400728746E+02  0.00000000000E+00 0.  1.
         11    1    3    3    0    0 -0.31380612822E+01  0.56346181151E+01  0.53008400236E+00  0.64712702945E+01  0.51100000000E-03 0. -1.
        -11    1    3    3    0    0 -0.10528907051E+02 -0.13031006103E+01  0.50715971814E+01  0.11759126375E+02  0.51100000000E-03 0.  1.
        -12    1    3    3    0    0 -0.29361803130E+02 -0.33901685918E+01 -0.10443003285E-01  0.29556874584E+02  0.00000000000E+00 0.  1.
</event>
<event>
 7    1  0.4236733E-010  0.4778727E+02  0.7816164E-02  0.1312668E+00
        -11   -1    0    0    0    0  0.00000000000E+00  0.00000000000E+00  0.45593999997E+02  0.45594000000E+02  0.51100000000E-03 0.  1.
         11   -1    0    0    0    0 -0.00000000000E+00 -0.00000000000E+00 -0.45593999997E+02  0.45594000000E+02  0.51100000000E-03 0. -1.
    9900012    2    1    2    0    0  0.13658880982E+02  0.15866868416E+02 -0.38017112596E+02  0.47787269671E+02  0.19999993737E+02 0.  0.
        -12    1    1    2    0    0 -0.13658880982E+02 -0.15866868416E+02  0.38017112596E+02  0.43400730329E+02  0.00000000000E+00 0.  1.
         11    1    3    3    0    0  0.47987551077E+01  0.34980150458E+01 -0.19664128860E+02  0.20541229854E+02  0.51100000000E-03 0. -1.
        -11    1    3    3    0    0  0.90702386914E+01  0.13507950771E+02 -0.19646834882E+02  0.25509450897E+02  0.51100000000E-03 0.  1.
        -12    1    3    3    0    0 -0.21011281693E+00 -0.11390974009E+01  0.12938511463E+01  0.17365889190E+01  0.00000000000E+00 0.  1.
</event>
<event>
 7    1  0.4236733E-010  0.4778727E+02  0.7816164E-02  0.1312668E+00
        -11   -1    0    0    0    0  0.00000000000E+00  0.00000000000E+00  0.45593999997E+02  0.45594000000E+02  0.51100000000E-03 0.  1.
         11   -1    0    0    0    0 -0.00000000000E+00 -0.00000000000E+00 -0.45593999997E+02  0.45594000000E+02  0.51100000000E-03 0. -1.
    9900012    2    1    2    0    0 -0.17120212102E+02  0.32529712893E+02 -0.23072481171E+02  0.47787271081E+02  0.20000000166E+02 0.  0.
        -12    1    1    2    0    0  0.17120212102E+02 -0.32529712893E+02  0.23072481171E+02  0.43400728919E+02  0.00000000000E+00 0.  1.
         11    1    3    3    0    0 -0.64301674961E+01  0.14035203635E+02 -0.11278744518E+02  0.19119206921E+02  0.51100000000E-03 0. -1.
        -11    1    3    3    0    0 -0.63217350960E+01  0.20347010472E+02 -0.87647287678E+01  0.23038785567E+02  0.51100000000E-03 0.  1.
        -12    1    3    3    0    0 -0.43683095097E+01 -0.18525012134E+01 -0.30290078845E+01  0.56292785934E+01  0.00000000000E+00 0.  1.
</event>
<event>
 7    1  0.4236733E-010  0.4778727E+02  0.7816164E-02  0.1312668E+00
        -11   -1    0    0    0    0  0.00000000000E+00  0.00000000000E+00  0.45593999997E+02  0.45594000000E+02  0.51100000000E-03 0.  1.
         11   -1    0    0    0    0 -0.00000000000E+00 -0.00000000000E+00 -0.45593999997E+02  0.45594000000E+02  0.51100000000E-03 0. -1.
    9900012    2    1    2    0    0 -0.36298195446E+02  0.17178114760E+02 -0.16461381028E+02  0.47787266311E+02  0.19999978419E+02 0.  0.
        -12    1    1    2    0    0  0.36298195446E+02 -0.17178114760E+02  0.16461381028E+02  0.43400733689E+02  0.00000000000E+00 0.  1.
         11    1    3    3    0    0 -0.13167715391E+02  0.11179887882E+01 -0.11232563338E+01  0.13262742273E+02  0.51100000000E-03 0. -1.
        -11    1    3    3    0    0  0.11703196382E+01 -0.63173397409E+00 -0.88992959444E-01  0.13329125543E+01  0.51100000000E-03 0.  1.
         12    1    3    3    0    0 -0.24300799693E+02  0.16691859946E+02 -0.15249131735E+02  0.33191611483E+02  0.00000000000E+00 0. -1.
</event>
<event>
 7    1  0.4236733E-010  0.4778727E+02  0.7816164E-02  0.1312668E+00
        -11   -1    0    0    0    0  0.00000000000E+00  0.00000000000E+00  0.45593999997E+02  0.45594000000E+02  0.51100000000E-03 0. -1.
         11   -1    0    0    0    0 -0.00000000000E+00 -0.00000000000E+00 -0.45593999997E+02  0.45594000000E+02  0.51100000000E-03 0.  1.
    9900012    2    1    2    0    0  0.25084702483E+02 -0.35163132518E+02  0.42349714664E+01  0.47787272236E+02  0.20000005433E+02 0.  0.
        -12    1    1    2    0    0 -0.25084702483E+02  0.35163132518E+02 -0.42349714664E+01  0.43400727764E+02  0.00000000000E+00 0.  1.
         11    1    3    3    0    0  0.27575762433E+02 -0.27767883114E+02  0.33648677804E+01  0.39278497194E+02  0.51100000000E-03 0. -1.
        -11    1    3    3    0    0 -0.12349654773E+01 -0.20176214065E+01 -0.11477205950E+01  0.26292962357E+01  0.51100000000E-03 0.  1.
        -12    1    3    3    0    0 -0.12560944729E+01 -0.53776279976E+01  0.20178242810E+01  0.58794788063E+01  0.00000000000E+00 0.  1.
</event>
<event>
 7    1  0.4236733E-010  0.4778728E+02  0.7816164E-02  0.1312668E+00
        -11   -1    0    0    0    0  0.00000000000E+00  0.00000000000E+00  0.45593999997E+02  0.45594000000E+02  0.51100000000E-03 0. -1.
         11   -1    0    0    0    0 -0.00000000000E+00 -0.00000000000E+00 -0.45593999997E+02  0.45594000000E+02  0.51100000000E-03 0.  1.
    9900012    2    1    2    0    0  0.34975675170E+02  0.25671626528E+02  0.11368566788E+01  0.47787277595E+02  0.20000029867E+02 0.  0.
        -12    1    1    2    0    0 -0.34975675170E+02 -0.25671626528E+02 -0.11368566788E+01  0.43400722405E+02  0.00000000000E+00 0.  1.
         11    1    3    3    0    0  0.17008345917E+02  0.18871351874E+02 -0.64759415064E+00  0.25413207803E+02  0.51100000000E-03 0. -1.
        -11    1    3    3    0    0 -0.13534772680E+01  0.15036682509E+01 -0.79770677814E+00  0.21746851011E+01  0.51100000000E-03 0.  1.
         12    1    3    3    0    0  0.19320806520E+02  0.52966064033E+01  0.25821576076E+01  0.20199384691E+02  0.00000000000E+00 0. -1.
</event>
<event>
 7    1  0.4236733E-010  0.4778728E+02  0.7816164E-02  0.1312668E+00
        -11   -1    0    0    0    0  0.00000000000E+00  0.00000000000E+00  0.45593999997E+02  0.45594000000E+02  0.51100000000E-03 0.  1.
         11   -1    0    0    0    0 -0.00000000000E+00 -0.00000000000E+00 -0.45593999997E+02  0.45594000000E+02  0.51100000000E-03 0. -1.
    9900012    2    1    2    0    0  0.24369807846E+02 -0.34631048083E+02 -0.95092482143E+01  0.47787276188E+02  0.20000023454E+02 0.  0.
        -12    1    1    2    0    0 -0.24369807846E+02  0.34631048083E+02  0.95092482143E+01  0.43400723812E+02  0.00000000000E+00 0.  1.
         11    1    3    3    0    0  0.14076589774E+01  0.87460061931E+00 -0.79659896379E+00  0.18387496323E+01  0.51100000000E-03 0. -1.
        -11    1    3    3    0    0  0.56811402418E+01 -0.13519687646E+01  0.20471924658E+01  0.61882284412E+01  0.51100000000E-03 0.  1.
         12    1    3    3    0    0  0.17281008627E+02 -0.34153679938E+02 -0.10759841716E+02  0.39760298115E+02  0.00000000000E+00 0. -1.
</event>
<event>
 7    1  0.4236733E-010  0.4778726E+02  0.7816164E-02  0.1312668E+00
        -11   -1    0    0    0    0  0.00000000000E+00  0.00000000000E+00  0.45593999997E+02  0.45594000000E+02  0.51100000000E-03 0.  1.
         11   -1    0    0    0    0 -0.00000000000E+00 -0.00000000000E+00 -0.45593999997E+02  0.45594000000E+02  0.51100000000E-03 0. -1.
    9900012    2    1    2    0    0 -0.16743763742E+02  0.32805086175E+02 -0.22958585568E+02  0.47787263204E+02  0.19999964251E+02 0.  0.
        -12    1    1    2    0    0  0.16743763742E+02 -0.32805086175E+02  0.22958585568E+02  0.43400736796E+02  0.00000000000E+00 0.  1.
         11    1    3    3    0    0 -0.71025636230E+01  0.80987062712E+01 -0.23302327741E+01  0.11021135982E+02  0.51100000000E-03 0. -1.
        -11    1    3    3    0    0 -0.44137563548E+01  0.52782567555E+01  0.13047098263E+01  0.70031069911E+01  0.51100000000E-03 0.  1.
         12    1    3    3    0    0 -0.52274437642E+01  0.19428123148E+02 -0.21933062620E+02  0.29763020231E+02  0.00000000000E+00 0. -1.
</event>
<event>
 7    1  0.4236733E-010  0.4778727E+02  0.7816164E-02  0.1312668E+00
        -11   -1    0    0    0    0  0.00000000000E+00  0.00000000000E+00  0.45593999997E+02  0.45594000000E+02  0.51100000000E-03 0. -1.
         11   -1    0    0    0    0 -0.00000000000E+00 -0.00000000000E+00 -0.45593999997E+02  0.45594000000E+02  0.51100000000E-03 0.  1.
    9900012    2    1    2    0    0  0.13159011846E+02 -0.13407937723E+02  0.39124045428E+02  0.47787270543E+02  0.19999997715E+02 0.  0.
        -12    1    1    2    0    0 -0.13159011846E+02  0.13407937723E+02 -0.39124045428E+02  0.43400729457E+02  0.00000000000E+00 0.  1.
         11    1    3    3    0    0  0.90310851591E+01 -0.48776003646E+01  0.94836259765E+01  0.13974642979E+02  0.51100000000E-03 0. -1.
        -11    1    3    3    0    0 -0.20633031980E+01 -0.17464134930E+01 -0.81106572752E-01  0.27043961827E+01  0.51100000000E-03 0.  1.
         12    1    3    3    0    0  0.61912298846E+01 -0.67839238656E+01  0.29721526024E+02  0.31108231382E+02  0.00000000000E+00 0. -1.
</event>
<event>
 7    1  0.4236733E-010  0.4778725E+02  0.7816164E-02  0.1312668E+00
        -11   -1    0    0    0    0  0.00000000000E+00  0.00000000000E+00  0.45593999997E+02  0.45594000000E+02  0.51100000000E-03 0.  1.
         11   -1    0    0    0    0 -0.00000000000E+00 -0.00000000000E+00 -0.45593999997E+02  0.45594000000E+02  0.51100000000E-03 0. -1.
    9900012    2    1    2    0    0  0.26598680569E+02 -0.68977876940E+00 -0.34287895788E+02  0.47787246547E+02  0.19999888305E+02 0.  0.
        -12    1    1    2    0    0 -0.26598680569E+02  0.68977876940E+00  0.34287895788E+02  0.43400753453E+02  0.00000000000E+00 0.  1.
         11    1    3    3    0    0  0.15912466031E+02 -0.20090202758E+01 -0.16587186818E+02  0.23073307185E+02  0.51100000000E-03 0. -1.
        -11    1    3    3    0    0  0.69510535376E+01 -0.40716203184E+01 -0.29639982638E+01  0.85837359738E+01  0.51100000000E-03 0.  1.
        -12    1    3    3    0    0  0.37351610007E+01  0.53908618247E+01 -0.14736710706E+02  0.16130203388E+02  0.00000000000E+00 0.  1.
</event>
<event>
 7    1  0.4236733E-010  0.4778730E+02  0.7816164E-02  0.1312668E+00
        -11   -1    0    0    0    0  0.00000000000E+00  0.00000000000E+00  0.45593999997E+02  0.45594000000E+02  0.51100000000E-03 0. -1.
         11   -1    0    0    0    0 -0.00000000000E+00 -0.00000000000E+00 -0.45593999997E+02  0.45594000000E+02  0.51100000000E-03 0.  1.
    9900012    2    1    2    0    0 -0.92243426032E+01  0.37250632650E+02  0.20271226361E+02  0.47787300150E+02  0.20000132704E+02 0.  0.
        -12    1    1    2    0    0  0.92243426032E+01 -0.37250632650E+02 -0.20271226361E+02  0.43400699850E+02  0.00000000000E+00 0.  1.
         11    1    3    3    0    0 -0.32508812914E+01  0.19642665757E+01 -0.78884066122E+00  0.38792837227E+01  0.51100000000E-03 0. -1.
        -11    1    3    3    0    0 -0.90961476227E+01  0.12236347897E+02  0.90373781668E+01  0.17724060365E+02  0.51100000000E-03 0.  1.
         12    1    3    3    0    0  0.31226863109E+01  0.23050018178E+02  0.12022688855E+02  0.26183956063E+02  0.00000000000E+00 0. -1.
</event>
<event>
 7    1  0.4236733E-010  0.4778727E+02  0.7816164E-02  0.1312668E+00
        -11   -1    0    0    0    0  0.00000000000E+00  0.00000000000E+00  0.45593999997E+02  0.45594000000E+02  0.51100000000E-03 0.  1.
         11   -1    0    0    0    0 -0.00000000000E+00 -0.00000000000E+00 -0.45593999997E+02  0.45594000000E+02  0.51100000000E-03 0. -1.
    9900012    2    1    2    0    0  0.11525979622E+02 -0.29479898080E+00 -0.41841222466E+02  0.47787274083E+02  0.20000013853E+02 0.  0.
        -12    1    1    2    0    0 -0.11525979622E+02  0.29479898080E+00  0.41841222466E+02  0.43400725917E+02  0.00000000000E+00 0.  1.
         11    1    3    3    0    0  0.33662229428E+01  0.10570283913E+01 -0.13250023723E+02  0.13711742954E+02  0.51100000000E-03 0. -1.
        -11    1    3    3    0    0  0.63825166482E+01 -0.84555154632E+01 -0.12425412877E+02  0.16328599020E+02  0.51100000000E-03 0.  1.
         12    1    3    3    0    0  0.17772400312E+01  0.71036880911E+01 -0.16165785865E+02  0.17746932109E+02  0.00000000000E+00 0. -1.
</event>
<event>
 7    1  0.4236733E-010  0.4778727E+02  0.7816164E-02  0.1312668E+00
        -11   -1    0    0    0    0  0.00000000000E+00  0.00000000000E+00  0.45593999997E+02  0.45594000000E+02  0.51100000000E-03 0. -1.
         11   -1    0    0    0    0 -0.00000000000E+00 -0.00000000000E+00 -0.45593999997E+02  0.45594000000E+02  0.51100000000E-03 0.  1.
    9900012    2    1    2    0    0 -0.15884336584E+02  0.39780086544E+02  0.69896956413E+01  0.47787270982E+02  0.19999999715E+02 0.  0.
        -12    1    1    2    0    0  0.15884336584E+02 -0.39780086544E+02 -0.69896956413E+01  0.43400729018E+02  0.00000000000E+00 0.  1.
         11    1    3    3    0    0 -0.61689262188E+00  0.14281176661E+02  0.45326810392E+01  0.14995924813E+02  0.51100000000E-03 0. -1.
        -11    1    3    3    0    0 -0.25004358731E+00  0.58077491760E+01 -0.41719963304E+01  0.71552795842E+01  0.51100000000E-03 0.  1.
         12    1    3    3    0    0 -0.15017400375E+02  0.19691160707E+02  0.66290109324E+01  0.25636066585E+02  0.00000000000E+00 0. -1.
</event>
<event>
 7    1  0.4236733E-010  0.4778727E+02  0.7816164E-02  0.1312668E+00
        -11   -1    0    0    0    0  0.00000000000E+00  0.00000000000E+00  0.45593999997E+02  0.45594000000E+02  0.51100000000E-03 0.  1.
         11   -1    0    0    0    0 -0.00000000000E+00 -0.00000000000E+00 -0.45593999997E+02  0.45594000000E+02  0.51100000000E-03 0. -1.
    9900012    2    1    2    0    0  0.16911059741E+02 -0.37555025420E+02 -0.13684280603E+02  0.47787269459E+02  0.19999992773E+02 0.  0.
        -12    1    1    2    0    0 -0.16911059741E+02  0.37555025420E+02  0.13684280603E+02  0.43400730541E+02  0.00000000000E+00 0.  1.
         11    1    3    3    0    0  0.30531797929E+01 -0.15058863085E+02 -0.57155860414E+01  0.16393876549E+02  0.51100000000E-03 0.  1.
        -11    1    3    3    0    0  0.14270031139E+02 -0.24438525896E+02 -0.79957222252E+01  0.29407599542E+02  0.51100000000E-03 0. -1.
        -12    1    3    3    0    0 -0.41215119049E+00  0.19423635607E+01  0.27027664070E-01  0.19857933680E+01  0.00000000000E+00 0.  1.
</event>
<event>
 7    1  0.4236733E-010  0.4778727E+02  0.7816164E-02  0.1312668E+00
        -11   -1    0    0    0    0  0.00000000000E+00  0.00000000000E+00  0.45593999997E+02  0.45594000000E+02  0.51100000000E-03 0.  1.
         11   -1    0    0    0    0 -0.00000000000E+00 -0.00000000000E+00 -0.45593999997E+02  0.45594000000E+02  0.51100000000E-03 0. -1.
    9900012    2    1    2    0    0  0.19286110211E+02 -0.34274997251E+02 -0.18354664672E+02  0.47787271909E+02  0.20000003941E+02 0.  0.
        -12    1    1    2    0    0 -0.19286110211E+02  0.34274997251E+02  0.18354664672E+02  0.43400728091E+02  0.00000000000E+00 0.  1.
         11    1    3    3    0    0 -0.17074752404E+01 -0.56108025303E+01 -0.69612082767E+00  0.59060275311E+01  0.51100000000E-03 0. -1.
        -11    1    3    3    0    0 -0.12081512288E+01  0.37491958521E+00 -0.13631227372E+01  0.18596499522E+01  0.51100000000E-03 0.  1.
         12    1    3    3    0    0  0.22201736680E+02 -0.29039114306E+02 -0.16295421107E+02  0.40021594425E+02  0.00000000000E+00 0. -1.
</event>
<event>
 7    1  0.4236733E-010  0.4778727E+02  0.7816164E-02  0.1312668E+00
        -11   -1    0    0    0    0  0.00000000000E+00  0.00000000000E+00  0.45593999997E+02  0.45594000000E+02  0.51100000000E-03 0. -1.
         11   -1    0    0    0    0 -0.00000000000E+00 -0.00000000000E+00 -0.45593999997E+02  0.45594000000E+02  0.51100000000E-03 0.  1.
    9900012    2    1    2    0    0  0.26273453814E+02  0.32731140577E+02  0.11045411515E+02  0.47787273574E+02  0.20000011533E+02 0.  0.
        -12    1    1    2    0    0 -0.26273453814E+02 -0.32731140577E+02 -0.11045411515E+02  0.43400726426E+02  0.00000000000E+00 0.  1.
         11    1    3    3    0    0  0.11140757258E+02  0.16064793614E+02  0.10910051242E+02  0.22388016538E+02  0.51100000000E-03 0. -1.
        -11    1    3    3    0    0  0.25800266534E+01  0.16905895578E+01  0.44241883005E+01  0.53933359774E+01  0.51100000000E-03 0.  1.
        -12    1    3    3    0    0  0.12552669903E+02  0.14975757405E+02 -0.42888280280E+01  0.20005921058E+02  0.00000000000E+00 0.  1.
</event>
<event>
 7    1  0.4236733E-010  0.4778727E+02  0.7816164E-02  0.1312668E+00
        -11   -1    0    0    0    0  0.00000000000E+00  0.00000000000E+00  0.45593999997E+02  0.45594000000E+02  0.51100000000E-03 0. -1.
         11   -1    0    0    0    0 -0.00000000000E+00 -0.00000000000E+00 -0.45593999997E+02  0.45594000000E+02  0.51100000000E-03 0.  1.
    9900012    2    1    2    0    0  0.16519385644E+02  0.42381054366E+01  0.39909541736E+02  0.47787272341E+02  0.20000005910E+02 0.  0.
        -12    1    1    2    0    0 -0.16519385644E+02 -0.42381054366E+01 -0.39909541736E+02  0.43400727659E+02  0.00000000000E+00 0.  1.
         11    1    3    3    0    0  0.44887124129E+01  0.27286980578E+01  0.24862410437E+02  0.25411292474E+02  0.51100000000E-03 0. -1.
        -11    1    3    3    0    0  0.11315616447E+02  0.73954977384E+00  0.16837518558E+02  0.20300052731E+02  0.51100000000E-03 0.  1.
        -12    1    3    3    0    0  0.71505678414E+00  0.76985760500E+00 -0.17903872582E+01  0.20759271353E+01  0.00000000000E+00 0.  1.
</event>
<event>
 7    1  0.4236733E-010  0.4778727E+02  0.7816164E-02  0.1312668E+00
        -11   -1    0    0    0    0  0.00000000000E+00  0.00000000000E+00  0.45593999997E+02  0.45594000000E+02  0.51100000000E-03 0. -1.
         11   -1    0    0    0    0 -0.00000000000E+00 -0.00000000000E+00 -0.45593999997E+02  0.45594000000E+02  0.51100000000E-03 0.  1.
    9900012    2    1    2    0    0 -0.42331156208E+02 -0.82157128625E+01  0.49191968289E+01  0.47787271652E+02  0.20000002770E+02 0.  0.
        -12    1    1    2    0    0  0.42331156208E+02  0.82157128625E+01 -0.49191968289E+01  0.43400728348E+02  0.00000000000E+00 0.  1.
         11    1    3    3    0    0 -0.35688268141E+02 -0.77171727586E+01 -0.12385331793E+01  0.36534110130E+02  0.51100000000E-03 0. -1.
        -11    1    3    3    0    0 -0.53833112831E+01  0.17158915755E+01  0.13454621715E+01  0.58081488433E+01  0.51100000000E-03 0.  1.
        -12    1    3    3    0    0 -0.12595767831E+01 -0.22144316794E+01  0.48122678367E+01  0.54450126783E+01  0.00000000000E+00 0.  1.
</event>
<event>
 7    1  0.4236733E-010  0.4778727E+02  0.7816164E-02  0.1312668E+00
        -11   -1    0    0    0    0  0.00000000000E+00  0.00000000000E+00  0.45593999997E+02  0.45594000000E+02  0.51100000000E-03 0.  1.
         11   -1    0    0    0    0 -0.00000000000E+00 -0.00000000000E+00 -0.45593999997E+02  0.45594000000E+02  0.51100000000E-03 0. -1.
    9900012    2    1    2    0    0  0.30523509630E+02 -0.30810480453E+02  0.16287894910E+01  0.47787270731E+02  0.19999998571E+02 0.  0.
        -12    1    1    2    0    0 -0.30523509630E+02  0.30810480453E+02 -0.16287894910E+01  0.43400729269E+02  0.00000000000E+00 0.  1.
         11    1    3    3    0    0  0.13621616364E+02 -0.11142028015E+02  0.14947674677E+01  0.17661470797E+02  0.51100000000E-03 0. -1.
        -11    1    3    3    0    0  0.11327078269E+02 -0.18889976190E+02  0.51123244574E+01  0.22611275156E+02  0.51100000000E-03 0.  1.
        -12    1    3    3    0    0  0.55748149966E+01 -0.77847624793E+00 -0.49783024341E+01  0.75145247781E+01  0.00000000000E+00 0.  1.
</event>
<event>
 7    1  0.4236733E-010  0.4778727E+02  0.7816164E-02  0.1312668E+00
        -11   -1    0    0    0    0  0.00000000000E+00  0.00000000000E+00  0.45593999997E+02  0.45594000000E+02  0.51100000000E-03 0.  1.
         11   -1    0    0    0    0 -0.00000000000E+00 -0.00000000000E+00 -0.45593999997E+02  0.45594000000E+02  0.51100000000E-03 0. -1.
    9900012    2    1    2    0    0  0.38212924209E+01 -0.41176232399E+02 -0.13173420008E+02  0.47787269764E+02  0.19999994163E+02 0.  0.
        -12    1    1    2    0    0 -0.38212924209E+01  0.41176232399E+02  0.13173420008E+02  0.43400730236E+02  0.00000000000E+00 0.  1.
         11    1    3    3    0    0  0.39491858962E+01 -0.83683720604E+00 -0.31177756589E+01  0.51006755506E+01  0.51100000000E-03 0. -1.
        -11    1    3    3    0    0 -0.17375791393E+01 -0.13156741810E+01 -0.16545567245E+01  0.27363731529E+01  0.51100000000E-03 0.  1.
        -12    1    3    3    0    0  0.16096856640E+01 -0.39023721012E+02 -0.84010876244E+01  0.39950221061E+02  0.00000000000E+00 0.  1.
</event>
<event>
 7    1  0.4236733E-010  0.4778728E+02  0.7816164E-02  0.1312668E+00
        -11   -1    0    0    0    0  0.00000000000E+00  0.00000000000E+00  0.45593999997E+02  0.45594000000E+02  0.51100000000E-03 0. -1.
         11   -1    0    0    0    0 -0.00000000000E+00 -0.00000000000E+00 -0.45593999997E+02  0.45594000000E+02  0.51100000000E-03 0.  1.
    9900012    2    1    2    0    0  0.24700129106E+02 -0.12750213286E+02  0.33331045771E+02  0.47787275019E+02  0.20000018120E+02 0.  0.
        -12    1    1    2    0    0 -0.24700129106E+02  0.12750213286E+02 -0.33331045771E+02  0.43400724981E+02  0.00000000000E+00 0.  1.
         11    1    3    3    0    0 -0.36197090416E-01 -0.30205060094E+01  0.19711670637E+01  0.36069747208E+01  0.51100000000E-03 0. -1.
        -11    1    3    3    0    0  0.71721181774E+01  0.19482700118E+00  0.34712506483E+00  0.71831561853E+01  0.51100000000E-03 0.  1.
         12    1    3    3    0    0  0.17564208019E+02 -0.99245342779E+01  0.31012753643E+02  0.36997144112E+02  0.00000000000E+00 0. -1.
</event>
<event>
 7    1  0.4236733E-010  0.4778727E+02  0.7816164E-02  0.1312668E+00
        -11   -1    0    0    0    0  0.00000000000E+00  0.00000000000E+00  0.45593999997E+02  0.45594000000E+02  0.51100000000E-03 0.  1.
         11   -1    0    0    0    0 -0.00000000000E+00 -0.00000000000E+00 -0.45593999997E+02  0.45594000000E+02  0.51100000000E-03 0. -1.
    9900012    2    1    2    0    0 -0.45246842171E+01  0.21317535603E+02 -0.37532831021E+02  0.47787268487E+02  0.19999988339E+02 0.  0.
        -12    1    1    2    0    0  0.45246842171E+01 -0.21317535603E+02  0.37532831021E+02  0.43400731513E+02  0.00000000000E+00 0.  1.
         11    1    3    3    0    0  0.26687205793E+01  0.16641410200E+01 -0.85005556140E+01  0.90637123119E+01  0.51100000000E-03 0. -1.
        -11    1    3    3    0    0 -0.22822947046E+01 -0.63073848738E+00  0.63434314915E+00  0.24513448656E+01  0.51100000000E-03 0.  1.
        -12    1    3    3    0    0 -0.49111100918E+01  0.20284133070E+02 -0.29666618556E+02  0.36272211309E+02  0.00000000000E+00 0.  1.
</event>
<event>
 7    1  0.4236733E-010  0.4778732E+02  0.7816164E-02  0.1312668E+00
        -11   -1    0    0    0    0  0.00000000000E+00  0.00000000000E+00  0.45593999997E+02  0.45594000000E+02  0.51100000000E-03 0.  1.
         11   -1    0    0    0    0 -0.00000000000E+00 -0.00000000000E+00 -0.45593999997E+02  0.45594000000E+02  0.51100000000E-03 0. -1.
    9900012    2    1    2    0    0  0.35965416185E+02  0.24210939938E+02  0.19845467556E+01  0.47787317979E+02  0.20000213991E+02 0.  0.
        -12    1    1    2    0    0 -0.35965416185E+02 -0.24210939938E+02 -0.19845467556E+01  0.43400682021E+02  0.00000000000E+00 0.  1.
         11    1    3    3    0    0  0.10506375792E+02  0.13951590769E+01  0.70945228950E+01  0.12753927101E+02  0.51100000000E-03 0. -1.
        -11    1    3    3    0    0  0.68637384006E+01  0.70459185718E+01  0.10302913269E+01  0.98902666208E+01  0.51100000000E-03 0.  1.
         12    1    3    3    0    0  0.18595301992E+02  0.15769862290E+02 -0.61402674662E+01  0.25143124256E+02  0.00000000000E+00 0. -1.
</event>
<event>
 7    1  0.4236733E-010  0.4778727E+02  0.7816164E-02  0.1312668E+00
        -11   -1    0    0    0    0  0.00000000000E+00  0.00000000000E+00  0.45593999997E+02  0.45594000000E+02  0.51100000000E-03 0.  1.
         11   -1    0    0    0    0 -0.00000000000E+00 -0.00000000000E+00 -0.45593999997E+02  0.45594000000E+02  0.51100000000E-03 0. -1.
    9900012    2    1    2    0    0  0.43386779797E+02 -0.40783067883E+00  0.10221427066E+01  0.47787265412E+02  0.19999974321E+02 0.  0.
        -12    1    1    2    0    0 -0.43386779797E+02  0.40783067883E+00 -0.10221427066E+01  0.43400734588E+02  0.00000000000E+00 0.  1.
         11    1    3    3    0    0  0.17202017535E+02 -0.13783652150E+01  0.47308565426E+01  0.17893862127E+02  0.51100000000E-03 0. -1.
        -11    1    3    3    0    0  0.23062828323E+02 -0.38653245392E+01 -0.69197940976E+00  0.23394734874E+02  0.51100000000E-03 0.  1.
        -12    1    3    3    0    0  0.31219339390E+01  0.48358590754E+01 -0.30167344263E+01  0.64986684110E+01  0.00000000000E+00 0.  1.
</event>
<event>
 7    1  0.4236733E-010  0.4778727E+02  0.7816164E-02  0.1312668E+00
        -11   -1    0    0    0    0  0.00000000000E+00  0.00000000000E+00  0.45593999997E+02  0.45594000000E+02  0.51100000000E-03 0. -1.
         11   -1    0    0    0    0 -0.00000000000E+00 -0.00000000000E+00 -0.45593999997E+02  0.45594000000E+02  0.51100000000E-03 0.  1.
    9900012    2    1    2    0    0 -0.18940926868E+02  0.38674251936E+02  0.54006622096E+01  0.47787266991E+02  0.19999981518E+02 0.  0.
        -12    1    1    2    0    0  0.18940926868E+02 -0.38674251936E+02 -0.54006622096E+01  0.43400733009E+02  0.00000000000E+00 0.  1.
         11    1    3    3    0    0 -0.52195993722E+01  0.31437538953E+01 -0.85884305756E+00  0.61534557624E+01  0.51100000000E-03 0. -1.
        -11    1    3    3    0    0 -0.29136965743E+01 -0.30853143420E+00  0.27805527120E+01  0.40393431419E+01  0.51100000000E-03 0.  1.
         12    1    3    3    0    0 -0.10807630922E+02  0.35839029475E+02  0.34789525551E+01  0.37594468087E+02  0.00000000000E+00 0. -1.
</event>
<event>
 7    1  0.4236733E-010  0.4778727E+02  0.7816164E-02  0.1312668E+00
        -11   -1    0    0    0    0  0.00000000000E+00  0.00000000000E+00  0.45593999997E+02  0.45594000000E+02  0.51100000000E-03 0.  1.
         11   -1    0    0    0    0 -0.00000000000E+00 -0.00000000000E+00 -0.45593999997E+02  0.45594000000E+02  0.51100000000E-03 0. -1.
    9900012    2    1    2    0    0 -0.36735058485E+02  0.13859629034E+02 -0.18495123125E+02  0.47787269381E+02  0.19999992414E+02 0.  0.
        -12    1    1    2    0    0  0.36735058485E+02 -0.13859629034E+02  0.18495123125E+02  0.43400730619E+02  0.00000000000E+00 0.  1.
         11    1    3    3    0    0 -0.82598576100E+01 -0.15447230081E+01 -0.59021745048E+01  0.10268742915E+02  0.51100000000E-03 0. -1.
        -11    1    3    3    0    0 -0.50269499785E+01  0.44174725817E+00  0.27553108878E+01  0.57495308570E+01  0.51100000000E-03 0.  1.
         12    1    3    3    0    0 -0.23448250897E+02  0.14962604784E+02 -0.15348259508E+02  0.31768995609E+02  0.00000000000E+00 0. -1.
</event>
<event>
 7    1  0.4236733E-010  0.4778727E+02  0.7816164E-02  0.1312668E+00
        -11   -1    0    0    0    0  0.00000000000E+00  0.00000000000E+00  0.45593999997E+02  0.45594000000E+02  0.51100000000E-03 0. -1.
         11   -1    0    0    0    0 -0.00000000000E+00 -0.00000000000E+00 -0.45593999997E+02  0.45594000000E+02  0.51100000000E-03 0.  1.
    9900012    2    1    2    0    0 -0.37442083859E+02  0.21511679026E+02  0.43544191790E+01  0.47787274838E+02  0.20000017297E+02 0.  0.
        -12    1    1    2    0    0  0.37442083859E+02 -0.21511679026E+02 -0.43544191790E+01  0.43400725162E+02  0.00000000000E+00 0.  1.
         11    1    3    3    0    0 -0.66401853197E+01  0.81085819854E+01  0.20968003361E+01  0.10688205406E+02  0.51100000000E-03 0. -1.
        -11    1    3    3    0    0 -0.29573923459E+01  0.53100787533E+00  0.54848502539E+01  0.62539364739E+01  0.51100000000E-03 0.  1.
         12    1    3    3    0    0 -0.27844506193E+02  0.12872089165E+02 -0.32272314110E+01  0.30845132958E+02  0.00000000000E+00 0. -1.
</event>
<event>
 7    1  0.4236733E-010  0.4778727E+02  0.7816164E-02  0.1312668E+00
        -11   -1    0    0    0    0  0.00000000000E+00  0.00000000000E+00  0.45593999997E+02  0.45594000000E+02  0.51100000000E-03 0. -1.
         11   -1    0    0    0    0 -0.00000000000E+00 -0.00000000000E+00 -0.45593999997E+02  0.45594000000E+02  0.51100000000E-03 0.  1.
    9900012    2    1    2    0    0 -0.18074405703E+02  0.38420448819E+02  0.89893348500E+01  0.47787272240E+02  0.20000005453E+02 0.  0.
        -12    1    1    2    0    0  0.18074405703E+02 -0.38420448819E+02 -0.89893348500E+01  0.43400727760E+02  0.00000000000E+00 0.  1.
         11    1    3    3    0    0 -0.15259881945E+01  0.89107826526E+01  0.13196034879E+01  0.91363034690E+01  0.51100000000E-03 0. -1.
        -11    1    3    3    0    0 -0.52170046046E+01  0.46575988025E+01  0.88888906453E+01  0.11310293578E+02  0.51100000000E-03 0.  1.
        -12    1    3    3    0    0 -0.11331412904E+02  0.24852067364E+02 -0.12191592831E+01  0.27340675194E+02  0.00000000000E+00 0.  1.
</event>
<event>
 7    1  0.4236733E-010  0.4778727E+02  0.7816164E-02  0.1312668E+00
        -11   -1    0    0    0    0  0.00000000000E+00  0.00000000000E+00  0.45593999997E+02  0.45594000000E+02  0.51100000000E-03 0. -1.
         11   -1    0    0    0    0 -0.00000000000E+00 -0.00000000000E+00 -0.45593999997E+02  0.45594000000E+02  0.51100000000E-03 0.  1.
    9900012    2    1    2    0    0  0.34558689312E+02 -0.13238336634E+02  0.22673041524E+02  0.47787269871E+02  0.19999994648E+02 0.  0.
        -12    1    1    2    0    0 -0.34558689312E+02  0.13238336634E+02 -0.22673041524E+02  0.43400730129E+02  0.00000000000E+00 0.  1.
         11    1    3    3    0    0  0.10480940547E+01  0.24440064674E+00 -0.20852644527E+00  0.10962282441E+01  0.51100000000E-03 0. -1.
        -11    1    3    3    0    0  0.22553120108E+02 -0.49122407812E+00  0.18409889498E+02  0.29117152322E+02  0.51100000000E-03 0.  1.
        -12    1    3    3    0    0  0.10957475149E+02 -0.12991513203E+02  0.44716784706E+01  0.17573889305E+02  0.00000000000E+00 0.  1.
</event>
<event>
 7    1  0.4236733E-010  0.4778726E+02  0.7816164E-02  0.1312668E+00
        -11   -1    0    0    0    0  0.00000000000E+00  0.00000000000E+00  0.45593999997E+02  0.45594000000E+02  0.51100000000E-03 0. -1.
         11   -1    0    0    0    0 -0.00000000000E+00 -0.00000000000E+00 -0.45593999997E+02  0.45594000000E+02  0.51100000000E-03 0.  1.
    9900012    2    1    2    0    0 -0.26502814440E+02  0.34214708667E+02 -0.32524899510E+01  0.47787260913E+02  0.19999953806E+02 0.  0.
        -12    1    1    2    0    0  0.26502814440E+02 -0.34214708667E+02  0.32524899510E+01  0.43400739087E+02  0.00000000000E+00 0.  1.
         11    1    3    3    0    0 -0.31558255629E+01  0.91866150618E+01  0.45393579994E+01  0.10721888947E+02  0.51100000000E-03 0. -1.
        -11    1    3    3    0    0 -0.63523988495E+01  0.79285638264E+01  0.30842342287E+01  0.10617325300E+02  0.51100000000E-03 0.  1.
        -12    1    3    3    0    0 -0.16994590028E+02  0.17099529779E+02 -0.10876082179E+02  0.26448046666E+02  0.00000000000E+00 0.  1.
</event>
<event>
 7    1  0.4236733E-010  0.4778727E+02  0.7816164E-02  0.1312668E+00
        -11   -1    0    0    0    0  0.00000000000E+00  0.00000000000E+00  0.45593999997E+02  0.45594000000E+02  0.51100000000E-03 0. -1.
         11   -1    0    0    0    0 -0.00000000000E+00 -0.00000000000E+00 -0.45593999997E+02  0.45594000000E+02  0.51100000000E-03 0.  1.
    9900012    2    1    2    0    0  0.69921518991E+01 -0.33514506757E+02  0.26674158280E+02  0.47787273378E+02  0.20000010641E+02 0.  0.
        -12    1    1    2    0    0 -0.69921518991E+01  0.33514506757E+02 -0.26674158280E+02  0.43400726622E+02  0.00000000000E+00 0.  1.
         11    1    3    3    0    0  0.13632988656E+01 -0.11845435482E+02  0.14545828681E+02  0.18808350748E+02  0.51100000000E-03 0. -1.
        -11    1    3    3    0    0 -0.29435359182E+01 -0.45443458086E+01  0.75465442675E+01  0.92879391241E+01  0.51100000000E-03 0.  1.
        -12    1    3    3    0    0  0.85723889517E+01 -0.17124725466E+02  0.45817853314E+01  0.19690983506E+02  0.00000000000E+00 0.  1.
</event>
<event>
 7    1  0.4236733E-010  0.4778727E+02  0.7816164E-02  0.1312668E+00
        -11   -1    0    0    0    0  0.00000000000E+00  0.00000000000E+00  0.45593999997E+02  0.45594000000E+02  0.51100000000E-03 0.  1.
         11   -1    0    0    0    0 -0.00000000000E+00 -0.00000000000E+00 -0.45593999997E+02  0.45594000000E+02  0.51100000000E-03 0. -1.
    9900012    2    1    2    0    0  0.20436255049E+02 -0.90633554805E+01 -0.37199975808E+02  0.47787272666E+02  0.20000007392E+02 0.  0.
        -12    1    1    2    0    0 -0.20436255049E+02  0.90633554805E+01  0.37199975808E+02  0.43400727334E+02  0.00000000000E+00 0.  1.
         11    1    3    3    0    0  0.79560155844E+00 -0.43666016652E+01 -0.55264724616E+01  0.70881654941E+01  0.51100000000E-03 0. -1.
        -11    1    3    3    0    0  0.17863511349E+00 -0.54301199895E+01 -0.11163558660E+02  0.12415440219E+02  0.51100000000E-03 0.  1.
         12    1    3    3    0    0  0.19462018377E+02  0.73336617420E+00 -0.20509944687E+02  0.28283666953E+02  0.00000000000E+00 0. -1.
</event>
<event>
 7    1  0.4236733E-010  0.4778727E+02  0.7816164E-02  0.1312668E+00
        -11   -1    0    0    0    0  0.00000000000E+00  0.00000000000E+00  0.45593999997E+02  0.45594000000E+02  0.51100000000E-03 0.  1.
         11   -1    0    0    0    0 -0.00000000000E+00 -0.00000000000E+00 -0.45593999997E+02  0.45594000000E+02  0.51100000000E-03 0. -1.
    9900012    2    1    2    0    0 -0.38025037565E+01  0.96507016213E+01 -0.42142948210E+02  0.47787272352E+02  0.20000005961E+02 0.  0.
        -12    1    1    2    0    0  0.38025037565E+01 -0.96507016213E+01  0.42142948210E+02  0.43400727648E+02  0.00000000000E+00 0.  1.
         11    1    3    3    0    0 -0.66893220953E+00  0.84712002825E+01 -0.27952470461E+02  0.29215566222E+02  0.51100000000E-03 0. -1.
        -11    1    3    3    0    0 -0.31547978338E+01  0.60882160339E+01 -0.65005776918E+01  0.94486313525E+01  0.51100000000E-03 0.  1.
         12    1    3    3    0    0  0.21226286810E-01 -0.49087146951E+01 -0.76899000564E+01  0.91230747772E+01  0.00000000000E+00 0. -1.
</event>
<event>
 7    1  0.4236733E-010  0.4778727E+02  0.7816164E-02  0.1312668E+00
        -11   -1    0    0    0    0  0.00000000000E+00  0.00000000000E+00  0.45593999997E+02  0.45594000000E+02  0.51100000000E-03 0.  1.
         11   -1    0    0    0    0 -0.00000000000E+00 -0.00000000000E+00 -0.45593999997E+02  0.45594000000E+02  0.51100000000E-03 0. -1.
    9900012    2    1    2    0    0 -0.10814012489E+02 -0.39545907603E+02 -0.14240841457E+02  0.47787271439E+02  0.20000001799E+02 0.  0.
        -12    1    1    2    0    0  0.10814012489E+02  0.39545907603E+02  0.14240841457E+02  0.43400728561E+02  0.00000000000E+00 0.  1.
         11    1    3    3    0    0 -0.38955603395E+00 -0.16218592660E+02 -0.13759608565E+00  0.16223853880E+02  0.51100000000E-03 0. -1.
        -11    1    3    3    0    0 -0.92480200333E+00 -0.43617965716E+00  0.18323531484E+01  0.20983397629E+01  0.51100000000E-03 0.  1.
         12    1    3    3    0    0 -0.94996544517E+01 -0.22891135285E+02 -0.15935598520E+02  0.29465077796E+02  0.00000000000E+00 0. -1.
</event>
<event>
 7    1  0.4236733E-010  0.4778727E+02  0.7816164E-02  0.1312668E+00
        -11   -1    0    0    0    0  0.00000000000E+00  0.00000000000E+00  0.45593999997E+02  0.45594000000E+02  0.51100000000E-03 0. -1.
         11   -1    0    0    0    0 -0.00000000000E+00 -0.00000000000E+00 -0.45593999997E+02  0.45594000000E+02  0.51100000000E-03 0.  1.
    9900012    2    1    2    0    0 -0.12689550925E+02  0.18175401774E+01  0.41464385728E+02  0.47787269145E+02  0.19999991339E+02 0.  0.
        -12    1    1    2    0    0  0.12689550925E+02 -0.18175401774E+01 -0.41464385728E+02  0.43400730855E+02  0.00000000000E+00 0.  1.
         11    1    3    3    0    0 -0.48221662008E+01 -0.12131309275E+01  0.26299780486E+01  0.56251007380E+01  0.51100000000E-03 0. -1.
        -11    1    3    3    0    0 -0.91885026908E+01 -0.23218014042E+01  0.15355585333E+02  0.18044759479E+02  0.51100000000E-03 0.  1.
         12    1    3    3    0    0  0.13211179665E+01  0.53524725092E+01  0.23478822346E+02  0.24117408928E+02  0.00000000000E+00 0. -1.
</event>
<event>
 7    1  0.4236733E-010  0.4778727E+02  0.7816164E-02  0.1312668E+00
        -11   -1    0    0    0    0  0.00000000000E+00  0.00000000000E+00  0.45593999997E+02  0.45594000000E+02  0.51100000000E-03 0.  1.
         11   -1    0    0    0    0 -0.00000000000E+00 -0.00000000000E+00 -0.45593999997E+02  0.45594000000E+02  0.51100000000E-03 0. -1.
    9900012    2    1    2    0    0  0.16333537353E+02  0.57287932998E+01 -0.39799744971E+02  0.47787271724E+02  0.20000003098E+02 0.  0.
        -12    1    1    2    0    0 -0.16333537353E+02 -0.57287932998E+01  0.39799744971E+02  0.43400728276E+02  0.00000000000E+00 0.  1.
         11    1    3    3    0    0  0.49689354201E+01  0.11412903323E+02 -0.16837846269E+02  0.20939382720E+02  0.51100000000E-03 0. -1.
        -11    1    3    3    0    0  0.41193732866E+00 -0.22461794882E+01 -0.54460738463E+01  0.59054834904E+01  0.51100000000E-03 0.  1.
        -12    1    3    3    0    0  0.10952664604E+02 -0.34379305348E+01 -0.17515824856E+02  0.20942405513E+02  0.00000000000E+00 0.  1.
</event>
<event>
 7    1  0.4236733E-010  0.4778727E+02  0.7816164E-02  0.1312668E+00
        -11   -1    0    0    0    0  0.00000000000E+00  0.00000000000E+00  0.45593999997E+02  0.45594000000E+02  0.51100000000E-03 0.  1.
         11   -1    0    0    0    0 -0.00000000000E+00 -0.00000000000E+00 -0.45593999997E+02  0.45594000000E+02  0.51100000000E-03 0. -1.
    9900012    2    1    2    0    0 -0.10473019781E+02  0.29333558776E+02 -0.30223858769E+02  0.47787268985E+02  0.19999990609E+02 0.  0.
        -12    1    1    2    0    0  0.10473019781E+02 -0.29333558776E+02  0.30223858769E+02  0.43400731015E+02  0.00000000000E+00 0.  1.
         11    1    3    3    0    0 -0.47249810224E+01  0.68708793520E+01 -0.20846598625E+01  0.85953612917E+01  0.51100000000E-03 0. -1.
        -11    1    3    3    0    0 -0.27000406146E+01 -0.93003773121E+00 -0.68265425429E+01  0.73997887033E+01  0.51100000000E-03 0.  1.
         12    1    3    3    0    0 -0.30479981436E+01  0.23392717155E+02 -0.21312656364E+02  0.31792118990E+02  0.00000000000E+00 0. -1.
</event>
<event>
 7    1  0.4236733E-010  0.4778727E+02  0.7816164E-02  0.1312668E+00
        -11   -1    0    0    0    0  0.00000000000E+00  0.00000000000E+00  0.45593999997E+02  0.45594000000E+02  0.51100000000E-03 0.  1.
         11   -1    0    0    0    0 -0.00000000000E+00 -0.00000000000E+00 -0.45593999997E+02  0.45594000000E+02  0.51100000000E-03 0. -1.
    9900012    2    1    2    0    0 -0.13877022138E+02  0.28856826098E+02 -0.29297356830E+02  0.47787271054E+02  0.20000000043E+02 0.  0.
        -12    1    1    2    0    0  0.13877022138E+02 -0.28856826098E+02  0.29297356830E+02  0.43400728946E+02  0.00000000000E+00 0.  1.
         11    1    3    3    0    0 -0.46030509395E+01  0.61753056364E+01 -0.15975558156E+02  0.17735301980E+02  0.51100000000E-03 0. -1.
        -11    1    3    3    0    0  0.17895190154E+01  0.70883380905E+01 -0.64061040486E+01  0.97203438486E+01  0.51100000000E-03 0.  1.
         12    1    3    3    0    0 -0.11063490214E+02  0.15593182371E+02 -0.69156946250E+01  0.20331625225E+02  0.00000000000E+00 0. -1.
</event>
<event>
 7    1  0.4236733E-010  0.4778726E+02  0.7816164E-02  0.1312668E+00
        -11   -1    0    0    0    0  0.00000000000E+00  0.00000000000E+00  0.45593999997E+02  0.45594000000E+02  0.51100000000E-03 0. -1.
         11   -1    0    0    0    0 -0.00000000000E+00 -0.00000000000E+00 -0.45593999997E+02  0.45594000000E+02  0.51100000000E-03 0.  1.
    9900012    2    1    2    0    0  0.28996283151E+02  0.32292703310E+02  0.14397171027E+00  0.47787264390E+02  0.19999969659E+02 0.  0.
        -12    1    1    2    0    0 -0.28996283151E+02 -0.32292703310E+02 -0.14397171027E+00  0.43400735610E+02  0.00000000000E+00 0.  1.
         11    1    3    3    0    0  0.93440196162E+01  0.18902014210E+02 -0.72388420239E+00  0.21097887391E+02  0.51100000000E-03 0. -1.
        -11    1    3    3    0    0  0.71738530752E+01  0.97331316865E+01 -0.41027402482E+01  0.12768339680E+02  0.51100000000E-03 0.  1.
         12    1    3    3    0    0  0.12478410460E+02  0.36575574136E+01  0.49705961609E+01  0.13921037319E+02  0.00000000000E+00 0. -1.
</event>
<event>
 7    1  0.4236733E-010  0.4778727E+02  0.7816164E-02  0.1312668E+00
        -11   -1    0    0    0    0  0.00000000000E+00  0.00000000000E+00  0.45593999997E+02  0.45594000000E+02  0.51100000000E-03 0. -1.
         11   -1    0    0    0    0 -0.00000000000E+00 -0.00000000000E+00 -0.45593999997E+02  0.45594000000E+02  0.51100000000E-03 0.  1.
    9900012    2    1    2    0    0  0.10230202527E+02  0.15870221163E+02  0.39078158315E+02  0.47787269352E+02  0.19999992283E+02 0.  0.
        -12    1    1    2    0    0 -0.10230202527E+02 -0.15870221163E+02 -0.39078158315E+02  0.43400730648E+02  0.00000000000E+00 0.  1.
         11    1    3    3    0    0 -0.14399824220E+01  0.18887579566E+01 -0.24043346428E+00  0.23872085176E+01  0.51100000000E-03 0. -1.
        -11    1    3    3    0    0 -0.19530650930E+01 -0.11254351593E+01  0.27655199781E+01  0.35677960376E+01  0.51100000000E-03 0.  1.
         12    1    3    3    0    0  0.13623250042E+02  0.15106898365E+02  0.36553071801E+02  0.41832264797E+02  0.00000000000E+00 0. -1.
</event>
<event>
 7    1  0.4236733E-010  0.4778727E+02  0.7816164E-02  0.1312668E+00
        -11   -1    0    0    0    0  0.00000000000E+00  0.00000000000E+00  0.45593999997E+02  0.45594000000E+02  0.51100000000E-03 0. -1.
         11   -1    0    0    0    0 -0.00000000000E+00 -0.00000000000E+00 -0.45593999997E+02  0.45594000000E+02  0.51100000000E-03 0.  1.
    9900012    2    1    2    0    0 -0.24871121936E+02 -0.15708781813E+02  0.31910573344E+02  0.47787271624E+02  0.20000002641E+02 0.  0.
        -12    1    1    2    0    0  0.24871121936E+02  0.15708781813E+02 -0.31910573344E+02  0.43400728376E+02  0.00000000000E+00 0.  1.
         11    1    3    3    0    0 -0.36596036315E+01 -0.72864344564E+01  0.16295829403E+02  0.18221934091E+02  0.51100000000E-03 0. -1.
        -11    1    3    3    0    0 -0.13525585717E+02 -0.85307995681E+01  0.14880492907E+02  0.21843650786E+02  0.51100000000E-03 0.  1.
        -12    1    3    3    0    0 -0.76859325877E+01  0.10845221152E+00  0.73425103437E+00  0.77216867462E+01  0.00000000000E+00 0.  1.
</event>
<event>
 7    1  0.4236733E-010  0.4778727E+02  0.7816164E-02  0.1312668E+00
        -11   -1    0    0    0    0  0.00000000000E+00  0.00000000000E+00  0.45593999997E+02  0.45594000000E+02  0.51100000000E-03 0.  1.
         11   -1    0    0    0    0 -0.00000000000E+00 -0.00000000000E+00 -0.45593999997E+02  0.45594000000E+02  0.51100000000E-03 0. -1.
    9900012    2    1    2    0    0  0.20622939766E+02  0.23420343530E+02 -0.30162976805E+02  0.47787270681E+02  0.19999998345E+02 0.  0.
        -12    1    1    2    0    0 -0.20622939766E+02 -0.23420343530E+02  0.30162976805E+02  0.43400729319E+02  0.00000000000E+00 0.  1.
         11    1    3    3    0    0  0.14946019557E+02  0.54449240136E+01 -0.11870839368E+02  0.19848111388E+02  0.51100000000E-03 0. -1.
        -11    1    3    3    0    0  0.50672216695E+01  0.27732647058E+01 -0.37110745759E+01  0.68658435276E+01  0.51100000000E-03 0.  1.
        -12    1    3    3    0    0  0.60969853900E+00  0.15202154810E+02 -0.14581062861E+02  0.21073315765E+02  0.00000000000E+00 0.  1.
</event>
<event>
 7    1  0.4236733E-010  0.4778728E+02  0.7816164E-02  0.1312668E+00
        -11   -1    0    0    0    0  0.00000000000E+00  0.00000000000E+00  0.45593999997E+02  0.45594000000E+02  0.51100000000E-03 0.  1.
         11   -1    0    0    0    0 -0.00000000000E+00 -0.00000000000E+00 -0.45593999997E+02  0.45594000000E+02  0.51100000000E-03 0. -1.
    9900012    2    1    2    0    0 -0.34210751591E+02  0.25478412229E+02  0.80060938670E+01  0.47787279347E+02  0.20000037856E+02 0.  0.
        -12    1    1    2    0    0  0.34210751591E+02 -0.25478412229E+02 -0.80060938670E+01  0.43400720653E+02  0.00000000000E+00 0.  1.
         11    1    3    3    0    0 -0.51775978238E+01  0.18997705299E+01  0.40228466526E+01  0.68264150726E+01  0.51100000000E-03 0. -1.
        -11    1    3    3    0    0 -0.13131780590E+01  0.96468644270E+01  0.63161788800E+00  0.97562990578E+01  0.51100000000E-03 0.  1.
         12    1    3    3    0    0 -0.27719975708E+02  0.13931777272E+02  0.33516293264E+01  0.31204565217E+02  0.00000000000E+00 0. -1.
</event>
<event>
 7    1  0.4236733E-010  0.4778728E+02  0.7816164E-02  0.1312668E+00
        -11   -1    0    0    0    0  0.00000000000E+00  0.00000000000E+00  0.45593999997E+02  0.45594000000E+02  0.51100000000E-03 0.  1.
         11   -1    0    0    0    0 -0.00000000000E+00 -0.00000000000E+00 -0.45593999997E+02  0.45594000000E+02  0.51100000000E-03 0. -1.
    9900012    2    1    2    0    0  0.19791483439E+02 -0.38261330386E+02  0.52906136504E+01  0.47787276361E+02  0.20000024239E+02 0.  0.
        -12    1    1    2    0    0 -0.19791483439E+02  0.38261330386E+02 -0.52906136504E+01  0.43400723639E+02  0.00000000000E+00 0.  1.
         11    1    3    3    0    0  0.50317789541E+01 -0.15731320601E+02  0.87593582164E+01  0.18695443400E+02  0.51100000000E-03 0. -1.
        -11    1    3    3    0    0  0.66992849827E+01 -0.31097192818E+01  0.13793717297E+01  0.75135504205E+01  0.51100000000E-03 0.  1.
         12    1    3    3    0    0  0.80604195026E+01 -0.19420290503E+02 -0.48481162957E+01  0.21578282540E+02  0.00000000000E+00 0. -1.
</event>
<event>
 7    1  0.4236733E-010  0.4778727E+02  0.7816164E-02  0.1312668E+00
        -11   -1    0    0    0    0  0.00000000000E+00  0.00000000000E+00  0.45593999997E+02  0.45594000000E+02  0.51100000000E-03 0. -1.
         11   -1    0    0    0    0 -0.00000000000E+00 -0.00000000000E+00 -0.45593999997E+02  0.45594000000E+02  0.51100000000E-03 0.  1.
    9900012    2    1    2    0    0  0.94718479086E+01 -0.27563670452E+02 -0.32158228117E+02  0.47787268817E+02  0.19999989843E+02 0.  0.
        -12    1    1    2    0    0 -0.94718479086E+01  0.27563670452E+02  0.32158228117E+02  0.43400731183E+02  0.00000000000E+00 0.  1.
         11    1    3    3    0    0  0.93645769199E+01 -0.11017361131E+02 -0.75773827409E+01  0.16324652421E+02  0.51100000000E-03 0. -1.
        -11    1    3    3    0    0 -0.32406761228E+00  0.12503891623E+01 -0.25162286241E+00  0.13159814590E+01  0.51100000000E-03 0.  1.
        -12    1    3    3    0    0  0.43133860090E+00 -0.17796698483E+02 -0.24329222514E+02  0.30146634937E+02  0.00000000000E+00 0.  1.
</event>
<event>
 7    1  0.4236733E-010  0.4778726E+02  0.7816164E-02  0.1312668E+00
        -11   -1    0    0    0    0  0.00000000000E+00  0.00000000000E+00  0.45593999997E+02  0.45594000000E+02  0.51100000000E-03 0. -1.
         11   -1    0    0    0    0 -0.00000000000E+00 -0.00000000000E+00 -0.45593999997E+02  0.45594000000E+02  0.51100000000E-03 0.  1.
    9900012    2    1    2    0    0  0.33046154623E+02 -0.22521995595E+02  0.16862253286E+02  0.47787260296E+02  0.19999950995E+02 0.  0.
        -12    1    1    2    0    0 -0.33046154623E+02  0.22521995595E+02 -0.16862253286E+02  0.43400739704E+02  0.00000000000E+00 0.  1.
         11    1    3    3    0    0  0.70786459055E+01 -0.84163600034E+01  0.84384707163E+01  0.13861822819E+02  0.51100000000E-03 0. -1.
        -11    1    3    3    0    0  0.94703537188E+01 -0.11756249634E+02  0.83708389970E+01  0.17261748197E+02  0.51100000000E-03 0.  1.
        -12    1    3    3    0    0  0.16497154999E+02 -0.23493859573E+01  0.52943572271E-01  0.16663689281E+02  0.00000000000E+00 0.  1.
</event>
<event>
 7    1  0.4236733E-010  0.4778727E+02  0.7816164E-02  0.1312668E+00
        -11   -1    0    0    0    0  0.00000000000E+00  0.00000000000E+00  0.45593999997E+02  0.45594000000E+02  0.51100000000E-03 0.  1.
         11   -1    0    0    0    0 -0.00000000000E+00 -0.00000000000E+00 -0.45593999997E+02  0.45594000000E+02  0.51100000000E-03 0. -1.
    9900012    2    1    2    0    0 -0.23883030489E+02  0.36130576806E+02  0.27938389972E+01  0.47787271181E+02  0.20000000624E+02 0.  0.
        -12    1    1    2    0    0  0.23883030489E+02 -0.36130576806E+02 -0.27938389972E+01  0.43400728819E+02  0.00000000000E+00 0.  1.
         11    1    3    3    0    0 -0.17682310605E+01  0.12072611871E+01  0.31750637825E+01  0.38295105355E+01  0.51100000000E-03 0. -1.
        -11    1    3    3    0    0 -0.10998176450E+02  0.53248882124E+01 -0.15600701968E+01  0.12318609458E+02  0.51100000000E-03 0.  1.
         12    1    3    3    0    0 -0.11116622979E+02  0.29598427406E+02  0.11788454114E+01  0.31639151187E+02  0.00000000000E+00 0. -1.
</event>
