<event>
 7    1  0.5642630E-013  0.5052890E+02  0.7816164E-02  0.1300439E+00
        -11   -1    0    0    0    0  0.00000000000E+00  0.00000000000E+00  0.45593999997E+02  0.45594000000E+02  0.51100000000E-03 0. -1.
         11   -1    0    0    0    0 -0.00000000000E+00 -0.00000000000E+00 -0.45593999997E+02  0.45594000000E+02  0.51100000000E-03 0.  1.
    9900012    2    1    2    0    0  0.23154771319E+02 -0.26358505836E+02 -0.20548687407E+02  0.50528895007E+02  0.30000106862E+02 0.  0.
         12    1    1    2    0    0 -0.23154771319E+02  0.26358505836E+02  0.20548687407E+02  0.40659104993E+02  0.00000000000E+00 0. -1.
         11    1    3    3    0    0  0.39621194475E+01  0.35258225073E+01 -0.30247264900E+01  0.61056355501E+01  0.51100000000E-03 0. -1.
        -11    1    3    3    0    0  0.19620157993E+01 -0.17630020779E+01 -0.10337889799E+02  0.10669097810E+02  0.51100000000E-03 0.  1.
        -12    1    3    3    0    0  0.17230636072E+02 -0.28121326265E+02 -0.71860711183E+01  0.33754161647E+02  0.00000000000E+00 0.  1.
</event>
<event>
 7    1  0.5642630E-013  0.5052887E+02  0.7816164E-02  0.1300439E+00
        -11   -1    0    0    0    0  0.00000000000E+00  0.00000000000E+00  0.45593999997E+02  0.45594000000E+02  0.51100000000E-03 0.  1.
         11   -1    0    0    0    0 -0.00000000000E+00 -0.00000000000E+00 -0.45593999997E+02  0.45594000000E+02  0.51100000000E-03 0. -1.
    9900012    2    1    2    0    0 -0.22798663057E+02  0.25430345478E+02  0.22060908066E+02  0.50528866057E+02  0.30000018866E+02 0.  0.
         12    1    1    2    0    0  0.22798663057E+02 -0.25430345478E+02 -0.22060908066E+02  0.40659133943E+02  0.00000000000E+00 0. -1.
         11    1    3    3    0    0 -0.20777313537E+02  0.12490485151E+02  0.25522891742E+02  0.35201235493E+02  0.51100000000E-03 0. -1.
        -11    1    3    3    0    0  0.10400626075E+01 -0.23393817842E-01  0.83270021809E+00  0.13325417113E+01  0.51100000000E-03 0.  1.
         12    1    3    3    0    0 -0.30614121278E+01  0.12963254145E+02 -0.42946838936E+01  0.13995088852E+02  0.00000000000E+00 0. -1.
</event>
<event>
 7    1  0.5642630E-013  0.5052886E+02  0.7816164E-02  0.1300439E+00
        -11   -1    0    0    0    0  0.00000000000E+00  0.00000000000E+00  0.45593999997E+02  0.45594000000E+02  0.51100000000E-03 0.  1.
         11   -1    0    0    0    0 -0.00000000000E+00 -0.00000000000E+00 -0.45593999997E+02  0.45594000000E+02  0.51100000000E-03 0. -1.
    9900012    2    1    2    0    0  0.35941233274E+02  0.16876735515E+02  0.87503918080E+01  0.50528858252E+02  0.29999995143E+02 0.  0.
         12    1    1    2    0    0 -0.35941233274E+02 -0.16876735515E+02 -0.87503918080E+01  0.40659141748E+02  0.00000000000E+00 0. -1.
         11    1    3    3    0    0  0.98503100121E+01  0.13192924094E+02  0.33117174209E+01  0.16794324220E+02  0.51100000000E-03 0. -1.
        -11    1    3    3    0    0  0.96814279185E+01  0.99894538621E+01  0.78777436779E+01  0.15986809585E+02  0.51100000000E-03 0.  1.
         12    1    3    3    0    0  0.16409495343E+02 -0.63056424409E+01 -0.24390692907E+01  0.17747724446E+02  0.00000000000E+00 0. -1.
</event>
<event>
 7    1  0.5642630E-013  0.5052886E+02  0.7816164E-02  0.1300439E+00
        -11   -1    0    0    0    0  0.00000000000E+00  0.00000000000E+00  0.45593999997E+02  0.45594000000E+02  0.51100000000E-03 0.  1.
         11   -1    0    0    0    0 -0.00000000000E+00 -0.00000000000E+00 -0.45593999997E+02  0.45594000000E+02  0.51100000000E-03 0. -1.
    9900012    2    1    2    0    0 -0.22969518409E+02  0.75005538094E+00  0.33541080022E+02  0.50528863166E+02  0.30000010080E+02 0.  0.
         12    1    1    2    0    0  0.22969518409E+02 -0.75005538094E+00 -0.33541080022E+02  0.40659136834E+02  0.00000000000E+00 0. -1.
         11    1    3    3    0    0  0.78223160136E+00 -0.37371477449E+01  0.78498690970E+00  0.38979949019E+01  0.51100000000E-03 0. -1.
        -11    1    3    3    0    0 -0.83365035366E+01 -0.84323694117E+01  0.63926562638E+01  0.13471013306E+02  0.51100000000E-03 0.  1.
        -12    1    3    3    0    0 -0.15415246473E+02  0.12919572538E+02  0.26363436849E+02  0.33159854959E+02  0.00000000000E+00 0.  1.
</event>
<event>
 7    1  0.5642630E-013  0.5052886E+02  0.7816164E-02  0.1300439E+00
        -11   -1    0    0    0    0  0.00000000000E+00  0.00000000000E+00  0.45593999997E+02  0.45594000000E+02  0.51100000000E-03 0.  1.
         11   -1    0    0    0    0 -0.00000000000E+00 -0.00000000000E+00 -0.45593999997E+02  0.45594000000E+02  0.51100000000E-03 0. -1.
    9900012    2    1    2    0    0  0.16681137167E+02  0.17724010303E+02  0.32569387793E+02  0.50528857121E+02  0.29999991706E+02 0.  0.
         12    1    1    2    0    0 -0.16681137167E+02 -0.17724010303E+02 -0.32569387793E+02  0.40659142879E+02  0.00000000000E+00 0. -1.
         11    1    3    3    0    0  0.85510416379E+01  0.50127102962E+01  0.98260655528E+01  0.13957046325E+02  0.51100000000E-03 0. -1.
        -11    1    3    3    0    0  0.10300123401E+02  0.19204214920E+02  0.17131314420E+02  0.27719602212E+02  0.51100000000E-03 0.  1.
         12    1    3    3    0    0 -0.21700278719E+01 -0.64929149136E+01  0.56120078202E+01  0.88522085840E+01  0.00000000000E+00 0. -1.
</event>
<event>
 7    1  0.5642630E-013  0.5052886E+02  0.7816164E-02  0.1300439E+00
        -11   -1    0    0    0    0  0.00000000000E+00  0.00000000000E+00  0.45593999997E+02  0.45594000000E+02  0.51100000000E-03 0. -1.
         11   -1    0    0    0    0 -0.00000000000E+00 -0.00000000000E+00 -0.45593999997E+02  0.45594000000E+02  0.51100000000E-03 0.  1.
    9900012    2    1    2    0    0 -0.38891033986E+02  0.10730331824E+01 -0.11811099959E+02  0.50528855802E+02  0.29999987695E+02 0.  0.
         12    1    1    2    0    0  0.38891033986E+02 -0.10730331824E+01  0.11811099959E+02  0.40659144198E+02  0.00000000000E+00 0. -1.
         11    1    3    3    0    0 -0.76916987413E+01  0.87456332347E+01 -0.68382690643E+01  0.13505934039E+02  0.51100000000E-03 0. -1.
        -11    1    3    3    0    0 -0.12441819632E+02  0.50960454693E+01 -0.49633253689E+01  0.14331892902E+02  0.51100000000E-03 0.  1.
         12    1    3    3    0    0 -0.18757515612E+02 -0.12768645522E+02 -0.95055256402E-02  0.22691028861E+02  0.00000000000E+00 0. -1.
</event>
<event>
 7    1  0.5642630E-013  0.5052886E+02  0.7816164E-02  0.1300439E+00
        -11   -1    0    0    0    0  0.00000000000E+00  0.00000000000E+00  0.45593999997E+02  0.45594000000E+02  0.51100000000E-03 0.  1.
         11   -1    0    0    0    0 -0.00000000000E+00 -0.00000000000E+00 -0.45593999997E+02  0.45594000000E+02  0.51100000000E-03 0. -1.
    9900012    2    1    2    0    0  0.43265379312E+01 -0.33678613753E+02  0.22365093923E+02  0.50528863499E+02  0.30000011092E+02 0.  0.
         12    1    1    2    0    0 -0.43265379312E+01  0.33678613753E+02 -0.22365093923E+02  0.40659136501E+02  0.00000000000E+00 0. -1.
         11    1    3    3    0    0 -0.72535914898E+01  0.10836930931E+01  0.75528510656E+01  0.10527798426E+02  0.51100000000E-03 0. -1.
        -11    1    3    3    0    0 -0.98970904978E-01 -0.58504850063E+01  0.35715113543E+01  0.68551924600E+01  0.51100000000E-03 0.  1.
        -12    1    3    3    0    0  0.11679100326E+02 -0.28911821840E+02  0.11240731503E+02  0.33145872613E+02  0.00000000000E+00 0.  1.
</event>
<event>
 7    1  0.5642630E-013  0.5052887E+02  0.7816164E-02  0.1300439E+00
        -11   -1    0    0    0    0  0.00000000000E+00  0.00000000000E+00  0.45593999997E+02  0.45594000000E+02  0.51100000000E-03 0. -1.
         11   -1    0    0    0    0 -0.00000000000E+00 -0.00000000000E+00 -0.45593999997E+02  0.45594000000E+02  0.51100000000E-03 0.  1.
    9900012    2    1    2    0    0 -0.22940876476E+02 -0.59911783808E+01 -0.33030083909E+02  0.50528874642E+02  0.30000044962E+02 0.  0.
         12    1    1    2    0    0  0.22940876476E+02  0.59911783808E+01  0.33030083909E+02  0.40659125358E+02  0.00000000000E+00 0. -1.
         11    1    3    3    0    0 -0.16314706643E+00 -0.60431786800E+01  0.37677861271E+01  0.71234007387E+01  0.51100000000E-03 0. -1.
        -11    1    3    3    0    0 -0.34483794065E+00  0.37727465364E+00 -0.40162325643E+00  0.65003913022E+00  0.51100000000E-03 0.  1.
        -12    1    3    3    0    0 -0.22432891469E+02 -0.32527435443E+00 -0.36396246779E+02  0.42755434773E+02  0.00000000000E+00 0.  1.
</event>
<event>
 7    1  0.5642630E-013  0.5052886E+02  0.7816164E-02  0.1300439E+00
        -11   -1    0    0    0    0  0.00000000000E+00  0.00000000000E+00  0.45593999997E+02  0.45594000000E+02  0.51100000000E-03 0. -1.
         11   -1    0    0    0    0 -0.00000000000E+00 -0.00000000000E+00 -0.45593999997E+02  0.45594000000E+02  0.51100000000E-03 0.  1.
    9900012    2    1    2    0    0  0.17122298763E+02 -0.36730115939E+02 -0.33001919354E+01  0.50528858363E+02  0.29999995480E+02 0.  0.
         12    1    1    2    0    0 -0.17122298763E+02  0.36730115939E+02  0.33001919354E+01  0.40659141637E+02  0.00000000000E+00 0. -1.
         11    1    3    3    0    0  0.44635267646E+01 -0.25159869343E+02  0.10502119711E+02  0.27626737325E+02  0.51100000000E-03 0. -1.
        -11    1    3    3    0    0  0.87930657129E+01 -0.37660293167E+01 -0.71059498943E+01  0.11916186706E+02  0.51100000000E-03 0.  1.
        -12    1    3    3    0    0  0.38657062854E+01 -0.78042172796E+01 -0.66963617523E+01  0.10985934332E+02  0.00000000000E+00 0.  1.
</event>
<event>
 7    1  0.5642630E-013  0.5052891E+02  0.7816164E-02  0.1300439E+00
        -11   -1    0    0    0    0  0.00000000000E+00  0.00000000000E+00  0.45593999997E+02  0.45594000000E+02  0.51100000000E-03 0. -1.
         11   -1    0    0    0    0 -0.00000000000E+00 -0.00000000000E+00 -0.45593999997E+02  0.45594000000E+02  0.51100000000E-03 0.  1.
    9900012    2    1    2    0    0 -0.83103718926E+01 -0.31369928248E+02 -0.24495441787E+02  0.50528913099E+02  0.30000161856E+02 0.  0.
         12    1    1    2    0    0  0.83103718926E+01  0.31369928248E+02  0.24495441787E+02  0.40659086901E+02  0.00000000000E+00 0. -1.
         11    1    3    3    0    0 -0.72159022034E+01  0.25843527971E+01 -0.64059816274E+01  0.99892304438E+01  0.51100000000E-03 0. -1.
        -11    1    3    3    0    0  0.69026352367E+00 -0.25323453177E+01 -0.64847356319E+01  0.69957868047E+01  0.51100000000E-03 0.  1.
        -12    1    3    3    0    0 -0.17847332129E+01 -0.31421935727E+02 -0.11604724528E+02  0.33543895851E+02  0.00000000000E+00 0.  1.
</event>
<event>
 7    1  0.5642630E-013  0.5052880E+02  0.7816164E-02  0.1300439E+00
        -11   -1    0    0    0    0  0.00000000000E+00  0.00000000000E+00  0.45593999997E+02  0.45594000000E+02  0.51100000000E-03 0.  1.
         11   -1    0    0    0    0 -0.00000000000E+00 -0.00000000000E+00 -0.45593999997E+02  0.45594000000E+02  0.51100000000E-03 0. -1.
    9900012    2    1    2    0    0 -0.27417915253E+02 -0.21007417267E+02  0.21450328743E+02  0.50528803498E+02  0.29999828711E+02 0.  0.
         12    1    1    2    0    0  0.27417915253E+02  0.21007417267E+02 -0.21450328743E+02  0.40659196502E+02  0.00000000000E+00 0. -1.
         11    1    3    3    0    0 -0.21251774157E+02 -0.11543433826E+02  0.94168698945E+01  0.25953154109E+02  0.51100000000E-03 0. -1.
        -11    1    3    3    0    0 -0.96096191643E+01 -0.12678896339E+02  0.61928533715E+01  0.17071925081E+02  0.51100000000E-03 0.  1.
         12    1    3    3    0    0  0.34434780682E+01  0.32149128981E+01  0.58406054766E+01  0.75037243075E+01  0.00000000000E+00 0. -1.
</event>
<event>
 7    1  0.5642630E-013  0.5052886E+02  0.7816164E-02  0.1300439E+00
        -11   -1    0    0    0    0  0.00000000000E+00  0.00000000000E+00  0.45593999997E+02  0.45594000000E+02  0.51100000000E-03 0.  1.
         11   -1    0    0    0    0 -0.00000000000E+00 -0.00000000000E+00 -0.45593999997E+02  0.45594000000E+02  0.51100000000E-03 0. -1.
    9900012    2    1    2    0    0 -0.38509925965E+02  0.12017543591E+02  0.50724333696E+01  0.50528864101E+02  0.30000012920E+02 0.  0.
         12    1    1    2    0    0  0.38509925965E+02 -0.12017543591E+02 -0.50724333696E+01  0.40659135899E+02  0.00000000000E+00 0. -1.
         11    1    3    3    0    0  0.18855654621E+01  0.39886506552E+01 -0.12512738864E+01  0.45858889826E+01  0.51100000000E-03 0. -1.
        -11    1    3    3    0    0 -0.31264126913E+02 -0.12626558267E+01 -0.37992690547E+00  0.31291920301E+02  0.51100000000E-03 0.  1.
         12    1    3    3    0    0 -0.91313645139E+01  0.92915487625E+01  0.67036341614E+01  0.14651054817E+02  0.00000000000E+00 0. -1.
</event>
<event>
 7    1  0.5642630E-013  0.5052886E+02  0.7816164E-02  0.1300439E+00
        -11   -1    0    0    0    0  0.00000000000E+00  0.00000000000E+00  0.45593999997E+02  0.45594000000E+02  0.51100000000E-03 0.  1.
         11   -1    0    0    0    0 -0.00000000000E+00 -0.00000000000E+00 -0.45593999997E+02  0.45594000000E+02  0.51100000000E-03 0. -1.
    9900012    2    1    2    0    0 -0.22482384138E+02  0.22486794933E+02  0.25338754548E+02  0.50528855580E+02  0.29999987022E+02 0.  0.
         12    1    1    2    0    0  0.22482384138E+02 -0.22486794933E+02 -0.25338754548E+02  0.40659144420E+02  0.00000000000E+00 0. -1.
         11    1    3    3    0    0 -0.17353639957E+02  0.15661529322E+02  0.13260364366E+02  0.26875073653E+02  0.51100000000E-03 0. -1.
        -11    1    3    3    0    0 -0.83559786687E+01  0.11211116971E+02  0.52863826804E+01  0.14948490404E+02  0.51100000000E-03 0.  1.
         12    1    3    3    0    0  0.32272344875E+01 -0.43858513608E+01  0.67920075022E+01  0.87052915233E+01  0.00000000000E+00 0. -1.
</event>
<event>
 7    1  0.5642630E-013  0.5052886E+02  0.7816164E-02  0.1300439E+00
        -11   -1    0    0    0    0  0.00000000000E+00  0.00000000000E+00  0.45593999997E+02  0.45594000000E+02  0.51100000000E-03 0.  1.
         11   -1    0    0    0    0 -0.00000000000E+00 -0.00000000000E+00 -0.45593999997E+02  0.45594000000E+02  0.51100000000E-03 0. -1.
    9900012    2    1    2    0    0 -0.30632641995E+02 -0.19310800225E+02  0.18490541273E+02  0.50528857394E+02  0.29999992534E+02 0.  0.
         12    1    1    2    0    0  0.30632641995E+02  0.19310800225E+02 -0.18490541273E+02  0.40659142606E+02  0.00000000000E+00 0. -1.
         11    1    3    3    0    0 -0.51732562097E+01 -0.10238349425E+02 -0.68976959388E-01  0.11471318008E+02  0.51100000000E-03 0. -1.
        -11    1    3    3    0    0 -0.13033649617E+02 -0.15205130617E+02  0.77138285510E+01  0.21461015134E+02  0.51100000000E-03 0.  1.
         12    1    3    3    0    0 -0.12425736169E+02  0.61326798170E+01  0.10845689681E+02  0.17596524252E+02  0.00000000000E+00 0. -1.
</event>
<event>
 7    1  0.5642630E-013  0.5052886E+02  0.7816164E-02  0.1300439E+00
        -11   -1    0    0    0    0  0.00000000000E+00  0.00000000000E+00  0.45593999997E+02  0.45594000000E+02  0.51100000000E-03 0.  1.
         11   -1    0    0    0    0 -0.00000000000E+00 -0.00000000000E+00 -0.45593999997E+02  0.45594000000E+02  0.51100000000E-03 0. -1.
    9900012    2    1    2    0    0 -0.19891935465E+02 -0.51169035644E+01  0.35089797728E+02  0.50528859537E+02  0.29999999048E+02 0.  0.
         12    1    1    2    0    0  0.19891935465E+02  0.51169035644E+01 -0.35089797728E+02  0.40659140463E+02  0.00000000000E+00 0. -1.
         11    1    3    3    0    0 -0.10405083381E+02  0.39866152703E+01  0.28963875554E+02  0.31033287754E+02  0.51100000000E-03 0. -1.
        -11    1    3    3    0    0  0.17151514377E+01 -0.42985418637E+01  0.56414219998E+01  0.72969068138E+01  0.51100000000E-03 0.  1.
        -12    1    3    3    0    0 -0.11202003522E+02 -0.48049769710E+01  0.48450017390E+00  0.12198664969E+02  0.00000000000E+00 0.  1.
</event>
<event>
 7    1  0.5642630E-013  0.5052886E+02  0.7816164E-02  0.1300439E+00
        -11   -1    0    0    0    0  0.00000000000E+00  0.00000000000E+00  0.45593999997E+02  0.45594000000E+02  0.51100000000E-03 0. -1.
         11   -1    0    0    0    0 -0.00000000000E+00 -0.00000000000E+00 -0.45593999997E+02  0.45594000000E+02  0.51100000000E-03 0.  1.
    9900012    2    1    2    0    0 -0.20153370092E+02  0.33838275755E+02 -0.10098443453E+02  0.50528858441E+02  0.29999995716E+02 0.  0.
         12    1    1    2    0    0  0.20153370092E+02 -0.33838275755E+02  0.10098443453E+02  0.40659141559E+02  0.00000000000E+00 0. -1.
         11    1    3    3    0    0 -0.67375074272E+00  0.19586116109E+02 -0.74893510896E+01  0.20979996766E+02  0.51100000000E-03 0. -1.
        -11    1    3    3    0    0 -0.22921690169E+01  0.17261715499E+00 -0.65878508990E+01  0.69773644890E+01  0.51100000000E-03 0.  1.
         12    1    3    3    0    0 -0.17187450333E+02  0.14079542491E+02  0.39787585355E+01  0.22571497185E+02  0.00000000000E+00 0. -1.
</event>
<event>
 7    1  0.5642630E-013  0.5052886E+02  0.7816164E-02  0.1300439E+00
        -11   -1    0    0    0    0  0.00000000000E+00  0.00000000000E+00  0.45593999997E+02  0.45594000000E+02  0.51100000000E-03 0.  1.
         11   -1    0    0    0    0 -0.00000000000E+00 -0.00000000000E+00 -0.45593999997E+02  0.45594000000E+02  0.51100000000E-03 0. -1.
    9900012    2    1    2    0    0  0.36807350294E+02  0.15981015317E+02  0.65568425516E+01  0.50528855020E+02  0.29999985320E+02 0.  0.
         12    1    1    2    0    0 -0.36807350294E+02 -0.15981015317E+02 -0.65568425516E+01  0.40659144980E+02  0.00000000000E+00 0. -1.
         11    1    3    3    0    0  0.11260747900E+02  0.46344347882E+01 -0.63189838630E+01  0.13719037371E+02  0.51100000000E-03 0. -1.
        -11    1    3    3    0    0  0.10522386550E+02  0.10710436821E+02 -0.25925320091E+01  0.15236643268E+02  0.51100000000E-03 0.  1.
         12    1    3    3    0    0  0.15024215844E+02  0.63614370803E+00  0.15468358424E+02  0.21573174381E+02  0.00000000000E+00 0. -1.
</event>
<event>
 7    1  0.5642630E-013  0.5052885E+02  0.7816164E-02  0.1300439E+00
        -11   -1    0    0    0    0  0.00000000000E+00  0.00000000000E+00  0.45593999997E+02  0.45594000000E+02  0.51100000000E-03 0. -1.
         11   -1    0    0    0    0 -0.00000000000E+00 -0.00000000000E+00 -0.45593999997E+02  0.45594000000E+02  0.51100000000E-03 0.  1.
    9900012    2    1    2    0    0 -0.19247517359E+02  0.35594900857E+02 -0.39626296142E+01  0.50528851891E+02  0.29999975807E+02 0.  0.
         12    1    1    2    0    0  0.19247517359E+02 -0.35594900857E+02  0.39626296142E+01  0.40659148109E+02  0.00000000000E+00 0. -1.
         11    1    3    3    0    0 -0.98215131291E+01  0.23524782438E+01  0.21807782521E+01  0.10332089241E+02  0.51100000000E-03 0. -1.
        -11    1    3    3    0    0 -0.14744246199E+01 -0.22277982056E+01  0.14819163579E+01  0.30550105004E+01  0.51100000000E-03 0.  1.
        -12    1    3    3    0    0 -0.79515796102E+01  0.35470220819E+02 -0.76253242241E+01  0.37141752150E+02  0.00000000000E+00 0.  1.
</event>
<event>
 7    1  0.5642630E-013  0.5052887E+02  0.7816164E-02  0.1300439E+00
        -11   -1    0    0    0    0  0.00000000000E+00  0.00000000000E+00  0.45593999997E+02  0.45594000000E+02  0.51100000000E-03 0.  1.
         11   -1    0    0    0    0 -0.00000000000E+00 -0.00000000000E+00 -0.45593999997E+02  0.45594000000E+02  0.51100000000E-03 0. -1.
    9900012    2    1    2    0    0  0.17108762236E+02  0.16043076490E+02  0.33212573410E+02  0.50528867188E+02  0.30000022305E+02 0.  0.
         12    1    1    2    0    0 -0.17108762236E+02 -0.16043076490E+02 -0.33212573410E+02  0.40659132812E+02  0.00000000000E+00 0. -1.
         11    1    3    3    0    0  0.86363330164E+01 -0.46357199422E+01  0.70383397498E+01  0.12067078107E+02  0.51100000000E-03 0. -1.
        -11    1    3    3    0    0  0.90039268568E+01  0.56536734007E+01  0.19069639426E+02  0.21833136968E+02  0.51100000000E-03 0.  1.
         12    1    3    3    0    0 -0.53149763744E+00  0.15025123032E+02  0.71045942342E+01  0.16628652113E+02  0.00000000000E+00 0. -1.
</event>
<event>
 7    1  0.5642630E-013  0.5052886E+02  0.7816164E-02  0.1300439E+00
        -11   -1    0    0    0    0  0.00000000000E+00  0.00000000000E+00  0.45593999997E+02  0.45594000000E+02  0.51100000000E-03 0.  1.
         11   -1    0    0    0    0 -0.00000000000E+00 -0.00000000000E+00 -0.45593999997E+02  0.45594000000E+02  0.51100000000E-03 0. -1.
    9900012    2    1    2    0    0 -0.37645460230E+02 -0.16103729613E+01  0.15277170868E+02  0.50528856788E+02  0.29999990691E+02 0.  0.
         12    1    1    2    0    0  0.37645460230E+02  0.16103729613E+01 -0.15277170868E+02  0.40659143212E+02  0.00000000000E+00 0. -1.
         11    1    3    3    0    0 -0.13774725509E+02 -0.13344224798E+01 -0.96091286128E-01  0.13839544067E+02  0.51100000000E-03 0.  1.
        -11    1    3    3    0    0 -0.74730429258E+01  0.59725382481E+01 -0.41596482421E+01  0.10431694851E+02  0.51100000000E-03 0. -1.
        -12    1    3    3    0    0 -0.16397691796E+02 -0.62484887296E+01  0.19532910396E+02  0.26257617870E+02  0.00000000000E+00 0.  1.
</event>
<event>
 7    1  0.5642630E-013  0.5052886E+02  0.7816164E-02  0.1300439E+00
        -11   -1    0    0    0    0  0.00000000000E+00  0.00000000000E+00  0.45593999997E+02  0.45594000000E+02  0.51100000000E-03 0.  1.
         11   -1    0    0    0    0 -0.00000000000E+00 -0.00000000000E+00 -0.45593999997E+02  0.45594000000E+02  0.51100000000E-03 0. -1.
    9900012    2    1    2    0    0  0.30759508036E+02 -0.18287530021E+02  0.19302449240E+02  0.50528860369E+02  0.30000001576E+02 0.  0.
         12    1    1    2    0    0 -0.30759508036E+02  0.18287530021E+02 -0.19302449240E+02  0.40659139631E+02  0.00000000000E+00 0. -1.
         11    1    3    3    0    0  0.10065458745E+02 -0.10036243989E+02  0.10577290194E+02  0.17717751586E+02  0.51100000000E-03 0. -1.
        -11    1    3    3    0    0  0.10777126544E+02 -0.15106202395E+02  0.92703749026E+01  0.20743279838E+02  0.51100000000E-03 0.  1.
         12    1    3    3    0    0  0.99169227468E+01  0.68549163623E+01 -0.54521585717E+00  0.12067828944E+02  0.00000000000E+00 0. -1.
</event>
<event>
 7    1  0.5642630E-013  0.5052887E+02  0.7816164E-02  0.1300439E+00
        -11   -1    0    0    0    0  0.00000000000E+00  0.00000000000E+00  0.45593999997E+02  0.45594000000E+02  0.51100000000E-03 0.  1.
         11   -1    0    0    0    0 -0.00000000000E+00 -0.00000000000E+00 -0.45593999997E+02  0.45594000000E+02  0.51100000000E-03 0. -1.
    9900012    2    1    2    0    0 -0.95221072794E+01  0.14210268526E+02  0.36885800687E+02  0.50528873707E+02  0.30000042118E+02 0.  0.
         12    1    1    2    0    0  0.95221072794E+01 -0.14210268526E+02 -0.36885800687E+02  0.40659126293E+02  0.00000000000E+00 0. -1.
         11    1    3    3    0    0 -0.15913533741E+01  0.77643859311E+00 -0.38989433161E+01  0.42821748789E+01  0.51100000000E-03 0. -1.
        -11    1    3    3    0    0 -0.90151217021E+01  0.50258121678E+01  0.10208897275E+02  0.14517327271E+02  0.51100000000E-03 0.  1.
        -12    1    3    3    0    0  0.10843677967E+01  0.84080177654E+01  0.30575846728E+02  0.31729371557E+02  0.00000000000E+00 0.  1.
</event>
<event>
 7    1  0.5642630E-013  0.5052888E+02  0.7816164E-02  0.1300439E+00
        -11   -1    0    0    0    0  0.00000000000E+00  0.00000000000E+00  0.45593999997E+02  0.45594000000E+02  0.51100000000E-03 0. -1.
         11   -1    0    0    0    0 -0.00000000000E+00 -0.00000000000E+00 -0.45593999997E+02  0.45594000000E+02  0.51100000000E-03 0.  1.
    9900012    2    1    2    0    0  0.30399893669E+02  0.16884743444E+02 -0.21069316473E+02  0.50528878110E+02  0.30000055502E+02 0.  0.
         12    1    1    2    0    0 -0.30399893669E+02 -0.16884743444E+02  0.21069316473E+02  0.40659121890E+02  0.00000000000E+00 0. -1.
         11    1    3    3    0    0  0.27573241290E+01  0.20637294719E+01  0.26664244929E+01  0.43556440996E+01  0.51100000000E-03 0. -1.
        -11    1    3    3    0    0  0.26891941334E+02  0.20525113483E+02 -0.19730872931E+02  0.39163300922E+02  0.51100000000E-03 0.  1.
         12    1    3    3    0    0  0.75062820585E+00 -0.57040995104E+01 -0.40048680341E+01  0.70099330880E+01  0.00000000000E+00 0. -1.
</event>
<event>
 7    1  0.5642630E-013  0.5052886E+02  0.7816164E-02  0.1300439E+00
        -11   -1    0    0    0    0  0.00000000000E+00  0.00000000000E+00  0.45593999997E+02  0.45594000000E+02  0.51100000000E-03 0. -1.
         11   -1    0    0    0    0 -0.00000000000E+00 -0.00000000000E+00 -0.45593999997E+02  0.45594000000E+02  0.51100000000E-03 0.  1.
    9900012    2    1    2    0    0 -0.19899491176E+02  0.24434799795E+02  0.25692736161E+02  0.50528857344E+02  0.29999992383E+02 0.  0.
         12    1    1    2    0    0  0.19899491176E+02 -0.24434799795E+02 -0.25692736161E+02  0.40659142656E+02  0.00000000000E+00 0. -1.
         11    1    3    3    0    0 -0.82973913803E+01  0.19085150374E+02  0.17864560136E+02  0.27426851399E+02  0.51100000000E-03 0. -1.
        -11    1    3    3    0    0 -0.15396301658E+02  0.42437831675E+01  0.20499122056E+01  0.16101488771E+02  0.51100000000E-03 0.  1.
         12    1    3    3    0    0  0.37942018626E+01  0.11058662528E+01  0.57782638197E+01  0.70005171747E+01  0.00000000000E+00 0. -1.
</event>
<event>
 7    1  0.5642630E-013  0.5052886E+02  0.7816164E-02  0.1300439E+00
        -11   -1    0    0    0    0  0.00000000000E+00  0.00000000000E+00  0.45593999997E+02  0.45594000000E+02  0.51100000000E-03 0.  1.
         11   -1    0    0    0    0 -0.00000000000E+00 -0.00000000000E+00 -0.45593999997E+02  0.45594000000E+02  0.51100000000E-03 0. -1.
    9900012    2    1    2    0    0  0.32503601244E+02  0.23647401540E+02  0.61222744338E+01  0.50528856654E+02  0.29999990285E+02 0.  0.
         12    1    1    2    0    0 -0.32503601244E+02 -0.23647401540E+02 -0.61222744338E+01  0.40659143346E+02  0.00000000000E+00 0. -1.
         11    1    3    3    0    0  0.67219598157E+00  0.40413866682E+01 -0.37062769105E+01  0.55245943234E+01  0.51100000000E-03 0. -1.
        -11    1    3    3    0    0  0.83344721031E+01  0.17583989642E+02  0.12441707819E-01  0.19459195051E+02  0.51100000000E-03 0.  1.
        -12    1    3    3    0    0  0.23496933159E+02  0.20220252294E+01  0.98161096365E+01  0.25545067279E+02  0.00000000000E+00 0.  1.
</event>
<event>
 7    1  0.5642630E-013  0.5052881E+02  0.7816164E-02  0.1300439E+00
        -11   -1    0    0    0    0  0.00000000000E+00  0.00000000000E+00  0.45593999997E+02  0.45594000000E+02  0.51100000000E-03 0. -1.
         11   -1    0    0    0    0 -0.00000000000E+00 -0.00000000000E+00 -0.45593999997E+02  0.45594000000E+02  0.51100000000E-03 0.  1.
    9900012    2    1    2    0    0  0.70996440715E+00 -0.26709882512E+02 -0.30647146994E+02  0.50528812942E+02  0.29999857419E+02 0.  0.
         12    1    1    2    0    0 -0.70996440715E+00  0.26709882512E+02  0.30647146994E+02  0.40659187058E+02  0.00000000000E+00 0. -1.
         11    1    3    3    0    0  0.51034355093E+01 -0.11219656673E+02 -0.86382828938E+01  0.15051434532E+02  0.51100000000E-03 0. -1.
        -11    1    3    3    0    0  0.73127633282E+01 -0.73102833589E+01 -0.17806373217E+02  0.20590863937E+02  0.51100000000E-03 0.  1.
        -12    1    3    3    0    0 -0.11706234430E+02 -0.81799424801E+01 -0.42024908834E+01  0.14886514473E+02  0.00000000000E+00 0.  1.
</event>
<event>
 7    1  0.5642630E-013  0.5052886E+02  0.7816164E-02  0.1300439E+00
        -11   -1    0    0    0    0  0.00000000000E+00  0.00000000000E+00  0.45593999997E+02  0.45594000000E+02  0.51100000000E-03 0.  1.
         11   -1    0    0    0    0 -0.00000000000E+00 -0.00000000000E+00 -0.45593999997E+02  0.45594000000E+02  0.51100000000E-03 0. -1.
    9900012    2    1    2    0    0 -0.62473923025E+00 -0.28729277472E+02  0.28764634126E+02  0.50528857614E+02  0.29999993203E+02 0.  0.
         12    1    1    2    0    0  0.62473923025E+00  0.28729277472E+02 -0.28764634126E+02  0.40659142386E+02  0.00000000000E+00 0. -1.
         11    1    3    3    0    0 -0.11485437583E+00 -0.19038919643E+02  0.78761684780E+01  0.20604069570E+02  0.51100000000E-03 0. -1.
        -11    1    3    3    0    0  0.46347202465E+01 -0.80297746544E+01  0.10121559336E+01  0.93264340806E+01  0.51100000000E-03 0.  1.
        -12    1    3    3    0    0 -0.51446051010E+01 -0.16605831746E+01  0.19876309715E+02  0.20598353963E+02  0.00000000000E+00 0.  1.
</event>
<event>
 7    1  0.5642630E-013  0.5052887E+02  0.7816164E-02  0.1300439E+00
        -11   -1    0    0    0    0  0.00000000000E+00  0.00000000000E+00  0.45593999997E+02  0.45594000000E+02  0.51100000000E-03 0. -1.
         11   -1    0    0    0    0 -0.00000000000E+00 -0.00000000000E+00 -0.45593999997E+02  0.45594000000E+02  0.51100000000E-03 0.  1.
    9900012    2    1    2    0    0 -0.18434483934E+02  0.30114376049E+02 -0.20160836826E+02  0.50528865919E+02  0.30000018447E+02 0.  0.
         12    1    1    2    0    0  0.18434483934E+02 -0.30114376049E+02  0.20160836826E+02  0.40659134081E+02  0.00000000000E+00 0. -1.
         11    1    3    3    0    0 -0.56193478134E+01  0.83437054379E+01  0.22977741553E+01  0.10318636374E+02  0.51100000000E-03 0. -1.
        -11    1    3    3    0    0 -0.61117951503E+00  0.21046186865E+02 -0.12911173392E+02  0.24698459883E+02  0.51100000000E-03 0.  1.
         12    1    3    3    0    0 -0.12203956606E+02  0.72448374539E+00 -0.95474375892E+01  0.15511769662E+02  0.00000000000E+00 0. -1.
</event>
<event>
 7    1  0.5642630E-013  0.5052884E+02  0.7816164E-02  0.1300439E+00
        -11   -1    0    0    0    0  0.00000000000E+00  0.00000000000E+00  0.45593999997E+02  0.45594000000E+02  0.51100000000E-03 0.  1.
         11   -1    0    0    0    0 -0.00000000000E+00 -0.00000000000E+00 -0.45593999997E+02  0.45594000000E+02  0.51100000000E-03 0. -1.
    9900012    2    1    2    0    0 -0.23017780679E+02  0.31891887148E+02  0.10308066852E+02  0.50528844383E+02  0.29999952986E+02 0.  0.
         12    1    1    2    0    0  0.23017780679E+02 -0.31891887148E+02 -0.10308066852E+02  0.40659155617E+02  0.00000000000E+00 0. -1.
         11    1    3    3    0    0 -0.19623461435E+01 -0.50614533601E+01  0.72912413471E+00  0.54772926495E+01  0.51100000000E-03 0. -1.
        -11    1    3    3    0    0 -0.22991060279E+01  0.13602535209E+01 -0.18233705278E+01  0.32343250472E+01  0.51100000000E-03 0.  1.
        -12    1    3    3    0    0 -0.18756328508E+02  0.35593086987E+02  0.11402313246E+02  0.41817226686E+02  0.00000000000E+00 0.  1.
</event>
<event>
 7    1  0.5642630E-013  0.5052886E+02  0.7816164E-02  0.1300439E+00
        -11   -1    0    0    0    0  0.00000000000E+00  0.00000000000E+00  0.45593999997E+02  0.45594000000E+02  0.51100000000E-03 0.  1.
         11   -1    0    0    0    0 -0.00000000000E+00 -0.00000000000E+00 -0.45593999997E+02  0.45594000000E+02  0.51100000000E-03 0. -1.
    9900012    2    1    2    0    0  0.25383275738E+02  0.19909946356E+02  0.24747705887E+02  0.50528860833E+02  0.30000002988E+02 0.  0.
         12    1    1    2    0    0 -0.25383275738E+02 -0.19909946356E+02 -0.24747705887E+02  0.40659139167E+02  0.00000000000E+00 0. -1.
         11    1    3    3    0    0  0.41596024948E+01  0.63344608858E+01  0.63682111627E+01  0.98985757209E+01  0.51100000000E-03 0. -1.
        -11    1    3    3    0    0  0.25810549575E+02  0.12826753774E+02  0.90537299627E+01  0.30210595960E+02  0.51100000000E-03 0.  1.
        -12    1    3    3    0    0 -0.45868763317E+01  0.74873169571E+00  0.93257647620E+01  0.10419689152E+02  0.00000000000E+00 0.  1.
</event>
<event>
 7    1  0.5642630E-013  0.5052884E+02  0.7816164E-02  0.1300439E+00
        -11   -1    0    0    0    0  0.00000000000E+00  0.00000000000E+00  0.45593999997E+02  0.45594000000E+02  0.51100000000E-03 0.  1.
         11   -1    0    0    0    0 -0.00000000000E+00 -0.00000000000E+00 -0.45593999997E+02  0.45594000000E+02  0.51100000000E-03 0. -1.
    9900012    2    1    2    0    0  0.40393683901E+01  0.22208788668E+02  0.33817457481E+02  0.50528840865E+02  0.29999942292E+02 0.  0.
         12    1    1    2    0    0 -0.40393683901E+01 -0.22208788668E+02 -0.33817457481E+02  0.40659159135E+02  0.00000000000E+00 0. -1.
         11    1    3    3    0    0  0.34452575239E+01 -0.15396841309E+01  0.20584527640E+00  0.37792590766E+01  0.51100000000E-03 0.  1.
        -11    1    3    3    0    0  0.12367277071E+01 -0.30346047360E+01 -0.56358212394E+00  0.33250483300E+01  0.51100000000E-03 0. -1.
        -12    1    3    3    0    0 -0.64261684087E+00  0.26783077535E+02  0.34175194329E+02  0.43424533458E+02  0.00000000000E+00 0.  1.
</event>
<event>
 7    1  0.5642630E-013  0.5052886E+02  0.7816164E-02  0.1300439E+00
        -11   -1    0    0    0    0  0.00000000000E+00  0.00000000000E+00  0.45593999997E+02  0.45594000000E+02  0.51100000000E-03 0.  1.
         11   -1    0    0    0    0 -0.00000000000E+00 -0.00000000000E+00 -0.45593999997E+02  0.45594000000E+02  0.51100000000E-03 0. -1.
    9900012    2    1    2    0    0 -0.19168683073E+02  0.30857557513E+02  0.18263039283E+02  0.50528857482E+02  0.29999992803E+02 0.  0.
         12    1    1    2    0    0  0.19168683073E+02 -0.30857557513E+02 -0.18263039283E+02  0.40659142518E+02  0.00000000000E+00 0. -1.
         11    1    3    3    0    0 -0.14321974184E+02  0.65544535405E+01  0.12539917957E+02  0.20132792861E+02  0.51100000000E-03 0. -1.
        -11    1    3    3    0    0 -0.39037328169E+01  0.19822547275E+02  0.11325093312E+02  0.23160963908E+02  0.51100000000E-03 0.  1.
        -12    1    3    3    0    0 -0.94297607233E+00  0.44805566981E+01 -0.56019719865E+01  0.72351007135E+01  0.00000000000E+00 0.  1.
</event>
<event>
 7    1  0.5642630E-013  0.5052885E+02  0.7816164E-02  0.1300439E+00
        -11   -1    0    0    0    0  0.00000000000E+00  0.00000000000E+00  0.45593999997E+02  0.45594000000E+02  0.51100000000E-03 0.  1.
         11   -1    0    0    0    0 -0.00000000000E+00 -0.00000000000E+00 -0.45593999997E+02  0.45594000000E+02  0.51100000000E-03 0. -1.
    9900012    2    1    2    0    0  0.20656080978E+02 -0.10707396910E+02  0.33344331643E+02  0.50528849951E+02  0.29999969911E+02 0.  0.
         12    1    1    2    0    0 -0.20656080978E+02  0.10707396910E+02 -0.33344331643E+02  0.40659150049E+02  0.00000000000E+00 0. -1.
         11    1    3    3    0    0  0.13130613383E+01  0.88492412645E+01  0.11863826872E+02  0.14858788287E+02  0.51100000000E-03 0. -1.
        -11    1    3    3    0    0  0.83411612943E+01 -0.91251970024E+01  0.51670558118E+01  0.13399352898E+02  0.51100000000E-03 0.  1.
        -12    1    3    3    0    0  0.11001858346E+02 -0.10431441173E+02  0.16313448959E+02  0.22270708766E+02  0.00000000000E+00 0.  1.
</event>
<event>
 7    1  0.5642630E-013  0.5052885E+02  0.7816164E-02  0.1300439E+00
        -11   -1    0    0    0    0  0.00000000000E+00  0.00000000000E+00  0.45593999997E+02  0.45594000000E+02  0.51100000000E-03 0.  1.
         11   -1    0    0    0    0 -0.00000000000E+00 -0.00000000000E+00 -0.45593999997E+02  0.45594000000E+02  0.51100000000E-03 0. -1.
    9900012    2    1    2    0    0 -0.12229595789E+02  0.27634851464E+02  0.27201439176E+02  0.50528851929E+02  0.29999975925E+02 0.  0.
         12    1    1    2    0    0  0.12229595789E+02 -0.27634851464E+02 -0.27201439176E+02  0.40659148071E+02  0.00000000000E+00 0. -1.
         11    1    3    3    0    0  0.22070302000E+01  0.13863215036E+01  0.11655564360E+01  0.28550642167E+01  0.51100000000E-03 0. -1.
        -11    1    3    3    0    0 -0.17272313955E+00  0.25651977913E+02  0.16281103886E+02  0.30383024013E+02  0.51100000000E-03 0.  1.
         12    1    3    3    0    0 -0.14263902849E+02  0.59655204679E+00  0.97547788536E+01  0.17290763700E+02  0.00000000000E+00 0. -1.
</event>
<event>
 7    1  0.5642630E-013  0.5052887E+02  0.7816164E-02  0.1300439E+00
        -11   -1    0    0    0    0  0.00000000000E+00  0.00000000000E+00  0.45593999997E+02  0.45594000000E+02  0.51100000000E-03 0.  1.
         11   -1    0    0    0    0 -0.00000000000E+00 -0.00000000000E+00 -0.45593999997E+02  0.45594000000E+02  0.51100000000E-03 0. -1.
    9900012    2    1    2    0    0  0.31035596388E+02  0.24193949927E+02  0.10227878999E+02  0.50528868614E+02  0.30000026640E+02 0.  0.
         12    1    1    2    0    0 -0.31035596388E+02 -0.24193949927E+02 -0.10227878999E+02  0.40659131386E+02  0.00000000000E+00 0. -1.
         11    1    3    3    0    0  0.27312466035E+01  0.50229496452E+01  0.46890937302E+01  0.73944121754E+01  0.51100000000E-03 0. -1.
        -11    1    3    3    0    0  0.16212654459E+01  0.13646930973E+02  0.77822295948E+01  0.15793363301E+02  0.51100000000E-03 0.  1.
         12    1    3    3    0    0  0.26683084339E+02  0.55240693086E+01 -0.22434443257E+01  0.27341093138E+02  0.00000000000E+00 0. -1.
</event>
<event>
 7    1  0.5642630E-013  0.5052887E+02  0.7816164E-02  0.1300439E+00
        -11   -1    0    0    0    0  0.00000000000E+00  0.00000000000E+00  0.45593999997E+02  0.45594000000E+02  0.51100000000E-03 0. -1.
         11   -1    0    0    0    0 -0.00000000000E+00 -0.00000000000E+00 -0.45593999997E+02  0.45594000000E+02  0.51100000000E-03 0.  1.
    9900012    2    1    2    0    0  0.31291916039E+02 -0.14249494935E+02 -0.21700988522E+02  0.50528867961E+02  0.30000024656E+02 0.  0.
         12    1    1    2    0    0 -0.31291916039E+02  0.14249494935E+02  0.21700988522E+02  0.40659132039E+02  0.00000000000E+00 0. -1.
         11    1    3    3    0    0  0.77601701456E+01 -0.35040075169E+01 -0.13146478102E+02  0.15662956174E+02  0.51100000000E-03 0. -1.
        -11    1    3    3    0    0  0.65065252584E+01  0.67252039313E+01 -0.15425185819E+01  0.94838073943E+01  0.51100000000E-03 0.  1.
        -12    1    3    3    0    0  0.17025220635E+02 -0.17470691349E+02 -0.70119918383E+01  0.25382104393E+02  0.00000000000E+00 0.  1.
</event>
<event>
 7    1  0.6236026E-013  0.5052886E+02  0.7816164E-02  0.1300439E+00
        -11   -1    0    0    0    0  0.00000000000E+00  0.00000000000E+00  0.45593999997E+02  0.45594000000E+02  0.51100000000E-03 0. -1.
         11   -1    0    0    0    0 -0.00000000000E+00 -0.00000000000E+00 -0.45593999997E+02  0.45594000000E+02  0.51100000000E-03 0.  1.
    9900012    2    1    2    0    0 -0.30012898765E+02  0.78255572666E+01 -0.26289766534E+02  0.50528864947E+02  0.30000015493E+02 0.  0.
         12    1    1    2    0    0  0.30012898765E+02 -0.78255572666E+01  0.26289766534E+02  0.40659135053E+02  0.00000000000E+00 0. -1.
         11    1    3    3    0    0  0.11358453754E+01  0.18266342849E+00  0.16569244697E+01  0.20171538376E+01  0.51100000000E-03 0. -1.
        -11    1    3    3    0    0 -0.26117186221E+01 -0.67167270694E+01 -0.83669256135E+01  0.11042687226E+02  0.51100000000E-03 0.  1.
        -12    1    3    3    0    0 -0.28537025519E+02  0.14359620908E+02 -0.19579765390E+02  0.37469023884E+02  0.00000000000E+00 0.  1.
</event>
<event>
 7    1  0.5642630E-013  0.5052887E+02  0.7816164E-02  0.1300439E+00
        -11   -1    0    0    0    0  0.00000000000E+00  0.00000000000E+00  0.45593999997E+02  0.45594000000E+02  0.51100000000E-03 0.  1.
         11   -1    0    0    0    0 -0.00000000000E+00 -0.00000000000E+00 -0.45593999997E+02  0.45594000000E+02  0.51100000000E-03 0. -1.
    9900012    2    1    2    0    0 -0.29138592364E+02 -0.24038397695E+02 -0.15042024536E+02  0.50528872724E+02  0.30000039132E+02 0.  0.
         12    1    1    2    0    0  0.29138592364E+02  0.24038397695E+02  0.15042024536E+02  0.40659127276E+02  0.00000000000E+00 0. -1.
         11    1    3    3    0    0 -0.22415845453E+02 -0.17521951300E+02 -0.78948720993E+01  0.29526562795E+02  0.51100000000E-03 0. -1.
        -11    1    3    3    0    0 -0.12255300448E+02 -0.17409492151E+01 -0.52912861189E+01  0.13461835027E+02  0.51100000000E-03 0.  1.
         12    1    3    3    0    0  0.55325535374E+01 -0.47754971806E+01 -0.18558663177E+01  0.75404749025E+01  0.00000000000E+00 0. -1.
</event>
<event>
 7    1  0.5642630E-013  0.5052886E+02  0.7816164E-02  0.1300439E+00
        -11   -1    0    0    0    0  0.00000000000E+00  0.00000000000E+00  0.45593999997E+02  0.45594000000E+02  0.51100000000E-03 0.  1.
         11   -1    0    0    0    0 -0.00000000000E+00 -0.00000000000E+00 -0.45593999997E+02  0.45594000000E+02  0.51100000000E-03 0. -1.
    9900012    2    1    2    0    0 -0.62870476939E+01  0.61406896810E+01  0.39697992812E+02  0.50528859923E+02  0.30000000222E+02 0.  0.
         12    1    1    2    0    0  0.62870476939E+01 -0.61406896810E+01 -0.39697992812E+02  0.40659140077E+02  0.00000000000E+00 0. -1.
         11    1    3    3    0    0  0.81177703990E+01 -0.33693654911E+01  0.16004048202E+02  0.18258706941E+02  0.51100000000E-03 0. -1.
        -11    1    3    3    0    0  0.57341638457E+00  0.46779927232E+01  0.12821375002E+01  0.48842910539E+01  0.51100000000E-03 0.  1.
         12    1    3    3    0    0 -0.14978234477E+02  0.48320624489E+01  0.22411807110E+02  0.27385861928E+02  0.00000000000E+00 0. -1.
</event>
<event>
 7    1  0.5642630E-013  0.5052887E+02  0.7816164E-02  0.1300439E+00
        -11   -1    0    0    0    0  0.00000000000E+00  0.00000000000E+00  0.45593999997E+02  0.45594000000E+02  0.51100000000E-03 0. -1.
         11   -1    0    0    0    0 -0.00000000000E+00 -0.00000000000E+00 -0.45593999997E+02  0.45594000000E+02  0.51100000000E-03 0.  1.
    9900012    2    1    2    0    0 -0.31087208733E+02  0.24779453669E+02 -0.85281507018E+01  0.50528865413E+02  0.30000016910E+02 0.  0.
         12    1    1    2    0    0  0.31087208733E+02 -0.24779453669E+02  0.85281507018E+01  0.40659134587E+02  0.00000000000E+00 0. -1.
         11    1    3    3    0    0 -0.33861088124E+01 -0.44236150351E+00  0.37009278922E+01  0.50357009555E+01  0.51100000000E-03 0. -1.
        -11    1    3    3    0    0 -0.22449679678E+02  0.19181227001E+02  0.15383027992E+01  0.29568124098E+02  0.51100000000E-03 0.  1.
        -12    1    3    3    0    0 -0.52514202428E+01  0.60405881711E+01 -0.13767381393E+02  0.15925040359E+02  0.00000000000E+00 0.  1.
</event>
<event>
 7    1  0.5642630E-013  0.5052885E+02  0.7816164E-02  0.1300439E+00
        -11   -1    0    0    0    0  0.00000000000E+00  0.00000000000E+00  0.45593999997E+02  0.45594000000E+02  0.51100000000E-03 0.  1.
         11   -1    0    0    0    0 -0.00000000000E+00 -0.00000000000E+00 -0.45593999997E+02  0.45594000000E+02  0.51100000000E-03 0. -1.
    9900012    2    1    2    0    0 -0.19418310634E+02 -0.30467233651E+02  0.18650551379E+02  0.50528853661E+02  0.29999981189E+02 0.  0.
         12    1    1    2    0    0  0.19418310634E+02  0.30467233651E+02 -0.18650551379E+02  0.40659146339E+02  0.00000000000E+00 0. -1.
         11    1    3    3    0    0  0.26459779721E+01 -0.84077661071E+01 -0.73092259179E+00  0.88445451232E+01  0.51100000000E-03 0. -1.
        -11    1    3    3    0    0 -0.95442969088E+01  0.12508521244E+01  0.14831791287E+01  0.97395100036E+01  0.51100000000E-03 0.  1.
        -12    1    3    3    0    0 -0.12519991697E+02 -0.23310319669E+02  0.17898294842E+02  0.31944798535E+02  0.00000000000E+00 0.  1.
</event>
<event>
 7    1  0.5642630E-013  0.5052886E+02  0.7816164E-02  0.1300439E+00
        -11   -1    0    0    0    0  0.00000000000E+00  0.00000000000E+00  0.45593999997E+02  0.45594000000E+02  0.51100000000E-03 0.  1.
         11   -1    0    0    0    0 -0.00000000000E+00 -0.00000000000E+00 -0.45593999997E+02  0.45594000000E+02  0.51100000000E-03 0. -1.
    9900012    2    1    2    0    0 -0.23204994344E+02 -0.27452359015E+02  0.19001621218E+02  0.50528863427E+02  0.30000010872E+02 0.  0.
         12    1    1    2    0    0  0.23204994344E+02  0.27452359015E+02 -0.19001621218E+02  0.40659136573E+02  0.00000000000E+00 0. -1.
         11    1    3    3    0    0 -0.11327349848E+02 -0.15244476356E+01  0.39120049504E+00  0.11436163398E+02  0.51100000000E-03 0. -1.
        -11    1    3    3    0    0 -0.11429388602E+02 -0.70041675197E+01  0.13446670760E+01  0.13472097694E+02  0.51100000000E-03 0.  1.
         12    1    3    3    0    0 -0.44825589341E+00 -0.18923743860E+02  0.17265753647E+02  0.25620602335E+02  0.00000000000E+00 0. -1.
</event>
<event>
 7    1  0.5642630E-013  0.5052888E+02  0.7816164E-02  0.1300439E+00
        -11   -1    0    0    0    0  0.00000000000E+00  0.00000000000E+00  0.45593999997E+02  0.45594000000E+02  0.51100000000E-03 0.  1.
         11   -1    0    0    0    0 -0.00000000000E+00 -0.00000000000E+00 -0.45593999997E+02  0.45594000000E+02  0.51100000000E-03 0. -1.
    9900012    2    1    2    0    0 -0.66075518092E+01 -0.17320605835E+02  0.36187030171E+02  0.50528877038E+02  0.30000052246E+02 0.  0.
         12    1    1    2    0    0  0.66075518092E+01  0.17320605835E+02 -0.36187030171E+02  0.40659122962E+02  0.00000000000E+00 0. -1.
         11    1    3    3    0    0  0.51201317722E+01 -0.79590018096E+01  0.10329470237E+02  0.14009261751E+02  0.51100000000E-03 0. -1.
        -11    1    3    3    0    0 -0.31224384135E+01 -0.13717794957E+02  0.78979427520E+01  0.16133970996E+02  0.51100000000E-03 0.  1.
        -12    1    3    3    0    0 -0.86052451679E+01  0.43561909316E+01  0.17959617183E+02  0.20385644291E+02  0.00000000000E+00 0.  1.
</event>
<event>
 7    1  0.5642630E-013  0.5052885E+02  0.7816164E-02  0.1300439E+00
        -11   -1    0    0    0    0  0.00000000000E+00  0.00000000000E+00  0.45593999997E+02  0.45594000000E+02  0.51100000000E-03 0. -1.
         11   -1    0    0    0    0 -0.00000000000E+00 -0.00000000000E+00 -0.45593999997E+02  0.45594000000E+02  0.51100000000E-03 0.  1.
    9900012    2    1    2    0    0  0.75378158003E+01 -0.39948285283E+02  0.69420445024E+00  0.50528854855E+02  0.29999984819E+02 0.  0.
         12    1    1    2    0    0 -0.75378158003E+01  0.39948285283E+02 -0.69420445024E+00  0.40659145145E+02  0.00000000000E+00 0. -1.
         11    1    3    3    0    0 -0.14741354563E+01 -0.57374863058E+01 -0.70418656773E+01  0.92021571890E+01  0.51100000000E-03 0. -1.
        -11    1    3    3    0    0 -0.46257022120E+01 -0.10549101326E+01  0.97907028768E+00  0.48444334273E+01  0.51100000000E-03 0.  1.
        -12    1    3    3    0    0  0.13637653469E+02 -0.33155888844E+02  0.67569998398E+01  0.36482264239E+02  0.00000000000E+00 0.  1.
</event>
<event>
 7    1  0.5642630E-013  0.5052884E+02  0.7816164E-02  0.1300439E+00
        -11   -1    0    0    0    0  0.00000000000E+00  0.00000000000E+00  0.45593999997E+02  0.45594000000E+02  0.51100000000E-03 0.  1.
         11   -1    0    0    0    0 -0.00000000000E+00 -0.00000000000E+00 -0.45593999997E+02  0.45594000000E+02  0.51100000000E-03 0. -1.
    9900012    2    1    2    0    0  0.74103836094E+01  0.38739762079E+02  0.98733975072E+01  0.50528844456E+02  0.29999953209E+02 0.  0.
         12    1    1    2    0    0 -0.74103836094E+01 -0.38739762079E+02 -0.98733975072E+01  0.40659155544E+02  0.00000000000E+00 0. -1.
         11    1    3    3    0    0  0.87275104598E+01  0.15044461437E+02  0.19757118582E+01  0.17504533595E+02  0.51100000000E-03 0.  1.
        -11    1    3    3    0    0  0.46090273928E+01  0.78461116729E+01 -0.61909388059E+01  0.11006013150E+02  0.51100000000E-03 0. -1.
         12    1    3    3    0    0 -0.59261542432E+01  0.15849188969E+02  0.14088624455E+02  0.22018297712E+02  0.00000000000E+00 0. -1.
</event>
<event>
 7    1  0.5642630E-013  0.5052891E+02  0.7816164E-02  0.1300439E+00
        -11   -1    0    0    0    0  0.00000000000E+00  0.00000000000E+00  0.45593999997E+02  0.45594000000E+02  0.51100000000E-03 0. -1.
         11   -1    0    0    0    0 -0.00000000000E+00 -0.00000000000E+00 -0.45593999997E+02  0.45594000000E+02  0.51100000000E-03 0.  1.
    9900012    2    1    2    0    0 -0.37488991586E+02  0.10682684018E+01 -0.15703365730E+02  0.50528912667E+02  0.30000160541E+02 0.  0.
         12    1    1    2    0    0  0.37488991586E+02 -0.10682684018E+01  0.15703365730E+02  0.40659087333E+02  0.00000000000E+00 0. -1.
         11    1    3    3    0    0 -0.56396114175E+01 -0.64618869073E+01  0.34297627114E+01  0.92371246533E+01  0.51100000000E-03 0. -1.
        -11    1    3    3    0    0 -0.12781947017E+02 -0.28239291141E+01 -0.13650118684E+02  0.18912389736E+02  0.51100000000E-03 0.  1.
         12    1    3    3    0    0 -0.19067433152E+02  0.10354084423E+02 -0.54830097576E+01  0.22379398277E+02  0.00000000000E+00 0. -1.
</event>
<event>
 7    1  0.5642630E-013  0.5052885E+02  0.7816164E-02  0.1300439E+00
        -11   -1    0    0    0    0  0.00000000000E+00  0.00000000000E+00  0.45593999997E+02  0.45594000000E+02  0.51100000000E-03 0. -1.
         11   -1    0    0    0    0 -0.00000000000E+00 -0.00000000000E+00 -0.45593999997E+02  0.45594000000E+02  0.51100000000E-03 0.  1.
    9900012    2    1    2    0    0  0.20916077581E+02 -0.21842960676E+02 -0.27176626882E+02  0.50528852430E+02  0.29999977446E+02 0.  0.
         12    1    1    2    0    0 -0.20916077581E+02  0.21842960676E+02  0.27176626882E+02  0.40659147570E+02  0.00000000000E+00 0. -1.
         11    1    3    3    0    0  0.19822172700E+02 -0.13534036765E+02 -0.12308074373E+02  0.26973642260E+02  0.51100000000E-03 0. -1.
        -11    1    3    3    0    0  0.43714900388E+01 -0.67618549716E+01  0.20256515710E+00  0.80544174662E+01  0.51100000000E-03 0.  1.
        -12    1    3    3    0    0 -0.32775851580E+01 -0.15470689399E+01 -0.15071117665E+02  0.15500792704E+02  0.00000000000E+00 0.  1.
</event>
<event>
 7    1  0.5642630E-013  0.5052886E+02  0.7816164E-02  0.1300439E+00
        -11   -1    0    0    0    0  0.00000000000E+00  0.00000000000E+00  0.45593999997E+02  0.45594000000E+02  0.51100000000E-03 0.  1.
         11   -1    0    0    0    0 -0.00000000000E+00 -0.00000000000E+00 -0.45593999997E+02  0.45594000000E+02  0.51100000000E-03 0. -1.
    9900012    2    1    2    0    0 -0.17136840764E+01  0.37308339646E+02 -0.16072234276E+02  0.50528860377E+02  0.30000001601E+02 0.  0.
         12    1    1    2    0    0  0.17136840764E+01 -0.37308339646E+02  0.16072234276E+02  0.40659139623E+02  0.00000000000E+00 0. -1.
         11    1    3    3    0    0 -0.12587366681E+02  0.22476885741E+02 -0.14513666538E+02  0.29568542562E+02  0.51100000000E-03 0. -1.
        -11    1    3    3    0    0 -0.17457495436E+01  0.32925789878E+01 -0.96855162323E+00  0.38505597473E+01  0.51100000000E-03 0.  1.
        -12    1    3    3    0    0  0.12619432149E+02  0.11538874917E+02 -0.59001611438E+00  0.17109758067E+02  0.00000000000E+00 0.  1.
</event>
<event>
 7    1  0.5642630E-013  0.5052886E+02  0.7816164E-02  0.1300439E+00
        -11   -1    0    0    0    0  0.00000000000E+00  0.00000000000E+00  0.45593999997E+02  0.45594000000E+02  0.51100000000E-03 0.  1.
         11   -1    0    0    0    0 -0.00000000000E+00 -0.00000000000E+00 -0.45593999997E+02  0.45594000000E+02  0.51100000000E-03 0. -1.
    9900012    2    1    2    0    0  0.33192590494E+01  0.17648568551E+02  0.36478435150E+02  0.50528859779E+02  0.29999999785E+02 0.  0.
         12    1    1    2    0    0 -0.33192590494E+01 -0.17648568551E+02 -0.36478435150E+02  0.40659140221E+02  0.00000000000E+00 0. -1.
         11    1    3    3    0    0  0.41788752261E+01  0.35290911861E+01 -0.11509183531E+01  0.55894629502E+01  0.51100000000E-03 0. -1.
        -11    1    3    3    0    0  0.48941095342E+00  0.33014529999E+01 -0.19640430683E+01  0.38725418560E+01  0.51100000000E-03 0.  1.
        -12    1    3    3    0    0 -0.13490271301E+01  0.10818024365E+02  0.39593396571E+02  0.41066854973E+02  0.00000000000E+00 0.  1.
</event>
<event>
 7    1  0.5642630E-013  0.5052887E+02  0.7816164E-02  0.1300439E+00
        -11   -1    0    0    0    0  0.00000000000E+00  0.00000000000E+00  0.45593999997E+02  0.45594000000E+02  0.51100000000E-03 0.  1.
         11   -1    0    0    0    0 -0.00000000000E+00 -0.00000000000E+00 -0.45593999997E+02  0.45594000000E+02  0.51100000000E-03 0. -1.
    9900012    2    1    2    0    0 -0.19382723652E+02  0.35677594578E+02  0.21411036468E+01  0.50528867497E+02  0.30000023244E+02 0.  0.
         12    1    1    2    0    0  0.19382723652E+02 -0.35677594578E+02 -0.21411036468E+01  0.40659132503E+02  0.00000000000E+00 0. -1.
         11    1    3    3    0    0 -0.15921524299E+01  0.32172203830E+01  0.31347710947E+01  0.47657367143E+01  0.51100000000E-03 0. -1.
        -11    1    3    3    0    0 -0.22006855308E+02  0.12514300521E+02  0.50568465453E+00  0.25321238424E+02  0.51100000000E-03 0.  1.
         12    1    3    3    0    0  0.42162840857E+01  0.19946073674E+02 -0.14993521024E+01  0.20441892359E+02  0.00000000000E+00 0. -1.
</event>
<event>
 7    1  0.5642630E-013  0.5052893E+02  0.7816164E-02  0.1300439E+00
        -11   -1    0    0    0    0  0.00000000000E+00  0.00000000000E+00  0.45593999997E+02  0.45594000000E+02  0.51100000000E-03 0.  1.
         11   -1    0    0    0    0 -0.00000000000E+00 -0.00000000000E+00 -0.45593999997E+02  0.45594000000E+02  0.51100000000E-03 0. -1.
    9900012    2    1    2    0    0  0.70054013454E+01 -0.38750579536E+02 -0.10123079430E+02  0.50528932136E+02  0.30000219720E+02 0.  0.
         12    1    1    2    0    0 -0.70054013454E+01  0.38750579536E+02  0.10123079430E+02  0.40659067864E+02  0.00000000000E+00 0. -1.
         11    1    3    3    0    0  0.36553275618E+01  0.20832305691E+01  0.21069020701E+01  0.47053486356E+01  0.51100000000E-03 0. -1.
        -11    1    3    3    0    0  0.51330351087E+01 -0.23746549478E+01 -0.13320686653E+01  0.58104597700E+01  0.51100000000E-03 0.  1.
        -12    1    3    3    0    0 -0.17829613251E+01 -0.38459155158E+02 -0.10897912835E+02  0.40013123731E+02  0.00000000000E+00 0.  1.
</event>
<event>
 7    1  0.5642630E-013  0.5052886E+02  0.7816164E-02  0.1300439E+00
        -11   -1    0    0    0    0  0.00000000000E+00  0.00000000000E+00  0.45593999997E+02  0.45594000000E+02  0.51100000000E-03 0.  1.
         11   -1    0    0    0    0 -0.00000000000E+00 -0.00000000000E+00 -0.45593999997E+02  0.45594000000E+02  0.51100000000E-03 0. -1.
    9900012    2    1    2    0    0 -0.33579179171E+02  0.14591992381E+02  0.17682706964E+02  0.50528860302E+02  0.30000001373E+02 0.  0.
         12    1    1    2    0    0  0.33579179171E+02 -0.14591992381E+02 -0.17682706964E+02  0.40659139698E+02  0.00000000000E+00 0. -1.
         11    1    3    3    0    0 -0.88439982518E+01  0.44902403472E+01 -0.22725957753E+01  0.10175620633E+02  0.51100000000E-03 0. -1.
        -11    1    3    3    0    0 -0.27837359537E+02  0.74124441416E+01  0.21521728987E+02  0.35958972914E+02  0.51100000000E-03 0.  1.
         12    1    3    3    0    0  0.31021786182E+01  0.26893078921E+01 -0.15664262478E+01  0.43942667543E+01  0.00000000000E+00 0. -1.
</event>
<event>
 7    1  0.5642630E-013  0.5052886E+02  0.7816164E-02  0.1300439E+00
        -11   -1    0    0    0    0  0.00000000000E+00  0.00000000000E+00  0.45593999997E+02  0.45594000000E+02  0.51100000000E-03 0. -1.
         11   -1    0    0    0    0 -0.00000000000E+00 -0.00000000000E+00 -0.45593999997E+02  0.45594000000E+02  0.51100000000E-03 0.  1.
    9900012    2    1    2    0    0 -0.25277169309E+02 -0.13661247085E+00 -0.31846694048E+02  0.50528857449E+02  0.29999992702E+02 0.  0.
         12    1    1    2    0    0  0.25277169309E+02  0.13661247085E+00  0.31846694048E+02  0.40659142551E+02  0.00000000000E+00 0. -1.
         11    1    3    3    0    0 -0.48518041595E+01 -0.37987979218E+01  0.82017878814E+00  0.62163946753E+01  0.51100000000E-03 0. -1.
        -11    1    3    3    0    0 -0.14387465131E+02 -0.63403982977E+01 -0.95097783104E+01  0.18374865639E+02  0.51100000000E-03 0.  1.
         12    1    3    3    0    0 -0.60379000185E+01  0.10002583749E+02 -0.23157094525E+02  0.25937597135E+02  0.00000000000E+00 0. -1.
</event>
<event>
 7    1  0.5642630E-013  0.5052885E+02  0.7816164E-02  0.1300439E+00
        -11   -1    0    0    0    0  0.00000000000E+00  0.00000000000E+00  0.45593999997E+02  0.45594000000E+02  0.51100000000E-03 0. -1.
         11   -1    0    0    0    0 -0.00000000000E+00 -0.00000000000E+00 -0.45593999997E+02  0.45594000000E+02  0.51100000000E-03 0.  1.
    9900012    2    1    2    0    0 -0.15559189087E+02 -0.32080314264E+02 -0.19543062118E+02  0.50528853363E+02  0.29999980281E+02 0.  0.
         12    1    1    2    0    0  0.15559189087E+02  0.32080314264E+02  0.19543062118E+02  0.40659146637E+02  0.00000000000E+00 0. -1.
         11    1    3    3    0    0 -0.10753937670E+02 -0.16475180468E+02 -0.11815689587E+00  0.19674671743E+02  0.51100000000E-03 0. -1.
        -11    1    3    3    0    0 -0.10658401186E+02 -0.12507196528E+02 -0.96793944324E+01  0.19071501191E+02  0.51100000000E-03 0.  1.
        -12    1    3    3    0    0  0.58531497692E+01 -0.30979372681E+01 -0.97455107899E+01  0.11782680429E+02  0.00000000000E+00 0.  1.
</event>
<event>
 7    1  0.5642630E-013  0.5052886E+02  0.7816164E-02  0.1300439E+00
        -11   -1    0    0    0    0  0.00000000000E+00  0.00000000000E+00  0.45593999997E+02  0.45594000000E+02  0.51100000000E-03 0.  1.
         11   -1    0    0    0    0 -0.00000000000E+00 -0.00000000000E+00 -0.45593999997E+02  0.45594000000E+02  0.51100000000E-03 0. -1.
    9900012    2    1    2    0    0  0.88964932007E+01 -0.15954471217E+02  0.36324550459E+02  0.50528859464E+02  0.29999998827E+02 0.  0.
         12    1    1    2    0    0 -0.88964932007E+01  0.15954471217E+02 -0.36324550459E+02  0.40659140536E+02  0.00000000000E+00 0. -1.
         11    1    3    3    0    0  0.13445423228E+01  0.41546281316E+01 -0.38954687568E-01  0.43669493584E+01  0.51100000000E-03 0. -1.
        -11    1    3    3    0    0  0.61694308861E+01  0.18426456091E+01  0.79937235913E+01  0.10264347881E+02  0.51100000000E-03 0.  1.
        -12    1    3    3    0    0  0.13825199918E+01 -0.21951744957E+02  0.28369781555E+02  0.35897562225E+02  0.00000000000E+00 0.  1.
</event>
<event>
 7    1  0.5642630E-013  0.5052880E+02  0.7816164E-02  0.1300439E+00
        -11   -1    0    0    0    0  0.00000000000E+00  0.00000000000E+00  0.45593999997E+02  0.45594000000E+02  0.51100000000E-03 0.  1.
         11   -1    0    0    0    0 -0.00000000000E+00 -0.00000000000E+00 -0.45593999997E+02  0.45594000000E+02  0.51100000000E-03 0. -1.
    9900012    2    1    2    0    0 -0.13552222341E+02  0.14638656014E+02  0.35429049330E+02  0.50528800344E+02  0.29999819125E+02 0.  0.
         12    1    1    2    0    0  0.13552222341E+02 -0.14638656014E+02 -0.35429049330E+02  0.40659199656E+02  0.00000000000E+00 0. -1.
         11    1    3    3    0    0 -0.78136888418E+01  0.15856844389E+02  0.11934522680E+02  0.21328996206E+02  0.51100000000E-03 0. -1.
        -11    1    3    3    0    0 -0.63969843373E+01  0.28820675195E+01  0.19829914036E+01  0.72910888739E+01  0.51100000000E-03 0.  1.
        -12    1    3    3    0    0  0.65845083839E+00 -0.41002558939E+01  0.21511535245E+02  0.21908715264E+02  0.00000000000E+00 0.  1.
</event>
<event>
 7    1  0.5642630E-013  0.5052886E+02  0.7816164E-02  0.1300439E+00
        -11   -1    0    0    0    0  0.00000000000E+00  0.00000000000E+00  0.45593999997E+02  0.45594000000E+02  0.51100000000E-03 0.  1.
         11   -1    0    0    0    0 -0.00000000000E+00 -0.00000000000E+00 -0.45593999997E+02  0.45594000000E+02  0.51100000000E-03 0. -1.
    9900012    2    1    2    0    0  0.30903350256E+01 -0.22652381856E+02  0.33622685251E+02  0.50528861571E+02  0.30000005230E+02 0.  0.
         12    1    1    2    0    0 -0.30903350256E+01  0.22652381856E+02 -0.33622685251E+02  0.40659138429E+02  0.00000000000E+00 0. -1.
         11    1    3    3    0    0  0.90662909280E+01 -0.15657111161E+02  0.17947084562E+02  0.25484124581E+02  0.51100000000E-03 0. -1.
        -11    1    3    3    0    0  0.25012528732E+01 -0.89948852346E+01  0.32810629398E+01  0.98959385909E+01  0.51100000000E-03 0.  1.
         12    1    3    3    0    0 -0.84772087757E+01  0.19996145391E+01  0.12394537749E+02  0.15148798399E+02  0.00000000000E+00 0. -1.
</event>
<event>
 7    1  0.5642630E-013  0.5052886E+02  0.7816164E-02  0.1300439E+00
        -11   -1    0    0    0    0  0.00000000000E+00  0.00000000000E+00  0.45593999997E+02  0.45594000000E+02  0.51100000000E-03 0.  1.
         11   -1    0    0    0    0 -0.00000000000E+00 -0.00000000000E+00 -0.45593999997E+02  0.45594000000E+02  0.51100000000E-03 0. -1.
    9900012    2    1    2    0    0  0.55887387771E+01  0.31394304072E+01  0.40150662794E+02  0.50528858996E+02  0.29999997404E+02 0.  0.
         12    1    1    2    0    0 -0.55887387771E+01 -0.31394304072E+01 -0.40150662794E+02  0.40659141004E+02  0.00000000000E+00 0. -1.
         11    1    3    3    0    0  0.74697226900E+00  0.30995965966E-01  0.19028698485E+02  0.19043379285E+02  0.51100000000E-03 0.  1.
        -11    1    3    3    0    0 -0.25639409705E+01  0.83470948224E+01  0.20628825310E+02  0.22400808450E+02  0.51100000000E-03 0. -1.
         12    1    3    3    0    0  0.74057074785E+01 -0.52386603812E+01  0.49313899906E+00  0.90846712610E+01  0.00000000000E+00 0. -1.
</event>
<event>
 7    1  0.5642630E-013  0.5052885E+02  0.7816164E-02  0.1300439E+00
        -11   -1    0    0    0    0  0.00000000000E+00  0.00000000000E+00  0.45593999997E+02  0.45594000000E+02  0.51100000000E-03 0.  1.
         11   -1    0    0    0    0 -0.00000000000E+00 -0.00000000000E+00 -0.45593999997E+02  0.45594000000E+02  0.51100000000E-03 0. -1.
    9900012    2    1    2    0    0 -0.83097893790E+01  0.35739932938E+02  0.17514891068E+02  0.50528845864E+02  0.29999957487E+02 0.  0.
         12    1    1    2    0    0  0.83097893790E+01 -0.35739932938E+02 -0.17514891068E+02  0.40659154136E+02  0.00000000000E+00 0. -1.
         11    1    3    3    0    0 -0.92045915599E-01  0.20995560085E+02  0.12570089790E+02  0.24470986357E+02  0.51100000000E-03 0. -1.
        -11    1    3    3    0    0 -0.33501013318E+01  0.18872658077E+02  0.31232088817E+01  0.19420474655E+02  0.51100000000E-03 0.  1.
         12    1    3    3    0    0 -0.48676421317E+01 -0.41282852237E+01  0.18215923965E+01  0.66373848517E+01  0.00000000000E+00 0. -1.
</event>
<event>
 7    1  0.5642630E-013  0.5052884E+02  0.7816164E-02  0.1300439E+00
        -11   -1    0    0    0    0  0.00000000000E+00  0.00000000000E+00  0.45593999997E+02  0.45594000000E+02  0.51100000000E-03 0.  1.
         11   -1    0    0    0    0 -0.00000000000E+00 -0.00000000000E+00 -0.45593999997E+02  0.45594000000E+02  0.51100000000E-03 0. -1.
    9900012    2    1    2    0    0  0.27428021356E+02 -0.65954957882E+01  0.29280880715E+02  0.50528844873E+02  0.29999954476E+02 0.  0.
         12    1    1    2    0    0 -0.27428021356E+02  0.65954957882E+01 -0.29280880715E+02  0.40659155127E+02  0.00000000000E+00 0. -1.
         11    1    3    3    0    0  0.13226405239E+02  0.69665312746E+01  0.43595062542E+01  0.15571629606E+02  0.51100000000E-03 0. -1.
        -11    1    3    3    0    0  0.14130049922E+02 -0.36641942966E+01  0.14183010346E+02  0.20352946061E+02  0.51100000000E-03 0.  1.
         12    1    3    3    0    0  0.71566195984E-01 -0.98978327662E+01  0.10738364115E+02  0.14604269206E+02  0.00000000000E+00 0. -1.
</event>
<event>
 7    1  0.5642630E-013  0.5052885E+02  0.7816164E-02  0.1300439E+00
        -11   -1    0    0    0    0  0.00000000000E+00  0.00000000000E+00  0.45593999997E+02  0.45594000000E+02  0.51100000000E-03 0.  1.
         11   -1    0    0    0    0 -0.00000000000E+00 -0.00000000000E+00 -0.45593999997E+02  0.45594000000E+02  0.51100000000E-03 0. -1.
    9900012    2    1    2    0    0 -0.57877975327E+01  0.42438548182E+01  0.40020711350E+02  0.50528852924E+02  0.29999978946E+02 0.  0.
         12    1    1    2    0    0  0.57877975327E+01 -0.42438548182E+01 -0.40020711350E+02  0.40659147076E+02  0.00000000000E+00 0. -1.
         11    1    3    3    0    0  0.21630060972E+01  0.12175604176E+02  0.24993606239E+02  0.27885556934E+02  0.51100000000E-03 0. -1.
        -11    1    3    3    0    0 -0.15791664162E+01  0.35044583421E+01  0.35921898981E+01  0.52610667518E+01  0.51100000000E-03 0.  1.
         12    1    3    3    0    0 -0.63716372137E+01 -0.11436207700E+02  0.11434915214E+02  0.17382229238E+02  0.00000000000E+00 0. -1.
</event>
<event>
 7    1  0.5642630E-013  0.5052886E+02  0.7816164E-02  0.1300439E+00
        -11   -1    0    0    0    0  0.00000000000E+00  0.00000000000E+00  0.45593999997E+02  0.45594000000E+02  0.51100000000E-03 0. -1.
         11   -1    0    0    0    0 -0.00000000000E+00 -0.00000000000E+00 -0.45593999997E+02  0.45594000000E+02  0.51100000000E-03 0.  1.
    9900012    2    1    2    0    0  0.25749369846E+02 -0.30545399476E+02 -0.75574061341E+01  0.50528857558E+02  0.29999993034E+02 0.  0.
         12    1    1    2    0    0 -0.25749369846E+02  0.30545399476E+02  0.75574061341E+01  0.40659142442E+02  0.00000000000E+00 0. -1.
         11    1    3    3    0    0  0.11091569217E+00  0.17110345500E+01 -0.13967248141E+01  0.22115112457E+01  0.51100000000E-03 0. -1.
        -11    1    3    3    0    0 -0.17788563605E+01 -0.43411111667E+01 -0.78590633832E+01  0.91528385561E+01  0.51100000000E-03 0.  1.
        -12    1    3    3    0    0  0.27417310514E+02 -0.27915322860E+02  0.16983820632E+01  0.39164507757E+02  0.00000000000E+00 0.  1.
</event>
<event>
 7    1  0.5642630E-013  0.5052885E+02  0.7816164E-02  0.1300439E+00
        -11   -1    0    0    0    0  0.00000000000E+00  0.00000000000E+00  0.45593999997E+02  0.45594000000E+02  0.51100000000E-03 0. -1.
         11   -1    0    0    0    0 -0.00000000000E+00 -0.00000000000E+00 -0.45593999997E+02  0.45594000000E+02  0.51100000000E-03 0.  1.
    9900012    2    1    2    0    0  0.32525948213E+02 -0.23883284779E+02 -0.49817481160E+01  0.50528850805E+02  0.29999972507E+02 0.  0.
         12    1    1    2    0    0 -0.32525948213E+02  0.23883284779E+02  0.49817481160E+01  0.40659149195E+02  0.00000000000E+00 0. -1.
         11    1    3    3    0    0  0.79814765203E+01 -0.14991077239E+02  0.27874313124E+01  0.17210640250E+02  0.51100000000E-03 0. -1.
        -11    1    3    3    0    0  0.51298395100E+01 -0.11689057561E+02 -0.24986321589E+01  0.13007401085E+02  0.51100000000E-03 0.  1.
        -12    1    3    3    0    0  0.19414632182E+02  0.27968500211E+01 -0.52705472694E+01  0.20310809470E+02  0.00000000000E+00 0.  1.
</event>
<event>
 7    1  0.5642630E-013  0.5052886E+02  0.7816164E-02  0.1300439E+00
        -11   -1    0    0    0    0  0.00000000000E+00  0.00000000000E+00  0.45593999997E+02  0.45594000000E+02  0.51100000000E-03 0.  1.
         11   -1    0    0    0    0 -0.00000000000E+00 -0.00000000000E+00 -0.45593999997E+02  0.45594000000E+02  0.51100000000E-03 0. -1.
    9900012    2    1    2    0    0 -0.19228240411E+02 -0.13185823364E+02  0.33310270933E+02  0.50528864290E+02  0.30000013495E+02 0.  0.
         12    1    1    2    0    0  0.19228240411E+02  0.13185823364E+02 -0.33310270933E+02  0.40659135710E+02  0.00000000000E+00 0. -1.
         11    1    3    3    0    0 -0.31309778070E+01  0.47834582608E+01  0.32285129176E+01  0.65656523576E+01  0.51100000000E-03 0. -1.
        -11    1    3    3    0    0 -0.10578122428E+02  0.99016082949E+00  0.42365471490E+01  0.11437894237E+02  0.51100000000E-03 0.  1.
        -12    1    3    3    0    0 -0.55191401763E+01 -0.18959442454E+02  0.25845210866E+02  0.32525317695E+02  0.00000000000E+00 0.  1.
</event>
<event>
 7    1  0.5642630E-013  0.5052886E+02  0.7816164E-02  0.1300439E+00
        -11   -1    0    0    0    0  0.00000000000E+00  0.00000000000E+00  0.45593999997E+02  0.45594000000E+02  0.51100000000E-03 0.  1.
         11   -1    0    0    0    0 -0.00000000000E+00 -0.00000000000E+00 -0.45593999997E+02  0.45594000000E+02  0.51100000000E-03 0. -1.
    9900012    2    1    2    0    0 -0.31737041397E+01 -0.19627889510E+01  0.40487536298E+02  0.50528861619E+02  0.30000005376E+02 0.  0.
         12    1    1    2    0    0  0.31737041397E+01  0.19627889510E+01 -0.40487536298E+02  0.40659138381E+02  0.00000000000E+00 0. -1.
         11    1    3    3    0    0  0.84920344402E+01 -0.21467804554E+01  0.36493120340E+01  0.94889827611E+01  0.51100000000E-03 0. -1.
        -11    1    3    3    0    0 -0.50337793071E+01 -0.10141343404E+01  0.19277456893E+01  0.54848524389E+01  0.51100000000E-03 0.  1.
        -12    1    3    3    0    0 -0.66319592728E+01  0.11981258449E+01  0.34910478575E+02  0.35555026419E+02  0.00000000000E+00 0.  1.
</event>
<event>
 7    1  0.5642630E-013  0.5052885E+02  0.7816164E-02  0.1300439E+00
        -11   -1    0    0    0    0  0.00000000000E+00  0.00000000000E+00  0.45593999997E+02  0.45594000000E+02  0.51100000000E-03 0.  1.
         11   -1    0    0    0    0 -0.00000000000E+00 -0.00000000000E+00 -0.45593999997E+02  0.45594000000E+02  0.51100000000E-03 0. -1.
    9900012    2    1    2    0    0  0.40056254499E+02 -0.44574052512E+01  0.53660516069E+01  0.50528849789E+02  0.29999969417E+02 0.  0.
         12    1    1    2    0    0 -0.40056254499E+02  0.44574052512E+01 -0.53660516069E+01  0.40659150211E+02  0.00000000000E+00 0. -1.
         11    1    3    3    0    0  0.32417571441E+02 -0.57984768321E+01  0.11323605644E+02  0.34824493058E+02  0.51100000000E-03 0.  1.
        -11    1    3    3    0    0  0.50143029061E+01 -0.51390446756E+01 -0.47511264396E+01  0.86096583276E+01  0.51100000000E-03 0. -1.
        -12    1    3    3    0    0  0.26243801525E+01  0.64801162565E+01 -0.12064275980E+01  0.70946984032E+01  0.00000000000E+00 0.  1.
</event>
<event>
 7    1  0.5642630E-013  0.5052886E+02  0.7816164E-02  0.1300439E+00
        -11   -1    0    0    0    0  0.00000000000E+00  0.00000000000E+00  0.45593999997E+02  0.45594000000E+02  0.51100000000E-03 0.  1.
         11   -1    0    0    0    0 -0.00000000000E+00 -0.00000000000E+00 -0.45593999997E+02  0.45594000000E+02  0.51100000000E-03 0. -1.
    9900012    2    1    2    0    0 -0.11493700041E+02  0.26909887200E+02  0.28229742338E+02  0.50528861762E+02  0.30000005813E+02 0.  0.
         12    1    1    2    0    0  0.11493700041E+02 -0.26909887200E+02 -0.28229742338E+02  0.40659138238E+02  0.00000000000E+00 0. -1.
         11    1    3    3    0    0  0.46409860783E+01  0.49068673564E+01  0.49196292338E+01  0.83557675346E+01  0.51100000000E-03 0. -1.
        -11    1    3    3    0    0  0.24774101123E+00  0.17317373819E+02  0.16183143939E+02  0.23703311152E+02  0.51100000000E-03 0.  1.
         12    1    3    3    0    0 -0.16382427131E+02  0.46856460251E+01  0.71269691658E+01  0.18469783075E+02  0.00000000000E+00 0. -1.
</event>
<event>
 7    1  0.5642630E-013  0.5052885E+02  0.7816164E-02  0.1300439E+00
        -11   -1    0    0    0    0  0.00000000000E+00  0.00000000000E+00  0.45593999997E+02  0.45594000000E+02  0.51100000000E-03 0.  1.
         11   -1    0    0    0    0 -0.00000000000E+00 -0.00000000000E+00 -0.45593999997E+02  0.45594000000E+02  0.51100000000E-03 0. -1.
    9900012    2    1    2    0    0  0.54345752592E+01 -0.83335607090E+01  0.39423132272E+02  0.50528853422E+02  0.29999980462E+02 0.  0.
         12    1    1    2    0    0 -0.54345752592E+01  0.83335607090E+01 -0.39423132272E+02  0.40659146578E+02  0.00000000000E+00 0. -1.
         11    1    3    3    0    0 -0.64627499507E+01 -0.50011426794E+01  0.22665226421E+02  0.24093381954E+02  0.51100000000E-03 0. -1.
        -11    1    3    3    0    0  0.92525225447E+01  0.10113729182E+01  0.18782072843E+02  0.20961829815E+02  0.51100000000E-03 0.  1.
         12    1    3    3    0    0  0.26448026651E+01 -0.43437909478E+01 -0.20241669925E+01  0.54736416534E+01  0.00000000000E+00 0. -1.
</event>
<event>
 7    1  0.5642630E-013  0.5052886E+02  0.7816164E-02  0.1300439E+00
        -11   -1    0    0    0    0  0.00000000000E+00  0.00000000000E+00  0.45593999997E+02  0.45594000000E+02  0.51100000000E-03 0.  1.
         11   -1    0    0    0    0 -0.00000000000E+00 -0.00000000000E+00 -0.45593999997E+02  0.45594000000E+02  0.51100000000E-03 0. -1.
    9900012    2    1    2    0    0 -0.12067438134E+02  0.16843158374E+02  0.34983575480E+02  0.50528860800E+02  0.30000002887E+02 0.  0.
         12    1    1    2    0    0  0.12067438134E+02 -0.16843158374E+02 -0.34983575480E+02  0.40659139200E+02  0.00000000000E+00 0. -1.
         11    1    3    3    0    0  0.23767485221E+00 -0.36729117445E+01  0.62546765525E+00  0.37333604255E+01  0.51100000000E-03 0. -1.
        -11    1    3    3    0    0 -0.70613612026E+01 -0.29852210269E+01  0.90970186136E+01  0.11896642994E+02  0.51100000000E-03 0.  1.
        -12    1    3    3    0    0 -0.52437517832E+01  0.23501291146E+02  0.25261089211E+02  0.34898857380E+02  0.00000000000E+00 0.  1.
</event>
<event>
 7    1  0.5642630E-013  0.5052883E+02  0.7816164E-02  0.1300439E+00
        -11   -1    0    0    0    0  0.00000000000E+00  0.00000000000E+00  0.45593999997E+02  0.45594000000E+02  0.51100000000E-03 0.  1.
         11   -1    0    0    0    0 -0.00000000000E+00 -0.00000000000E+00 -0.45593999997E+02  0.45594000000E+02  0.51100000000E-03 0. -1.
    9900012    2    1    2    0    0 -0.25902368401E+02 -0.25782687904E+02  0.17818205551E+02  0.50528829652E+02  0.29999908210E+02 0.  0.
         12    1    1    2    0    0  0.25902368401E+02  0.25782687904E+02 -0.17818205551E+02  0.40659170348E+02  0.00000000000E+00 0. -1.
         11    1    3    3    0    0  0.12228790189E+01 -0.54087635670E+01  0.56514305047E+01  0.79176273864E+01  0.51100000000E-03 0. -1.
        -11    1    3    3    0    0 -0.60853058746E+00 -0.12115155269E+02  0.79910204313E+01  0.14525966559E+02  0.51100000000E-03 0.  1.
         12    1    3    3    0    0 -0.26516716833E+02 -0.82587690675E+01  0.41757546154E+01  0.28085235707E+02  0.00000000000E+00 0. -1.
</event>
<event>
 7    1  0.5642630E-013  0.5052885E+02  0.7816164E-02  0.1300439E+00
        -11   -1    0    0    0    0  0.00000000000E+00  0.00000000000E+00  0.45593999997E+02  0.45594000000E+02  0.51100000000E-03 0.  1.
         11   -1    0    0    0    0 -0.00000000000E+00 -0.00000000000E+00 -0.45593999997E+02  0.45594000000E+02  0.51100000000E-03 0. -1.
    9900012    2    1    2    0    0 -0.94974546664E+01  0.39077813780E+02  0.59907819186E+01  0.50528847980E+02  0.29999963920E+02 0.  0.
         12    1    1    2    0    0  0.94974546664E+01 -0.39077813780E+02 -0.59907819186E+01  0.40659152020E+02  0.00000000000E+00 0. -1.
         11    1    3    3    0    0 -0.12555333609E+02  0.17987769046E+02  0.90126543342E+01  0.23715483880E+02  0.51100000000E-03 0. -1.
        -11    1    3    3    0    0 -0.11995148397E+00  0.67205677507E+01  0.64469927667E+01  0.93136531632E+01  0.51100000000E-03 0.  1.
         12    1    3    3    0    0  0.31778304264E+01  0.14369476984E+02 -0.94688651822E+01  0.17499710936E+02  0.00000000000E+00 0. -1.
</event>
<event>
 7    1  0.5642630E-013  0.5052887E+02  0.7816164E-02  0.1300439E+00
        -11   -1    0    0    0    0  0.00000000000E+00  0.00000000000E+00  0.45593999997E+02  0.45594000000E+02  0.51100000000E-03 0.  1.
         11   -1    0    0    0    0 -0.00000000000E+00 -0.00000000000E+00 -0.45593999997E+02  0.45594000000E+02  0.51100000000E-03 0. -1.
    9900012    2    1    2    0    0  0.68117043381E+01  0.34627746231E+02  0.20191198115E+02  0.50528873025E+02  0.30000040047E+02 0.  0.
         12    1    1    2    0    0 -0.68117043381E+01 -0.34627746231E+02 -0.20191198115E+02  0.40659126975E+02  0.00000000000E+00 0. -1.
         11    1    3    3    0    0  0.77429919335E+00  0.30035237159E+02  0.67641167410E+01  0.30797212308E+02  0.51100000000E-03 0. -1.
        -11    1    3    3    0    0  0.54338730804E+01  0.83341434177E+01  0.12211766778E+02  0.15751576786E+02  0.51100000000E-03 0.  1.
        -12    1    3    3    0    0  0.60353206439E+00 -0.37416343452E+01  0.12153145965E+01  0.39800839305E+01  0.00000000000E+00 0.  1.
</event>
<event>
 7    1  0.5642630E-013  0.5052886E+02  0.7816164E-02  0.1300439E+00
        -11   -1    0    0    0    0  0.00000000000E+00  0.00000000000E+00  0.45593999997E+02  0.45594000000E+02  0.51100000000E-03 0.  1.
         11   -1    0    0    0    0 -0.00000000000E+00 -0.00000000000E+00 -0.45593999997E+02  0.45594000000E+02  0.51100000000E-03 0. -1.
    9900012    2    1    2    0    0 -0.99189146417E+01  0.38132647566E+02  0.10034042999E+02  0.50528859614E+02  0.29999999283E+02 0.  0.
         12    1    1    2    0    0  0.99189146417E+01 -0.38132647566E+02 -0.10034042999E+02  0.40659140386E+02  0.00000000000E+00 0. -1.
         11    1    3    3    0    0  0.11707528198E+01 -0.11192952094E+01  0.20311034682E+01  0.25978578657E+01  0.51100000000E-03 0. -1.
        -11    1    3    3    0    0 -0.10758261394E+02  0.71495733856E+01  0.91120251658E+01  0.15807769947E+02  0.51100000000E-03 0.  1.
        -12    1    3    3    0    0 -0.33140606697E+00  0.32102369389E+02 -0.11090856355E+01  0.32123231801E+02  0.00000000000E+00 0.  1.
</event>
<event>
 7    1  0.5642630E-013  0.5052885E+02  0.7816164E-02  0.1300439E+00
        -11   -1    0    0    0    0  0.00000000000E+00  0.00000000000E+00  0.45593999997E+02  0.45594000000E+02  0.51100000000E-03 0.  1.
         11   -1    0    0    0    0 -0.00000000000E+00 -0.00000000000E+00 -0.45593999997E+02  0.45594000000E+02  0.51100000000E-03 0. -1.
    9900012    2    1    2    0    0 -0.93163224550E+01 -0.15331562229E+02  0.36487200437E+02  0.50528850228E+02  0.29999970753E+02 0.  0.
         12    1    1    2    0    0  0.93163224550E+01  0.15331562229E+02 -0.36487200437E+02  0.40659149772E+02  0.00000000000E+00 0. -1.
         11    1    3    3    0    0 -0.92829109039E+01 -0.45285857154E-01  0.17791273153E+02  0.20067483308E+02  0.51100000000E-03 0. -1.
        -11    1    3    3    0    0 -0.57456038660E+00  0.42800468626E+01  0.47991885864E+01  0.64560926367E+01  0.51100000000E-03 0.  1.
         12    1    3    3    0    0  0.54114883554E+00 -0.19566323235E+02  0.13896738697E+02  0.24005274283E+02  0.00000000000E+00 0. -1.
</event>
<event>
 7    1  0.5642630E-013  0.5052886E+02  0.7816164E-02  0.1300439E+00
        -11   -1    0    0    0    0  0.00000000000E+00  0.00000000000E+00  0.45593999997E+02  0.45594000000E+02  0.51100000000E-03 0.  1.
         11   -1    0    0    0    0 -0.00000000000E+00 -0.00000000000E+00 -0.45593999997E+02  0.45594000000E+02  0.51100000000E-03 0. -1.
    9900012    2    1    2    0    0  0.34142654416E+01 -0.26723823722E+02  0.30452354721E+02  0.50528857474E+02  0.29999992779E+02 0.  0.
         12    1    1    2    0    0 -0.34142654416E+01  0.26723823722E+02 -0.30452354721E+02  0.40659142526E+02  0.00000000000E+00 0. -1.
         11    1    3    3    0    0 -0.36109427049E+01 -0.12653118051E+02  0.37771731833E+00  0.13163699110E+02  0.51100000000E-03 0. -1.
        -11    1    3    3    0    0  0.29387901316E+01 -0.21978082338E+00 -0.98924543393E+00  0.31086006237E+01  0.51100000000E-03 0.  1.
        -12    1    3    3    0    0  0.40864180148E+01 -0.13850924848E+02  0.31063882837E+02  0.34256557741E+02  0.00000000000E+00 0.  1.
</event>
<event>
 7    1  0.5642630E-013  0.5052885E+02  0.7816164E-02  0.1300439E+00
        -11   -1    0    0    0    0  0.00000000000E+00  0.00000000000E+00  0.45593999997E+02  0.45594000000E+02  0.51100000000E-03 0.  1.
         11   -1    0    0    0    0 -0.00000000000E+00 -0.00000000000E+00 -0.45593999997E+02  0.45594000000E+02  0.51100000000E-03 0. -1.
    9900012    2    1    2    0    0 -0.15780682120E+02  0.86168774634E+01  0.36467596498E+02  0.50528854661E+02  0.29999984227E+02 0.  0.
         12    1    1    2    0    0  0.15780682120E+02 -0.86168774634E+01 -0.36467596498E+02  0.40659145339E+02  0.00000000000E+00 0. -1.
         11    1    3    3    0    0 -0.50674910618E+01 -0.23490076336E+00 -0.21390868204E+00  0.50774404197E+01  0.51100000000E-03 0. -1.
        -11    1    3    3    0    0 -0.17164962264E+01  0.63447705719E+01 -0.98326324699E+00  0.66459972750E+01  0.51100000000E-03 0.  1.
        -12    1    3    3    0    0 -0.89966948321E+01  0.25070076549E+01  0.37664768427E+02  0.38805416966E+02  0.00000000000E+00 0.  1.
</event>
<event>
 7    1  0.5642630E-013  0.5052882E+02  0.7816164E-02  0.1300439E+00
        -11   -1    0    0    0    0  0.00000000000E+00  0.00000000000E+00  0.45593999997E+02  0.45594000000E+02  0.51100000000E-03 0. -1.
         11   -1    0    0    0    0 -0.00000000000E+00 -0.00000000000E+00 -0.45593999997E+02  0.45594000000E+02  0.51100000000E-03 0.  1.
    9900012    2    1    2    0    0  0.25278344115E+02 -0.28287845598E+02  0.14627791874E+02  0.50528816721E+02  0.29999868906E+02 0.  0.
         12    1    1    2    0    0 -0.25278344115E+02  0.28287845598E+02 -0.14627791874E+02  0.40659183279E+02  0.00000000000E+00 0. -1.
         11    1    3    3    0    0 -0.19418031926E+01 -0.35866880062E+01  0.12688913404E+00  0.40805675594E+01  0.51100000000E-03 0. -1.
        -11    1    3    3    0    0  0.10387755137E+02 -0.15021755977E+02 -0.49932356390E+01  0.18933858873E+02  0.51100000000E-03 0.  1.
         12    1    3    3    0    0  0.16832392171E+02 -0.96794016144E+01  0.19494138379E+02  0.27514390289E+02  0.00000000000E+00 0. -1.
</event>
<event>
 7    1  0.5642630E-013  0.5052886E+02  0.7816164E-02  0.1300439E+00
        -11   -1    0    0    0    0  0.00000000000E+00  0.00000000000E+00  0.45593999997E+02  0.45594000000E+02  0.51100000000E-03 0.  1.
         11   -1    0    0    0    0 -0.00000000000E+00 -0.00000000000E+00 -0.45593999997E+02  0.45594000000E+02  0.51100000000E-03 0. -1.
    9900012    2    1    2    0    0  0.16893342404E+02 -0.15729812894E+02  0.33471682541E+02  0.50528861256E+02  0.30000004274E+02 0.  0.
         12    1    1    2    0    0 -0.16893342404E+02  0.15729812894E+02 -0.33471682541E+02  0.40659138744E+02  0.00000000000E+00 0. -1.
         11    1    3    3    0    0  0.78626659449E+00 -0.11265362112E+02  0.75107574766E+01  0.13562377255E+02  0.51100000000E-03 0. -1.
        -11    1    3    3    0    0  0.94777858125E+01 -0.12589803863E+02  0.16905200249E+02  0.23110979662E+02  0.51100000000E-03 0.  1.
         12    1    3    3    0    0  0.66292899968E+01  0.81253530812E+01  0.90557248157E+01  0.13855504339E+02  0.00000000000E+00 0. -1.
</event>
<event>
 7    1  0.5642630E-013  0.5052886E+02  0.7816164E-02  0.1300439E+00
        -11   -1    0    0    0    0  0.00000000000E+00  0.00000000000E+00  0.45593999997E+02  0.45594000000E+02  0.51100000000E-03 0.  1.
         11   -1    0    0    0    0 -0.00000000000E+00 -0.00000000000E+00 -0.45593999997E+02  0.45594000000E+02  0.51100000000E-03 0. -1.
    9900012    2    1    2    0    0  0.53548855793E+01  0.38679072129E+02 -0.11332282240E+02  0.50528855382E+02  0.29999986419E+02 0.  0.
         12    1    1    2    0    0 -0.53548855793E+01 -0.38679072129E+02  0.11332282240E+02  0.40659144618E+02  0.00000000000E+00 0. -1.
         11    1    3    3    0    0 -0.34729314594E+01 -0.15969014845E+01  0.21883905362E+01  0.44045885929E+01  0.51100000000E-03 0. -1.
        -11    1    3    3    0    0 -0.22893270359E+01  0.27950781249E+00 -0.19735711746E+01  0.30354779421E+01  0.51100000000E-03 0.  1.
         12    1    3    3    0    0  0.11117144075E+02  0.39996465801E+02 -0.11547101601E+02  0.43088788847E+02  0.00000000000E+00 0. -1.
</event>
<event>
 7    1  0.5642630E-013  0.5052886E+02  0.7816164E-02  0.1300439E+00
        -11   -1    0    0    0    0  0.00000000000E+00  0.00000000000E+00  0.45593999997E+02  0.45594000000E+02  0.51100000000E-03 0.  1.
         11   -1    0    0    0    0 -0.00000000000E+00 -0.00000000000E+00 -0.45593999997E+02  0.45594000000E+02  0.51100000000E-03 0. -1.
    9900012    2    1    2    0    0  0.28627096196E+02  0.23206968334E+02  0.17178234434E+02  0.50528858910E+02  0.29999997144E+02 0.  0.
         12    1    1    2    0    0 -0.28627096196E+02 -0.23206968334E+02 -0.17178234434E+02  0.40659141090E+02  0.00000000000E+00 0. -1.
         11    1    3    3    0    0  0.14741209387E+02  0.16471357316E+02  0.12761450411E+01  0.22141305572E+02  0.51100000000E-03 0. -1.
        -11    1    3    3    0    0  0.54738713919E+01  0.79049401062E+01 -0.80184243266E+00  0.96485386274E+01  0.51100000000E-03 0.  1.
         12    1    3    3    0    0  0.84120154175E+01 -0.11693290884E+01  0.16703931825E+02  0.18739014711E+02  0.00000000000E+00 0. -1.
</event>
<event>
 7    1  0.5642630E-013  0.5052887E+02  0.7816164E-02  0.1300439E+00
        -11   -1    0    0    0    0  0.00000000000E+00  0.00000000000E+00  0.45593999997E+02  0.45594000000E+02  0.51100000000E-03 0. -1.
         11   -1    0    0    0    0 -0.00000000000E+00 -0.00000000000E+00 -0.45593999997E+02  0.45594000000E+02  0.51100000000E-03 0.  1.
    9900012    2    1    2    0    0  0.31960479109E+02 -0.25038836749E+02 -0.21793341407E+01  0.50528867349E+02  0.30000022793E+02 0.  0.
         12    1    1    2    0    0 -0.31960479109E+02  0.25038836749E+02  0.21793341407E+01  0.40659132651E+02  0.00000000000E+00 0. -1.
         11    1    3    3    0    0  0.82381502459E+00 -0.12840514585E+01 -0.58208326097E+01  0.60174373178E+01  0.51100000000E-03 0. -1.
        -11    1    3    3    0    0  0.13637721131E+02 -0.62371198300E+00 -0.45196146871E+01  0.14380659632E+02  0.51100000000E-03 0.  1.
         12    1    3    3    0    0  0.17498942954E+02 -0.23131073308E+02  0.81611131561E+01  0.30130770399E+02  0.00000000000E+00 0. -1.
</event>
<event>
 7    1  0.5642630E-013  0.5052886E+02  0.7816164E-02  0.1300439E+00
        -11   -1    0    0    0    0  0.00000000000E+00  0.00000000000E+00  0.45593999997E+02  0.45594000000E+02  0.51100000000E-03 0.  1.
         11   -1    0    0    0    0 -0.00000000000E+00 -0.00000000000E+00 -0.45593999997E+02  0.45594000000E+02  0.51100000000E-03 0. -1.
    9900012    2    1    2    0    0  0.28352400731E+02 -0.10983722302E+02  0.26993791708E+02  0.50528861130E+02  0.30000003891E+02 0.  0.
         12    1    1    2    0    0 -0.28352400731E+02  0.10983722302E+02 -0.26993791708E+02  0.40659138870E+02  0.00000000000E+00 0. -1.
         11    1    3    3    0    0  0.67986533343E+00 -0.41984000813E+01  0.12332435209E+02  0.13045218992E+02  0.51100000000E-03 0.  1.
        -11    1    3    3    0    0 -0.12606276046E+01  0.35382963120E+01  0.20164048179E+01  0.42631691732E+01  0.51100000000E-03 0. -1.
         12    1    3    3    0    0  0.28933163003E+02 -0.10323618533E+02  0.12644951682E+02  0.33220472964E+02  0.00000000000E+00 0. -1.
</event>
<event>
 7    1  0.5642630E-013  0.5052886E+02  0.7816164E-02  0.1300439E+00
        -11   -1    0    0    0    0  0.00000000000E+00  0.00000000000E+00  0.45593999997E+02  0.45594000000E+02  0.51100000000E-03 0. -1.
         11   -1    0    0    0    0 -0.00000000000E+00 -0.00000000000E+00 -0.45593999997E+02  0.45594000000E+02  0.51100000000E-03 0.  1.
    9900012    2    1    2    0    0  0.20639911230E+02  0.13744080690E+02 -0.32222045389E+02  0.50528857133E+02  0.29999991743E+02 0.  0.
         12    1    1    2    0    0 -0.20639911230E+02 -0.13744080690E+02  0.32222045389E+02  0.40659142867E+02  0.00000000000E+00 0. -1.
         11    1    3    3    0    0  0.45677516471E+01 -0.52734464117E+01 -0.14793425877E+02  0.16356009342E+02  0.51100000000E-03 0. -1.
        -11    1    3    3    0    0  0.93802178891E+01  0.21435218059E+01 -0.11677635810E+02  0.15131105437E+02  0.51100000000E-03 0.  1.
         12    1    3    3    0    0  0.66919416937E+01  0.16874005295E+02 -0.57509837028E+01  0.19041742354E+02  0.00000000000E+00 0. -1.
</event>
<event>
 7    1  0.5642630E-013  0.5052887E+02  0.7816164E-02  0.1300439E+00
        -11   -1    0    0    0    0  0.00000000000E+00  0.00000000000E+00  0.45593999997E+02  0.45594000000E+02  0.51100000000E-03 0.  1.
         11   -1    0    0    0    0 -0.00000000000E+00 -0.00000000000E+00 -0.45593999997E+02  0.45594000000E+02  0.51100000000E-03 0. -1.
    9900012    2    1    2    0    0  0.36892785152E+02 -0.10958901498E+02  0.13114498974E+02  0.50528865705E+02  0.30000017796E+02 0.  0.
         12    1    1    2    0    0 -0.36892785152E+02  0.10958901498E+02 -0.13114498974E+02  0.40659134295E+02  0.00000000000E+00 0. -1.
         11    1    3    3    0    0 -0.17457399851E+01 -0.15107563099E+01  0.10634147420E+01  0.25418190136E+01  0.51100000000E-03 0. -1.
        -11    1    3    3    0    0 -0.32838782840E+01 -0.20175279172E+01  0.62317164990E+00  0.39041796382E+01  0.51100000000E-03 0.  1.
        -12    1    3    3    0    0  0.41922403421E+02 -0.74306172710E+01  0.11427912582E+02  0.44082867053E+02  0.00000000000E+00 0.  1.
</event>
<event>
 7    1  0.5642630E-013  0.5052886E+02  0.7816164E-02  0.1300439E+00
        -11   -1    0    0    0    0  0.00000000000E+00  0.00000000000E+00  0.45593999997E+02  0.45594000000E+02  0.51100000000E-03 0. -1.
         11   -1    0    0    0    0 -0.00000000000E+00 -0.00000000000E+00 -0.45593999997E+02  0.45594000000E+02  0.51100000000E-03 0.  1.
    9900012    2    1    2    0    0 -0.34096138313E+02 -0.86292994049E+01 -0.20399866102E+02  0.50528855972E+02  0.29999988213E+02 0.  0.
         12    1    1    2    0    0  0.34096138313E+02  0.86292994049E+01  0.20399866102E+02  0.40659144028E+02  0.00000000000E+00 0. -1.
         11    1    3    3    0    0  0.94681914406E-01 -0.49091226603E+00  0.95409871399E+00  0.10771555760E+01  0.51100000000E-03 0. -1.
        -11    1    3    3    0    0 -0.33945362451E+02 -0.15318708099E+02 -0.16216197780E+02  0.40619152138E+02  0.51100000000E-03 0.  1.
        -12    1    3    3    0    0 -0.24545777694E+00  0.71803209603E+01 -0.51377670356E+01  0.88325482577E+01  0.00000000000E+00 0.  1.
</event>
<event>
 7    1  0.5642630E-013  0.5052887E+02  0.7816164E-02  0.1300439E+00
        -11   -1    0    0    0    0  0.00000000000E+00  0.00000000000E+00  0.45593999997E+02  0.45594000000E+02  0.51100000000E-03 0.  1.
         11   -1    0    0    0    0 -0.00000000000E+00 -0.00000000000E+00 -0.45593999997E+02  0.45594000000E+02  0.51100000000E-03 0. -1.
    9900012    2    1    2    0    0  0.31237111236E+02  0.70093792033E-01  0.26026956489E+02  0.50528874387E+02  0.30000044187E+02 0.  0.
         12    1    1    2    0    0 -0.31237111236E+02 -0.70093792033E-01 -0.26026956489E+02  0.40659125613E+02  0.00000000000E+00 0. -1.
         11    1    3    3    0    0  0.12420890328E+02  0.70004228035E+01  0.57778136981E+01  0.15384003620E+02  0.51100000000E-03 0. -1.
        -11    1    3    3    0    0  0.19287988538E+02  0.23020479283E+01  0.12681700132E+02  0.23198091408E+02  0.51100000000E-03 0.  1.
         12    1    3    3    0    0 -0.47176763028E+00 -0.92323769398E+01  0.75674426595E+01  0.11946779359E+02  0.00000000000E+00 0. -1.
</event>
<event>
 7    1  0.5642630E-013  0.5052887E+02  0.7816164E-02  0.1300439E+00
        -11   -1    0    0    0    0  0.00000000000E+00  0.00000000000E+00  0.45593999997E+02  0.45594000000E+02  0.51100000000E-03 0.  1.
         11   -1    0    0    0    0 -0.00000000000E+00 -0.00000000000E+00 -0.45593999997E+02  0.45594000000E+02  0.51100000000E-03 0. -1.
    9900012    2    1    2    0    0  0.19773514193E+02 -0.33033255012E+02  0.13075826928E+02  0.50528867569E+02  0.30000023462E+02 0.  0.
         12    1    1    2    0    0 -0.19773514193E+02  0.33033255012E+02 -0.13075826928E+02  0.40659132431E+02  0.00000000000E+00 0. -1.
         11    1    3    3    0    0  0.18771978942E+01 -0.17328863074E+02  0.14500460473E+02  0.22673260056E+02  0.51100000000E-03 0. -1.
        -11    1    3    3    0    0  0.29690045911E+00 -0.12143358533E+01  0.41940986941E+01  0.43764398276E+01  0.51100000000E-03 0.  1.
         12    1    3    3    0    0  0.17599415840E+02 -0.14490056084E+02 -0.56187322390E+01  0.23479167685E+02  0.00000000000E+00 0. -1.
</event>
<event>
 7    1  0.5642630E-013  0.5052887E+02  0.7816164E-02  0.1300439E+00
        -11   -1    0    0    0    0  0.00000000000E+00  0.00000000000E+00  0.45593999997E+02  0.45594000000E+02  0.51100000000E-03 0.  1.
         11   -1    0    0    0    0 -0.00000000000E+00 -0.00000000000E+00 -0.45593999997E+02  0.45594000000E+02  0.51100000000E-03 0. -1.
    9900012    2    1    2    0    0  0.22420166257E+02  0.32930209874E+02  0.81303223685E+01  0.50528871638E+02  0.30000035832E+02 0.  0.
         12    1    1    2    0    0 -0.22420166257E+02 -0.32930209874E+02 -0.81303223685E+01  0.40659128362E+02  0.00000000000E+00 0. -1.
         11    1    3    3    0    0  0.89952512807E+01  0.81777431444E+01 -0.74712789882E-01  0.12157121814E+02  0.51100000000E-03 0. -1.
        -11    1    3    3    0    0  0.16493054029E+02  0.90515806140E+01  0.11483548153E+02  0.22041411508E+02  0.51100000000E-03 0.  1.
         12    1    3    3    0    0 -0.30681390535E+01  0.15700886115E+02 -0.32785129946E+01  0.16330338316E+02  0.00000000000E+00 0. -1.
</event>
<event>
 7    1  0.5642630E-013  0.5052886E+02  0.7816164E-02  0.1300439E+00
        -11   -1    0    0    0    0  0.00000000000E+00  0.00000000000E+00  0.45593999997E+02  0.45594000000E+02  0.51100000000E-03 0.  1.
         11   -1    0    0    0    0 -0.00000000000E+00 -0.00000000000E+00 -0.45593999997E+02  0.45594000000E+02  0.51100000000E-03 0. -1.
    9900012    2    1    2    0    0  0.33151626302E+02  0.23537776143E+02 -0.32886176325E+00  0.50528863483E+02  0.30000011043E+02 0.  0.
         12    1    1    2    0    0 -0.33151626302E+02 -0.23537776143E+02  0.32886176325E+00  0.40659136517E+02  0.00000000000E+00 0. -1.
         11    1    3    3    0    0  0.11806339735E+02  0.38320845058E+01  0.35730180526E+01  0.12916694153E+02  0.51100000000E-03 0. -1.
        -11    1    3    3    0    0  0.11047238961E+02  0.14538598748E+02  0.89641427944E+01  0.20341292941E+02  0.51100000000E-03 0.  1.
         12    1    3    3    0    0  0.10298047606E+02  0.51670928898E+01 -0.12866022610E+02  0.17270876389E+02  0.00000000000E+00 0. -1.
</event>
<event>
 7    1  0.5642630E-013  0.5052888E+02  0.7816164E-02  0.1300439E+00
        -11   -1    0    0    0    0  0.00000000000E+00  0.00000000000E+00  0.45593999997E+02  0.45594000000E+02  0.51100000000E-03 0. -1.
         11   -1    0    0    0    0 -0.00000000000E+00 -0.00000000000E+00 -0.45593999997E+02  0.45594000000E+02  0.51100000000E-03 0.  1.
    9900012    2    1    2    0    0  0.32355350261E+02 -0.24346069129E+02 -0.36829761241E+01  0.50528879429E+02  0.30000059511E+02 0.  0.
         12    1    1    2    0    0 -0.32355350261E+02  0.24346069129E+02  0.36829761241E+01  0.40659120571E+02  0.00000000000E+00 0. -1.
         11    1    3    3    0    0  0.24919299104E+01  0.54838486044E+01  0.27564621389E+01  0.66242278024E+01  0.51100000000E-03 0. -1.
        -11    1    3    3    0    0  0.19112615800E+02 -0.12068137964E+02 -0.21653686561E+01  0.22707286459E+02  0.51100000000E-03 0.  1.
        -12    1    3    3    0    0  0.10750804550E+02 -0.17761779769E+02 -0.42740696070E+01  0.21197365167E+02  0.00000000000E+00 0.  1.
</event>
<event>
 7    1  0.5642630E-013  0.5052896E+02  0.7816164E-02  0.1300438E+00
        -11   -1    0    0    0    0  0.00000000000E+00  0.00000000000E+00  0.45593999997E+02  0.45594000000E+02  0.51100000000E-03 0. -1.
         11   -1    0    0    0    0 -0.00000000000E+00 -0.00000000000E+00 -0.45593999997E+02  0.45594000000E+02  0.51100000000E-03 0.  1.
    9900012    2    1    2    0    0  0.63398724684E+01  0.35745851363E+02 -0.18308395517E+02  0.50528963870E+02  0.30000316179E+02 0.  0.
         12    1    1    2    0    0 -0.63398724684E+01 -0.35745851363E+02  0.18308395517E+02  0.40659036130E+02  0.00000000000E+00 0. -1.
         11    1    3    3    0    0 -0.43316833673E+01  0.29827901941E+01 -0.86440522839E+00  0.53298888165E+01  0.51100000000E-03 0. -1.
        -11    1    3    3    0    0 -0.57942917333E+01  0.18801620445E+02 -0.50734823285E+01  0.20317848588E+02  0.51100000000E-03 0.  1.
        -12    1    3    3    0    0  0.16465847569E+02  0.13961440724E+02 -0.12370507960E+02  0.24881226466E+02  0.00000000000E+00 0.  1.
</event>
<event>
 7    1  0.5642630E-013  0.5052886E+02  0.7816164E-02  0.1300439E+00
        -11   -1    0    0    0    0  0.00000000000E+00  0.00000000000E+00  0.45593999997E+02  0.45594000000E+02  0.51100000000E-03 0.  1.
         11   -1    0    0    0    0 -0.00000000000E+00 -0.00000000000E+00 -0.45593999997E+02  0.45594000000E+02  0.51100000000E-03 0. -1.
    9900012    2    1    2    0    0 -0.15917723825E+02 -0.64920380697E+01  0.36846233875E+02  0.50528862763E+02  0.30000008856E+02 0.  0.
         12    1    1    2    0    0  0.15917723825E+02  0.64920380697E+01 -0.36846233875E+02  0.40659137237E+02  0.00000000000E+00 0. -1.
         11    1    3    3    0    0 -0.12777252658E+02 -0.87204381236E+01  0.49191604555E+01  0.16232755971E+02  0.51100000000E-03 0. -1.
        -11    1    3    3    0    0 -0.56066145262E+01 -0.25462352496E+01  0.10202417500E+02  0.11916659074E+02  0.51100000000E-03 0.  1.
         12    1    3    3    0    0  0.24661433599E+01  0.47746353034E+01  0.21724655920E+02  0.22379447718E+02  0.00000000000E+00 0. -1.
</event>
<event>
 7    1  0.5642630E-013  0.5052887E+02  0.7816164E-02  0.1300439E+00
        -11   -1    0    0    0    0  0.00000000000E+00  0.00000000000E+00  0.45593999997E+02  0.45594000000E+02  0.51100000000E-03 0. -1.
         11   -1    0    0    0    0 -0.00000000000E+00 -0.00000000000E+00 -0.45593999997E+02  0.45594000000E+02  0.51100000000E-03 0.  1.
    9900012    2    1    2    0    0 -0.16970424720E+02  0.34721637062E+02 -0.12632387047E+02  0.50528873129E+02  0.30000040362E+02 0.  0.
         12    1    1    2    0    0  0.16970424720E+02 -0.34721637062E+02  0.12632387047E+02  0.40659126871E+02  0.00000000000E+00 0. -1.
         11    1    3    3    0    0  0.77030582952E+00  0.15225952584E+01 -0.36939234597E+01  0.40689971958E+01  0.51100000000E-03 0. -1.
        -11    1    3    3    0    0  0.20745838535E+01  0.10717795648E+02 -0.12134479929E+02  0.16322397040E+02  0.51100000000E-03 0.  1.
         12    1    3    3    0    0 -0.19815314403E+02  0.22481246155E+02  0.31960163418E+01  0.30137478893E+02  0.00000000000E+00 0. -1.
</event>
<event>
 7    1  0.5642630E-013  0.5052886E+02  0.7816164E-02  0.1300439E+00
        -11   -1    0    0    0    0  0.00000000000E+00  0.00000000000E+00  0.45593999997E+02  0.45594000000E+02  0.51100000000E-03 0.  1.
         11   -1    0    0    0    0 -0.00000000000E+00 -0.00000000000E+00 -0.45593999997E+02  0.45594000000E+02  0.51100000000E-03 0. -1.
    9900012    2    1    2    0    0 -0.30116709844E+02 -0.20590596140E+02 -0.17949275296E+02  0.50528863943E+02  0.30000012442E+02 0.  0.
         12    1    1    2    0    0  0.30116709844E+02  0.20590596140E+02  0.17949275296E+02  0.40659136057E+02  0.00000000000E+00 0. -1.
         11    1    3    3    0    0 -0.14893321267E+02 -0.11654069100E+02 -0.73950607817E+01  0.20305547744E+02  0.51100000000E-03 0. -1.
        -11    1    3    3    0    0 -0.16844404158E+02 -0.51404984055E+01  0.13115780238E+01  0.17660093784E+02  0.51100000000E-03 0.  1.
         12    1    3    3    0    0  0.16210155808E+01 -0.37960286344E+01 -0.11865792538E+02  0.12563222415E+02  0.00000000000E+00 0. -1.
</event>
<event>
 7    1  0.5642630E-013  0.5052886E+02  0.7816164E-02  0.1300439E+00
        -11   -1    0    0    0    0  0.00000000000E+00  0.00000000000E+00  0.45593999997E+02  0.45594000000E+02  0.51100000000E-03 0.  1.
         11   -1    0    0    0    0 -0.00000000000E+00 -0.00000000000E+00 -0.45593999997E+02  0.45594000000E+02  0.51100000000E-03 0. -1.
    9900012    2    1    2    0    0  0.40407851397E+02  0.61588799317E+00 -0.44712685706E+01  0.50528855700E+02  0.29999987386E+02 0.  0.
         12    1    1    2    0    0 -0.40407851397E+02 -0.61588799317E+00  0.44712685706E+01  0.40659144300E+02  0.00000000000E+00 0. -1.
         11    1    3    3    0    0 -0.74379900180E+00 -0.31097049064E+01 -0.28460823072E+01  0.42806175162E+01  0.51100000000E-03 0. -1.
        -11    1    3    3    0    0  0.16499743486E+02  0.11629949715E+02 -0.25288178906E+01  0.20344340384E+02  0.51100000000E-03 0.  1.
        -12    1    3    3    0    0  0.24651906913E+02 -0.79043568154E+01  0.90363162717E+00  0.25903897800E+02  0.00000000000E+00 0.  1.
</event>
<event>
 7    1  0.5642630E-013  0.5052886E+02  0.7816164E-02  0.1300439E+00
        -11   -1    0    0    0    0  0.00000000000E+00  0.00000000000E+00  0.45593999997E+02  0.45594000000E+02  0.51100000000E-03 0.  1.
         11   -1    0    0    0    0 -0.00000000000E+00 -0.00000000000E+00 -0.45593999997E+02  0.45594000000E+02  0.51100000000E-03 0. -1.
    9900012    2    1    2    0    0 -0.29780474316E+02 -0.27482471254E+02  0.33170692022E+01  0.50528858042E+02  0.29999994504E+02 0.  0.
         12    1    1    2    0    0  0.29780474316E+02  0.27482471254E+02 -0.33170692022E+01  0.40659141958E+02  0.00000000000E+00 0. -1.
         11    1    3    3    0    0 -0.41499170202E+01 -0.63710885123E+01  0.14682796062E+01  0.77439282906E+01  0.51100000000E-03 0.  1.
        -11    1    3    3    0    0 -0.30009853601E+02 -0.12323364946E+02  0.41335804566E+01  0.32703870175E+02  0.51100000000E-03 0. -1.
        -12    1    3    3    0    0  0.43792963054E+01 -0.87880177955E+01 -0.22847908606E+01  0.10081059576E+02  0.00000000000E+00 0.  1.
</event>
<event>
 7    1  0.5642630E-013  0.5052886E+02  0.7816164E-02  0.1300439E+00
        -11   -1    0    0    0    0  0.00000000000E+00  0.00000000000E+00  0.45593999997E+02  0.45594000000E+02  0.51100000000E-03 0. -1.
         11   -1    0    0    0    0 -0.00000000000E+00 -0.00000000000E+00 -0.45593999997E+02  0.45594000000E+02  0.51100000000E-03 0.  1.
    9900012    2    1    2    0    0  0.18582596777E+02 -0.35066512254E+02 -0.88426492138E+01  0.50528860440E+02  0.30000001795E+02 0.  0.
         12    1    1    2    0    0 -0.18582596777E+02  0.35066512254E+02  0.88426492138E+01  0.40659139560E+02  0.00000000000E+00 0. -1.
         11    1    3    3    0    0  0.20128533883E+02 -0.18054323163E+02 -0.34756631713E+01  0.27261634138E+02  0.51100000000E-03 0. -1.
        -11    1    3    3    0    0  0.53638973807E+01 -0.96166683879E+01 -0.69523798278E+01  0.13022568546E+02  0.51100000000E-03 0.  1.
        -12    1    3    3    0    0 -0.69098344866E+01 -0.73955207024E+01  0.15853937853E+01  0.10244657756E+02  0.00000000000E+00 0.  1.
</event>
<event>
 7    1  0.5642630E-013  0.5052887E+02  0.7816164E-02  0.1300439E+00
        -11   -1    0    0    0    0  0.00000000000E+00  0.00000000000E+00  0.45593999997E+02  0.45594000000E+02  0.51100000000E-03 0.  1.
         11   -1    0    0    0    0 -0.00000000000E+00 -0.00000000000E+00 -0.45593999997E+02  0.45594000000E+02  0.51100000000E-03 0. -1.
    9900012    2    1    2    0    0 -0.22182559229E+02  0.55043828985E+01  0.33627377059E+02  0.50528872452E+02  0.30000038306E+02 0.  0.
         12    1    1    2    0    0  0.22182559229E+02 -0.55043828985E+01 -0.33627377059E+02  0.40659127548E+02  0.00000000000E+00 0. -1.
         11    1    3    3    0    0 -0.76872223576E+01 -0.93039819567E+01  0.22418150255E+02  0.25460379591E+02  0.51100000000E-03 0. -1.
        -11    1    3    3    0    0 -0.57415952343E+01  0.77476883448E+01  0.97748670472E+01  0.13731009307E+02  0.51100000000E-03 0.  1.
        -12    1    3    3    0    0 -0.87537416375E+01  0.70606765103E+01  0.14343597573E+01  0.11337483555E+02  0.00000000000E+00 0.  1.
</event>
<event>
 7    1  0.5642630E-013  0.5052885E+02  0.7816164E-02  0.1300439E+00
        -11   -1    0    0    0    0  0.00000000000E+00  0.00000000000E+00  0.45593999997E+02  0.45594000000E+02  0.51100000000E-03 0. -1.
         11   -1    0    0    0    0 -0.00000000000E+00 -0.00000000000E+00 -0.45593999997E+02  0.45594000000E+02  0.51100000000E-03 0.  1.
    9900012    2    1    2    0    0  0.37332526073E+01 -0.31005916913E+02 -0.26035784497E+02  0.50528854251E+02  0.29999982981E+02 0.  0.
         12    1    1    2    0    0 -0.37332526073E+01  0.31005916913E+02  0.26035784497E+02  0.40659145749E+02  0.00000000000E+00 0. -1.
         11    1    3    3    0    0  0.50833537896E+01  0.28855863004E+01 -0.71442354040E+00  0.58887600820E+01  0.51100000000E-03 0. -1.
        -11    1    3    3    0    0  0.16749004139E+01 -0.22570949844E+01  0.13815824376E+01  0.31318587864E+01  0.51100000000E-03 0.  1.
        -12    1    3    3    0    0 -0.30250015961E+01 -0.31634408229E+02 -0.26702943394E+02  0.41508235383E+02  0.00000000000E+00 0.  1.
</event>
<event>
 7    1  0.5642630E-013  0.5052883E+02  0.7816164E-02  0.1300439E+00
        -11   -1    0    0    0    0  0.00000000000E+00  0.00000000000E+00  0.45593999997E+02  0.45594000000E+02  0.51100000000E-03 0.  1.
         11   -1    0    0    0    0 -0.00000000000E+00 -0.00000000000E+00 -0.45593999997E+02  0.45594000000E+02  0.51100000000E-03 0. -1.
    9900012    2    1    2    0    0 -0.14322711558E+02  0.17963688950E+02  0.33545991922E+02  0.50528834230E+02  0.29999922126E+02 0.  0.
         12    1    1    2    0    0  0.14322711558E+02 -0.17963688950E+02 -0.33545991922E+02  0.40659165770E+02  0.00000000000E+00 0. -1.
         11    1    3    3    0    0  0.47468399333E+01  0.28457756878E+01  0.15435370682E+01  0.57457319429E+01  0.51100000000E-03 0. -1.
        -11    1    3    3    0    0 -0.69309487977E-01 -0.21483293186E+01 -0.14659461017E+01  0.26017534281E+01  0.51100000000E-03 0.  1.
        -12    1    3    3    0    0 -0.19000242003E+02  0.17266242581E+02  0.33468400956E+02  0.42181348859E+02  0.00000000000E+00 0.  1.
</event>
<event>
 7    1  0.5642630E-013  0.5052886E+02  0.7816164E-02  0.1300439E+00
        -11   -1    0    0    0    0  0.00000000000E+00  0.00000000000E+00  0.45593999997E+02  0.45594000000E+02  0.51100000000E-03 0.  1.
         11   -1    0    0    0    0 -0.00000000000E+00 -0.00000000000E+00 -0.45593999997E+02  0.45594000000E+02  0.51100000000E-03 0. -1.
    9900012    2    1    2    0    0  0.15891619811E+02  0.29419338971E+01  0.37309079036E+02  0.50528856701E+02  0.29999990429E+02 0.  0.
         12    1    1    2    0    0 -0.15891619811E+02 -0.29419338971E+01 -0.37309079036E+02  0.40659143299E+02  0.00000000000E+00 0. -1.
         11    1    3    3    0    0  0.61865319518E+01 -0.62853283505E+01  0.41931652664E+01  0.97653041570E+01  0.51100000000E-03 0. -1.
        -11    1    3    3    0    0 -0.57676449800E+01  0.53894110449E+00  0.58586181680E+01  0.82389072837E+01  0.51100000000E-03 0.  1.
        -12    1    3    3    0    0  0.15472732840E+02  0.86883211431E+01  0.27257295602E+02  0.32524645260E+02  0.00000000000E+00 0.  1.
</event>
<event>
 7    1  0.5642630E-013  0.5052886E+02  0.7816164E-02  0.1300439E+00
        -11   -1    0    0    0    0  0.00000000000E+00  0.00000000000E+00  0.45593999997E+02  0.45594000000E+02  0.51100000000E-03 0. -1.
         11   -1    0    0    0    0 -0.00000000000E+00 -0.00000000000E+00 -0.45593999997E+02  0.45594000000E+02  0.51100000000E-03 0.  1.
    9900012    2    1    2    0    0  0.23116857844E+02 -0.26640019098E+02 -0.20225869007E+02  0.50528861898E+02  0.30000006224E+02 0.  0.
         12    1    1    2    0    0 -0.23116857844E+02  0.26640019098E+02  0.20225869007E+02  0.40659138102E+02  0.00000000000E+00 0. -1.
         11    1    3    3    0    0  0.72800990791E+01 -0.89711537432E+01 -0.11548171945E+02  0.16335290558E+02  0.51100000000E-03 0. -1.
        -11    1    3    3    0    0  0.10937456124E+02 -0.12928766268E+02 -0.16619406691E+02  0.23727318068E+02  0.51100000000E-03 0.  1.
         12    1    3    3    0    0  0.48993026412E+01 -0.47400990872E+01  0.79417096288E+01  0.10466253272E+02  0.00000000000E+00 0. -1.
</event>
<event>
 7    1  0.5642630E-013  0.5052886E+02  0.7816164E-02  0.1300439E+00
        -11   -1    0    0    0    0  0.00000000000E+00  0.00000000000E+00  0.45593999997E+02  0.45594000000E+02  0.51100000000E-03 0.  1.
         11   -1    0    0    0    0 -0.00000000000E+00 -0.00000000000E+00 -0.45593999997E+02  0.45594000000E+02  0.51100000000E-03 0. -1.
    9900012    2    1    2    0    0  0.29590654813E+02  0.26018370948E+02  0.10030112607E+02  0.50528860339E+02  0.30000001487E+02 0.  0.
         12    1    1    2    0    0 -0.29590654813E+02 -0.26018370948E+02 -0.10030112607E+02  0.40659139661E+02  0.00000000000E+00 0. -1.
         11    1    3    3    0    0  0.87550895561E+01  0.61085634722E+01 -0.14079099770E+01  0.10767931630E+02  0.51100000000E-03 0.  1.
        -11    1    3    3    0    0  0.21376697106E+02  0.97006956493E+01 -0.12000683985E+01  0.23505464039E+02  0.51100000000E-03 0. -1.
         12    1    3    3    0    0 -0.54113184949E+00  0.10209111826E+02  0.12638090983E+02  0.16255464671E+02  0.00000000000E+00 0. -1.
</event>
<event>
 7    1  0.5642630E-013  0.5052886E+02  0.7816164E-02  0.1300439E+00
        -11   -1    0    0    0    0  0.00000000000E+00  0.00000000000E+00  0.45593999997E+02  0.45594000000E+02  0.51100000000E-03 0.  1.
         11   -1    0    0    0    0 -0.00000000000E+00 -0.00000000000E+00 -0.45593999997E+02  0.45594000000E+02  0.51100000000E-03 0. -1.
    9900012    2    1    2    0    0 -0.22649783685E+01  0.15042024368E+02  0.37706405844E+02  0.50528859997E+02  0.30000000447E+02 0.  0.
         12    1    1    2    0    0  0.22649783685E+01 -0.15042024368E+02 -0.37706405844E+02  0.40659140003E+02  0.00000000000E+00 0. -1.
         11    1    3    3    0    0 -0.91583854704E+01  0.94619590666E+01  0.22348337113E+02  0.25939407584E+02  0.51100000000E-03 0. -1.
        -11    1    3    3    0    0  0.52415642761E+01 -0.97259736692E+00  0.16846446984E+02  0.17669825068E+02  0.51100000000E-03 0.  1.
         12    1    3    3    0    0  0.16518428258E+01  0.65526626686E+01 -0.14883782530E+01  0.69196273450E+01  0.00000000000E+00 0. -1.
</event>
<event>
 7    1  0.5642630E-013  0.5052886E+02  0.7816164E-02  0.1300439E+00
        -11   -1    0    0    0    0  0.00000000000E+00  0.00000000000E+00  0.45593999997E+02  0.45594000000E+02  0.51100000000E-03 0. -1.
         11   -1    0    0    0    0 -0.00000000000E+00 -0.00000000000E+00 -0.45593999997E+02  0.45594000000E+02  0.51100000000E-03 0.  1.
    9900012    2    1    2    0    0 -0.39960289257E+02  0.68729141309E+01 -0.30172974681E+01  0.50528858959E+02  0.29999997292E+02 0.  0.
         12    1    1    2    0    0  0.39960289257E+02 -0.68729141309E+01  0.30172974681E+01  0.40659141041E+02  0.00000000000E+00 0. -1.
         11    1    3    3    0    0  0.18688296784E+01  0.45345147928E+01  0.75283692184E+00  0.49619665925E+01  0.51100000000E-03 0. -1.
        -11    1    3    3    0    0 -0.59970927709E+01  0.29836463104E+01 -0.68702927907E+01  0.95952170533E+01  0.51100000000E-03 0.  1.
         12    1    3    3    0    0 -0.35832026165E+02 -0.64524697231E+00  0.31001584008E+01  0.35971675313E+02  0.00000000000E+00 0. -1.
</event>
<event>
 7    1  0.5642630E-013  0.5052886E+02  0.7816164E-02  0.1300439E+00
        -11   -1    0    0    0    0  0.00000000000E+00  0.00000000000E+00  0.45593999997E+02  0.45594000000E+02  0.51100000000E-03 0.  1.
         11   -1    0    0    0    0 -0.00000000000E+00 -0.00000000000E+00 -0.45593999997E+02  0.45594000000E+02  0.51100000000E-03 0. -1.
    9900012    2    1    2    0    0 -0.83543859161E+00 -0.33624861816E+02  0.22843733209E+02  0.50528862814E+02  0.30000009010E+02 0.  0.
         12    1    1    2    0    0  0.83543859161E+00  0.33624861816E+02 -0.22843733209E+02  0.40659137186E+02  0.00000000000E+00 0. -1.
         11    1    3    3    0    0 -0.50187503188E+01 -0.17213978749E+02  0.25651859309E+01  0.18113229924E+02  0.51100000000E-03 0.  1.
        -11    1    3    3    0    0  0.15975626242E+01 -0.16598600166E+02  0.57215479085E+01  0.17629573011E+02  0.51100000000E-03 0. -1.
        -12    1    3    3    0    0  0.25857491031E+01  0.18771709921E+00  0.14556999369E+02  0.14786059880E+02  0.00000000000E+00 0.  1.
</event>
<event>
 7    1  0.5642630E-013  0.5052887E+02  0.7816164E-02  0.1300439E+00
        -11   -1    0    0    0    0  0.00000000000E+00  0.00000000000E+00  0.45593999997E+02  0.45594000000E+02  0.51100000000E-03 0.  1.
         11   -1    0    0    0    0 -0.00000000000E+00 -0.00000000000E+00 -0.45593999997E+02  0.45594000000E+02  0.51100000000E-03 0. -1.
    9900012    2    1    2    0    0  0.88477127845E+01 -0.29085363104E+01  0.39578066467E+02  0.50528868796E+02  0.30000027193E+02 0.  0.
         12    1    1    2    0    0 -0.88477127845E+01  0.29085363104E+01 -0.39578066467E+02  0.40659131204E+02  0.00000000000E+00 0. -1.
         11    1    3    3    0    0 -0.64754924579E+01  0.33997138449E+01  0.12713976977E+02  0.14667490161E+02  0.51100000000E-03 0. -1.
        -11    1    3    3    0    0  0.62702219319E+01 -0.53070653796E+01  0.25325129701E+02  0.26624102250E+02  0.51100000000E-03 0.  1.
         12    1    3    3    0    0  0.90529833105E+01 -0.10011847757E+01  0.15389597896E+01  0.92372763848E+01  0.00000000000E+00 0. -1.
</event>
<event>
 7    1  0.5642630E-013  0.5052886E+02  0.7816164E-02  0.1300439E+00
        -11   -1    0    0    0    0  0.00000000000E+00  0.00000000000E+00  0.45593999997E+02  0.45594000000E+02  0.51100000000E-03 0. -1.
         11   -1    0    0    0    0 -0.00000000000E+00 -0.00000000000E+00 -0.45593999997E+02  0.45594000000E+02  0.51100000000E-03 0.  1.
    9900012    2    1    2    0    0  0.32479335613E+02  0.55061228607E+01 -0.23831507268E+02  0.50528863641E+02  0.30000011523E+02 0.  0.
         12    1    1    2    0    0 -0.32479335613E+02 -0.55061228607E+01  0.23831507268E+02  0.40659136359E+02  0.00000000000E+00 0. -1.
         11    1    3    3    0    0  0.98183840311E+01  0.10778995195E+02 -0.52260685408E+01  0.15488679578E+02  0.51100000000E-03 0. -1.
        -11    1    3    3    0    0  0.10534529981E+02  0.67452895617E+01 -0.63849924511E+01  0.14044336298E+02  0.51100000000E-03 0.  1.
        -12    1    3    3    0    0  0.12126421601E+02 -0.12018161896E+02 -0.12220446276E+02  0.20995847765E+02  0.00000000000E+00 0.  1.
</event>
<event>
 7    1  0.5642630E-013  0.5052882E+02  0.7816164E-02  0.1300439E+00
        -11   -1    0    0    0    0  0.00000000000E+00  0.00000000000E+00  0.45593999997E+02  0.45594000000E+02  0.51100000000E-03 0. -1.
         11   -1    0    0    0    0 -0.00000000000E+00 -0.00000000000E+00 -0.45593999997E+02  0.45594000000E+02  0.51100000000E-03 0.  1.
    9900012    2    1    2    0    0  0.39500239879E+02 -0.26374658457E+01 -0.92705764590E+01  0.50528821892E+02  0.29999884622E+02 0.  0.
         12    1    1    2    0    0 -0.39500239879E+02  0.26374658457E+01  0.92705764590E+01  0.40659178108E+02  0.00000000000E+00 0. -1.
         11    1    3    3    0    0  0.13335966043E+02 -0.10460732097E+02 -0.69079356113E+01  0.18302854449E+02  0.51100000000E-03 0. -1.
        -11    1    3    3    0    0  0.49193357214E+01 -0.17843453715E+01 -0.67084405842E+01  0.85080507566E+01  0.51100000000E-03 0.  1.
         12    1    3    3    0    0  0.21244938114E+02  0.96076116229E+01  0.43457997366E+01  0.23717916686E+02  0.00000000000E+00 0. -1.
</event>
<event>
 7    1  0.5642630E-013  0.5052889E+02  0.7816164E-02  0.1300439E+00
        -11   -1    0    0    0    0  0.00000000000E+00  0.00000000000E+00  0.45593999997E+02  0.45594000000E+02  0.51100000000E-03 0. -1.
         11   -1    0    0    0    0 -0.00000000000E+00 -0.00000000000E+00 -0.45593999997E+02  0.45594000000E+02  0.51100000000E-03 0.  1.
    9900012    2    1    2    0    0  0.38141776836E+02 -0.14050508528E+02 -0.97531245154E+00  0.50528890756E+02  0.30000093941E+02 0.  0.
         12    1    1    2    0    0 -0.38141776836E+02  0.14050508528E+02  0.97531245154E+00  0.40659109244E+02  0.00000000000E+00 0. -1.
         11    1    3    3    0    0  0.10693048484E+02 -0.40942413398E+01  0.36023109195E+01  0.12003363789E+02  0.51100000000E-03 0. -1.
        -11    1    3    3    0    0 -0.31549504247E+01 -0.59108140902E-01  0.41356128564E+01  0.52019707721E+01  0.51100000000E-03 0.  1.
        -12    1    3    3    0    0  0.30603678777E+02 -0.98971590476E+01 -0.87132362274E+01  0.33323556194E+02  0.00000000000E+00 0.  1.
</event>
<event>
 7    1  0.5642630E-013  0.5052886E+02  0.7816164E-02  0.1300439E+00
        -11   -1    0    0    0    0  0.00000000000E+00  0.00000000000E+00  0.45593999997E+02  0.45594000000E+02  0.51100000000E-03 0.  1.
         11   -1    0    0    0    0 -0.00000000000E+00 -0.00000000000E+00 -0.45593999997E+02  0.45594000000E+02  0.51100000000E-03 0. -1.
    9900012    2    1    2    0    0 -0.37740732383E+01  0.16186108313E+02  0.37107038155E+02  0.50528855743E+02  0.29999987516E+02 0.  0.
         12    1    1    2    0    0  0.37740732383E+01 -0.16186108313E+02 -0.37107038155E+02  0.40659144257E+02  0.00000000000E+00 0. -1.
         11    1    3    3    0    0  0.60095354081E+01  0.77073337264E+01  0.73513450434E+01  0.12229463733E+02  0.51100000000E-03 0. -1.
        -11    1    3    3    0    0  0.40210723469E+01  0.94543844060E+01  0.12708921935E+02  0.16342310250E+02  0.51100000000E-03 0.  1.
        -12    1    3    3    0    0 -0.13804680993E+02 -0.97560981971E+00  0.17046771176E+02  0.21957081759E+02  0.00000000000E+00 0.  1.
</event>
<event>
 7    1  0.5642630E-013  0.5052886E+02  0.7816164E-02  0.1300439E+00
        -11   -1    0    0    0    0  0.00000000000E+00  0.00000000000E+00  0.45593999997E+02  0.45594000000E+02  0.51100000000E-03 0. -1.
         11   -1    0    0    0    0 -0.00000000000E+00 -0.00000000000E+00 -0.45593999997E+02  0.45594000000E+02  0.51100000000E-03 0.  1.
    9900012    2    1    2    0    0  0.34855241021E+02  0.18200062911E+02 -0.10345792877E+02  0.50528861460E+02  0.30000004893E+02 0.  0.
         12    1    1    2    0    0 -0.34855241021E+02 -0.18200062911E+02  0.10345792877E+02  0.40659138540E+02  0.00000000000E+00 0. -1.
         11    1    3    3    0    0  0.28900845377E+01 -0.42994733908E+01  0.44841404958E+01  0.68516841960E+01  0.51100000000E-03 0. -1.
        -11    1    3    3    0    0  0.90401825081E+01  0.17108870357E+01 -0.75090974848E+01  0.11875966467E+02  0.51100000000E-03 0.  1.
        -12    1    3    3    0    0  0.22924973975E+02  0.20788649266E+02 -0.73208358882E+01  0.31801210797E+02  0.00000000000E+00 0.  1.
</event>
<event>
 7    1  0.5642630E-013  0.5052886E+02  0.7816164E-02  0.1300439E+00
        -11   -1    0    0    0    0  0.00000000000E+00  0.00000000000E+00  0.45593999997E+02  0.45594000000E+02  0.51100000000E-03 0.  1.
         11   -1    0    0    0    0 -0.00000000000E+00 -0.00000000000E+00 -0.45593999997E+02  0.45594000000E+02  0.51100000000E-03 0. -1.
    9900012    2    1    2    0    0 -0.26923496738E+02 -0.28001498766E+02  0.12008611843E+02  0.50528863657E+02  0.30000011571E+02 0.  0.
         12    1    1    2    0    0  0.26923496738E+02  0.28001498766E+02 -0.12008611843E+02  0.40659136343E+02  0.00000000000E+00 0. -1.
         11    1    3    3    0    0 -0.65349423621E+01 -0.90158518142E+01 -0.19250640554E+01  0.11300306522E+02  0.51100000000E-03 0. -1.
        -11    1    3    3    0    0 -0.10305868875E+02 -0.23446545618E+02  0.89651095018E+01  0.27135302161E+02  0.51100000000E-03 0.  1.
        -12    1    3    3    0    0 -0.10082685501E+02  0.44608986662E+01  0.49685663970E+01  0.12093254974E+02  0.00000000000E+00 0.  1.
</event>
<event>
 7    1  0.5642630E-013  0.5052888E+02  0.7816164E-02  0.1300439E+00
        -11   -1    0    0    0    0  0.00000000000E+00  0.00000000000E+00  0.45593999997E+02  0.45594000000E+02  0.51100000000E-03 0.  1.
         11   -1    0    0    0    0 -0.00000000000E+00 -0.00000000000E+00 -0.45593999997E+02  0.45594000000E+02  0.51100000000E-03 0. -1.
    9900012    2    1    2    0    0  0.25758954971E+02  0.29976717579E+02 -0.95413297595E+01  0.50528876404E+02  0.30000050318E+02 0.  0.
         12    1    1    2    0    0 -0.25758954971E+02 -0.29976717579E+02  0.95413297595E+01  0.40659123596E+02  0.00000000000E+00 0. -1.
         11    1    3    3    0    0  0.18607570076E+02  0.92157422274E+01 -0.33490489904E+01  0.21033014486E+02  0.51100000000E-03 0. -1.
        -11    1    3    3    0    0  0.52817313466E+01 -0.19779505117E+01 -0.32008277523E+01  0.64849265844E+01  0.51100000000E-03 0.  1.
        -12    1    3    3    0    0  0.18696535476E+01  0.22738925863E+02 -0.29914530169E+01  0.23010935334E+02  0.00000000000E+00 0.  1.
</event>
<event>
 7    1  0.5642630E-013  0.5052886E+02  0.7816164E-02  0.1300439E+00
        -11   -1    0    0    0    0  0.00000000000E+00  0.00000000000E+00  0.45593999997E+02  0.45594000000E+02  0.51100000000E-03 0.  1.
         11   -1    0    0    0    0 -0.00000000000E+00 -0.00000000000E+00 -0.45593999997E+02  0.45594000000E+02  0.51100000000E-03 0. -1.
    9900012    2    1    2    0    0  0.21027949246E+02  0.15758186656E+02  0.31026936312E+02  0.50528857448E+02  0.29999992698E+02 0.  0.
         12    1    1    2    0    0 -0.21027949246E+02 -0.15758186656E+02 -0.31026936312E+02  0.40659142552E+02  0.00000000000E+00 0. -1.
         11    1    3    3    0    0 -0.15729174443E+01  0.35511225637E+01  0.68431202270E+01  0.78684709729E+01  0.51100000000E-03 0. -1.
        -11    1    3    3    0    0  0.16039084393E+02 -0.29870674449E+01  0.19570433054E+02  0.25478945235E+02  0.51100000000E-03 0.  1.
         12    1    3    3    0    0  0.65617822972E+01  0.15194131537E+02  0.46133830309E+01  0.17181441240E+02  0.00000000000E+00 0. -1.
</event>
<event>
 7    1  0.5642630E-013  0.5052886E+02  0.7816164E-02  0.1300439E+00
        -11   -1    0    0    0    0  0.00000000000E+00  0.00000000000E+00  0.45593999997E+02  0.45594000000E+02  0.51100000000E-03 0.  1.
         11   -1    0    0    0    0 -0.00000000000E+00 -0.00000000000E+00 -0.45593999997E+02  0.45594000000E+02  0.51100000000E-03 0. -1.
    9900012    2    1    2    0    0 -0.19837585784E+02  0.12459156727E+02 -0.33232595043E+02  0.50528858723E+02  0.29999996575E+02 0.  0.
         12    1    1    2    0    0  0.19837585784E+02 -0.12459156727E+02  0.33232595043E+02  0.40659141277E+02  0.00000000000E+00 0. -1.
         11    1    3    3    0    0 -0.20767758882E+01  0.45698836592E+01  0.17218468678E+01  0.53067496309E+01  0.51100000000E-03 0. -1.
        -11    1    3    3    0    0 -0.24911022761E+01 -0.32120822787E+01  0.13660295171E+01  0.42882513940E+01  0.51100000000E-03 0.  1.
        -12    1    3    3    0    0 -0.15269707620E+02  0.11101355346E+02 -0.36320471428E+02  0.40933857698E+02  0.00000000000E+00 0.  1.
</event>
<event>
 7    1  0.5642630E-013  0.5052886E+02  0.7816164E-02  0.1300439E+00
        -11   -1    0    0    0    0  0.00000000000E+00  0.00000000000E+00  0.45593999997E+02  0.45594000000E+02  0.51100000000E-03 0.  1.
         11   -1    0    0    0    0 -0.00000000000E+00 -0.00000000000E+00 -0.45593999997E+02  0.45594000000E+02  0.51100000000E-03 0. -1.
    9900012    2    1    2    0    0  0.37184878201E+02  0.10655912129E+01 -0.16410821140E+02  0.50528859552E+02  0.29999999095E+02 0.  0.
         12    1    1    2    0    0 -0.37184878201E+02 -0.10655912129E+01  0.16410821140E+02  0.40659140448E+02  0.00000000000E+00 0. -1.
         11    1    3    3    0    0  0.17021796420E+02 -0.11276697115E+01 -0.10278090128E+02  0.19916132388E+02  0.51100000000E-03 0. -1.
        -11    1    3    3    0    0  0.37718034174E+01  0.10589566784E+02 -0.45536705269E+01  0.12128534175E+02  0.51100000000E-03 0.  1.
         12    1    3    3    0    0  0.16391278363E+02 -0.83963058598E+01 -0.15790604856E+01  0.18484192990E+02  0.00000000000E+00 0. -1.
</event>
<event>
 7    1  0.5642630E-013  0.5052886E+02  0.7816164E-02  0.1300439E+00
        -11   -1    0    0    0    0  0.00000000000E+00  0.00000000000E+00  0.45593999997E+02  0.45594000000E+02  0.51100000000E-03 0. -1.
         11   -1    0    0    0    0 -0.00000000000E+00 -0.00000000000E+00 -0.45593999997E+02  0.45594000000E+02  0.51100000000E-03 0.  1.
    9900012    2    1    2    0    0  0.38837462456E+02  0.45518052631E+01  0.11139929416E+02  0.50528862668E+02  0.30000008567E+02 0.  0.
         12    1    1    2    0    0 -0.38837462456E+02 -0.45518052631E+01 -0.11139929416E+02  0.40659137332E+02  0.00000000000E+00 0. -1.
         11    1    3    3    0    0  0.16261156700E+00 -0.43641449961E+00  0.68611043805E+01  0.68768927372E+01  0.51100000000E-03 0. -1.
        -11    1    3    3    0    0  0.12186071124E+02  0.39560412940E+01  0.10333995964E+02  0.16460317889E+02  0.51100000000E-03 0.  1.
        -12    1    3    3    0    0  0.26488779764E+02  0.10321784686E+01 -0.60551709284E+01  0.27191652042E+02  0.00000000000E+00 0.  1.
</event>
<event>
 7    1  0.5642630E-013  0.5052884E+02  0.7816164E-02  0.1300439E+00
        -11   -1    0    0    0    0  0.00000000000E+00  0.00000000000E+00  0.45593999997E+02  0.45594000000E+02  0.51100000000E-03 0.  1.
         11   -1    0    0    0    0 -0.00000000000E+00 -0.00000000000E+00 -0.45593999997E+02  0.45594000000E+02  0.51100000000E-03 0. -1.
    9900012    2    1    2    0    0 -0.10891504847E+02 -0.35772487380E+02  0.15964703406E+02  0.50528837613E+02  0.29999932409E+02 0.  0.
         12    1    1    2    0    0  0.10891504847E+02  0.35772487380E+02 -0.15964703406E+02  0.40659162387E+02  0.00000000000E+00 0. -1.
         11    1    3    3    0    0  0.14034901580E+01 -0.27300056100E+01  0.63642570101E+01  0.70658674489E+01  0.51100000000E-03 0. -1.
        -11    1    3    3    0    0  0.55128466978E+01 -0.82631016505E+00  0.10462339804E+01  0.56717610144E+01  0.51100000000E-03 0.  1.
        -12    1    3    3    0    0 -0.17807841703E+02 -0.32216171604E+02  0.85542124152E+01  0.37791209150E+02  0.00000000000E+00 0.  1.
</event>
<event>
 7    1  0.5642630E-013  0.5052887E+02  0.7816164E-02  0.1300439E+00
        -11   -1    0    0    0    0  0.00000000000E+00  0.00000000000E+00  0.45593999997E+02  0.45594000000E+02  0.51100000000E-03 0.  1.
         11   -1    0    0    0    0 -0.00000000000E+00 -0.00000000000E+00 -0.45593999997E+02  0.45594000000E+02  0.51100000000E-03 0. -1.
    9900012    2    1    2    0    0  0.27661403294E+02 -0.53855672688E+01  0.29308831958E+02  0.50528865753E+02  0.30000017942E+02 0.  0.
         12    1    1    2    0    0 -0.27661403294E+02  0.53855672688E+01 -0.29308831958E+02  0.40659134247E+02  0.00000000000E+00 0. -1.
         11    1    3    3    0    0  0.20496423332E+01  0.96844040699E+00  0.54186652506E+01  0.58737418972E+01  0.51100000000E-03 0. -1.
        -11    1    3    3    0    0  0.15995180100E+02 -0.11846871057E+02  0.26629685738E+02  0.33246568290E+02  0.51100000000E-03 0.  1.
         12    1    3    3    0    0  0.96165808613E+01  0.54928633810E+01 -0.27395190310E+01  0.11408555566E+02  0.00000000000E+00 0. -1.
</event>
<event>
 7    1  0.5642630E-013  0.5052885E+02  0.7816164E-02  0.1300439E+00
        -11   -1    0    0    0    0  0.00000000000E+00  0.00000000000E+00  0.45593999997E+02  0.45594000000E+02  0.51100000000E-03 0.  1.
         11   -1    0    0    0    0 -0.00000000000E+00 -0.00000000000E+00 -0.45593999997E+02  0.45594000000E+02  0.51100000000E-03 0. -1.
    9900012    2    1    2    0    0  0.14439137028E+02 -0.58730396476E+01  0.37552434344E+02  0.50528848533E+02  0.29999965602E+02 0.  0.
         12    1    1    2    0    0 -0.14439137028E+02  0.58730396476E+01 -0.37552434344E+02  0.40659151467E+02  0.00000000000E+00 0. -1.
         11    1    3    3    0    0  0.11574023517E+02 -0.13358346686E+01  0.95030413155E+01  0.15034968212E+02  0.51100000000E-03 0. -1.
        -11    1    3    3    0    0  0.68765782370E+01  0.40149033107E+01  0.26458254799E+01  0.83908980196E+01  0.51100000000E-03 0.  1.
        -12    1    3    3    0    0 -0.40114647261E+01 -0.85521082897E+01  0.25403567549E+02  0.27102982302E+02  0.00000000000E+00 0.  1.
</event>
<event>
 7    1  0.5642630E-013  0.5052886E+02  0.7816164E-02  0.1300439E+00
        -11   -1    0    0    0    0  0.00000000000E+00  0.00000000000E+00  0.45593999997E+02  0.45594000000E+02  0.51100000000E-03 0.  1.
         11   -1    0    0    0    0 -0.00000000000E+00 -0.00000000000E+00 -0.45593999997E+02  0.45594000000E+02  0.51100000000E-03 0. -1.
    9900012    2    1    2    0    0  0.10219066413E+02 -0.38469570709E+02  0.82962947236E+01  0.50528859637E+02  0.29999999353E+02 0.  0.
         12    1    1    2    0    0 -0.10219066413E+02  0.38469570709E+02 -0.82962947236E+01  0.40659140363E+02  0.00000000000E+00 0. -1.
         11    1    3    3    0    0 -0.37284046445E-01 -0.80902675770E+00 -0.22437756463E+01  0.23854651133E+01  0.51100000000E-03 0. -1.
        -11    1    3    3    0    0 -0.72952797069E+00  0.30579071143E+01  0.45723911867E+01  0.55488528909E+01  0.51100000000E-03 0.  1.
         12    1    3    3    0    0  0.10985878430E+02 -0.40718451066E+02  0.59676791832E+01  0.42594541633E+02  0.00000000000E+00 0. -1.
</event>
<event>
 7    1  0.5642630E-013  0.5052887E+02  0.7816164E-02  0.1300439E+00
        -11   -1    0    0    0    0  0.00000000000E+00  0.00000000000E+00  0.45593999997E+02  0.45594000000E+02  0.51100000000E-03 0.  1.
         11   -1    0    0    0    0 -0.00000000000E+00 -0.00000000000E+00 -0.45593999997E+02  0.45594000000E+02  0.51100000000E-03 0. -1.
    9900012    2    1    2    0    0 -0.35146714885E+02  0.15033261503E+02  0.13851874402E+02  0.50528868885E+02  0.30000027462E+02 0.  0.
         12    1    1    2    0    0  0.35146714885E+02 -0.15033261503E+02 -0.13851874402E+02  0.40659131115E+02  0.00000000000E+00 0. -1.
         11    1    3    3    0    0 -0.12735609885E+02  0.16126415103E-01  0.14768627706E+02  0.19501496962E+02  0.51100000000E-03 0. -1.
        -11    1    3    3    0    0 -0.69298252682E+01 -0.23313659351E+00  0.49487180047E+01  0.85186055825E+01  0.51100000000E-03 0.  1.
         12    1    3    3    0    0 -0.15481279732E+02  0.15250271681E+02 -0.58654713087E+01  0.22508766340E+02  0.00000000000E+00 0. -1.
</event>
<event>
 7    1  0.5642630E-013  0.5052886E+02  0.7816164E-02  0.1300439E+00
        -11   -1    0    0    0    0  0.00000000000E+00  0.00000000000E+00  0.45593999997E+02  0.45594000000E+02  0.51100000000E-03 0. -1.
         11   -1    0    0    0    0 -0.00000000000E+00 -0.00000000000E+00 -0.45593999997E+02  0.45594000000E+02  0.51100000000E-03 0.  1.
    9900012    2    1    2    0    0  0.19058896484E+02 -0.25262149242E+02 -0.25529357286E+02  0.50528858310E+02  0.29999995320E+02 0.  0.
         12    1    1    2    0    0 -0.19058896484E+02  0.25262149242E+02  0.25529357286E+02  0.40659141690E+02  0.00000000000E+00 0. -1.
         11    1    3    3    0    0  0.18230396138E+02 -0.24932650456E+01 -0.83412975385E+01  0.20202498826E+02  0.51100000000E-03 0. -1.
        -11    1    3    3    0    0  0.39761185503E+01 -0.47275145144E+01 -0.18794380533E+01  0.64568722975E+01  0.51100000000E-03 0.  1.
         12    1    3    3    0    0 -0.31476182045E+01 -0.18041369682E+02 -0.15308621694E+02  0.23869487187E+02  0.00000000000E+00 0. -1.
</event>
<event>
 7    1  0.5642630E-013  0.5052886E+02  0.7816164E-02  0.1300439E+00
        -11   -1    0    0    0    0  0.00000000000E+00  0.00000000000E+00  0.45593999997E+02  0.45594000000E+02  0.51100000000E-03 0. -1.
         11   -1    0    0    0    0 -0.00000000000E+00 -0.00000000000E+00 -0.45593999997E+02  0.45594000000E+02  0.51100000000E-03 0.  1.
    9900012    2    1    2    0    0  0.99383640419E+01  0.26151735527E+02 -0.29503921595E+02  0.50528859080E+02  0.29999997659E+02 0.  0.
         12    1    1    2    0    0 -0.99383640419E+01 -0.26151735527E+02  0.29503921595E+02  0.40659140920E+02  0.00000000000E+00 0. -1.
         11    1    3    3    0    0  0.35716656338E+01  0.17213496027E+02 -0.73191098677E+01  0.19042862452E+02  0.51100000000E-03 0. -1.
        -11    1    3    3    0    0 -0.18782527306E+01  0.12984967584E+02 -0.12136976149E+02  0.17872979796E+02  0.51100000000E-03 0.  1.
        -12    1    3    3    0    0  0.82449511387E+01 -0.40467280837E+01 -0.10047835578E+02  0.13613016832E+02  0.00000000000E+00 0.  1.
</event>
<event>
 7    1  0.5642630E-013  0.5052881E+02  0.7816164E-02  0.1300439E+00
        -11   -1    0    0    0    0  0.00000000000E+00  0.00000000000E+00  0.45593999997E+02  0.45594000000E+02  0.51100000000E-03 0.  1.
         11   -1    0    0    0    0 -0.00000000000E+00 -0.00000000000E+00 -0.45593999997E+02  0.45594000000E+02  0.51100000000E-03 0. -1.
    9900012    2    1    2    0    0 -0.85624025719E+01 -0.12112884809E+02  0.37856744448E+02  0.50528808955E+02  0.29999845299E+02 0.  0.
         12    1    1    2    0    0  0.85624025719E+01  0.12112884809E+02 -0.37856744448E+02  0.40659191045E+02  0.00000000000E+00 0. -1.
         11    1    3    3    0    0 -0.69014553161E+01 -0.73637720553E+01  0.63778163285E+01  0.11938666833E+02  0.51100000000E-03 0. -1.
        -11    1    3    3    0    0 -0.87429116936E+01 -0.30946645196E+01  0.38873542246E+01  0.10056190954E+02  0.51100000000E-03 0.  1.
        -12    1    3    3    0    0  0.70819644378E+01 -0.16544482342E+01  0.27591573895E+02  0.28533951168E+02  0.00000000000E+00 0.  1.
</event>
<event>
 7    1  0.5642630E-013  0.5052885E+02  0.7816164E-02  0.1300439E+00
        -11   -1    0    0    0    0  0.00000000000E+00  0.00000000000E+00  0.45593999997E+02  0.45594000000E+02  0.51100000000E-03 0.  1.
         11   -1    0    0    0    0 -0.00000000000E+00 -0.00000000000E+00 -0.45593999997E+02  0.45594000000E+02  0.51100000000E-03 0. -1.
    9900012    2    1    2    0    0  0.53933450858E+00 -0.24672173449E+02  0.32313450274E+02  0.50528854743E+02  0.29999984477E+02 0.  0.
         12    1    1    2    0    0 -0.53933450858E+00  0.24672173449E+02 -0.32313450274E+02  0.40659145257E+02  0.00000000000E+00 0. -1.
         11    1    3    3    0    0  0.53114852490E+01 -0.54183259421E+01  0.29211706888E+01  0.81303979004E+01  0.51100000000E-03 0. -1.
        -11    1    3    3    0    0  0.83909714113E+01 -0.13370822506E+02  0.12135428081E+02  0.19911200634E+02  0.51100000000E-03 0.  1.
        -12    1    3    3    0    0 -0.13163122152E+02 -0.58830250009E+01  0.17256851505E+02  0.22487256209E+02  0.00000000000E+00 0.  1.
</event>
<event>
 7    1  0.5642630E-013  0.5052887E+02  0.7816164E-02  0.1300439E+00
        -11   -1    0    0    0    0  0.00000000000E+00  0.00000000000E+00  0.45593999997E+02  0.45594000000E+02  0.51100000000E-03 0.  1.
         11   -1    0    0    0    0 -0.00000000000E+00 -0.00000000000E+00 -0.45593999997E+02  0.45594000000E+02  0.51100000000E-03 0. -1.
    9900012    2    1    2    0    0 -0.18406850505E+02  0.20115103011E+02  0.30161817507E+02  0.50528871259E+02  0.30000034679E+02 0.  0.
         12    1    1    2    0    0  0.18406850505E+02 -0.20115103011E+02 -0.30161817507E+02  0.40659128741E+02  0.00000000000E+00 0. -1.
         11    1    3    3    0    0  0.27822606884E+01  0.36168593732E+01  0.14173569084E+02  0.14890020386E+02  0.51100000000E-03 0. -1.
        -11    1    3    3    0    0 -0.79489494955E+00 -0.32367586380E+01  0.70845605188E+00  0.34073999912E+01  0.51100000000E-03 0.  1.
         12    1    3    3    0    0 -0.20394216244E+02  0.19735002275E+02  0.15279792371E+02  0.32231450881E+02  0.00000000000E+00 0. -1.
</event>
<event>
 7    1  0.5642630E-013  0.5052887E+02  0.7816164E-02  0.1300439E+00
        -11   -1    0    0    0    0  0.00000000000E+00  0.00000000000E+00  0.45593999997E+02  0.45594000000E+02  0.51100000000E-03 0.  1.
         11   -1    0    0    0    0 -0.00000000000E+00 -0.00000000000E+00 -0.45593999997E+02  0.45594000000E+02  0.51100000000E-03 0. -1.
    9900012    2    1    2    0    0 -0.33386230364E+02  0.74864296157E+01  0.21965380734E+02  0.50528868712E+02  0.30000026936E+02 0.  0.
         12    1    1    2    0    0  0.33386230364E+02 -0.74864296157E+01 -0.21965380734E+02  0.40659131288E+02  0.00000000000E+00 0. -1.
         11    1    3    3    0    0 -0.13710103827E+02 -0.22573690157E+01  0.12278600502E+02  0.18542564342E+02  0.51100000000E-03 0. -1.
        -11    1    3    3    0    0 -0.11602163390E+02 -0.51922497691E+01  0.77750488651E+01  0.14900370402E+02  0.51100000000E-03 0.  1.
         12    1    3    3    0    0 -0.80739631469E+01  0.14936048401E+02  0.19117313665E+01  0.17085933967E+02  0.00000000000E+00 0. -1.
</event>
<event>
 7    1  0.5642630E-013  0.5052888E+02  0.7816164E-02  0.1300439E+00
        -11   -1    0    0    0    0  0.00000000000E+00  0.00000000000E+00  0.45593999997E+02  0.45594000000E+02  0.51100000000E-03 0.  1.
         11   -1    0    0    0    0 -0.00000000000E+00 -0.00000000000E+00 -0.45593999997E+02  0.45594000000E+02  0.51100000000E-03 0. -1.
    9900012    2    1    2    0    0  0.37205513339E+02 -0.16355387098E+02 -0.11894897270E+01  0.50528882994E+02  0.30000070348E+02 0.  0.
         12    1    1    2    0    0 -0.37205513339E+02  0.16355387098E+02  0.11894897270E+01  0.40659117006E+02  0.00000000000E+00 0. -1.
         11    1    3    3    0    0  0.19868954260E+02 -0.60557094685E+01  0.33152655071E+01  0.21034208951E+02  0.51100000000E-03 0. -1.
        -11    1    3    3    0    0  0.17638582188E+02 -0.27566142353E+01  0.38199598598E+01  0.18256795919E+02  0.51100000000E-03 0.  1.
         12    1    3    3    0    0 -0.30202310938E+00 -0.75430633942E+01 -0.83247150939E+01  0.11237878124E+02  0.00000000000E+00 0. -1.
</event>
<event>
 7    1  0.5642630E-013  0.5052884E+02  0.7816164E-02  0.1300439E+00
        -11   -1    0    0    0    0  0.00000000000E+00  0.00000000000E+00  0.45593999997E+02  0.45594000000E+02  0.51100000000E-03 0.  1.
         11   -1    0    0    0    0 -0.00000000000E+00 -0.00000000000E+00 -0.45593999997E+02  0.45594000000E+02  0.51100000000E-03 0. -1.
    9900012    2    1    2    0    0  0.23518080875E+02  0.89173874697E+01  0.31946012323E+02  0.50528835834E+02  0.29999927001E+02 0.  0.
         12    1    1    2    0    0 -0.23518080875E+02 -0.89173874697E+01 -0.31946012323E+02  0.40659164166E+02  0.00000000000E+00 0. -1.
         11    1    3    3    0    0  0.11619568487E+02  0.55956086471E+01  0.61689124883E+01  0.14296177444E+02  0.51100000000E-03 0. -1.
        -11    1    3    3    0    0  0.58936869802E+01  0.12506741720E+02  0.10212916934E+02  0.17188886155E+02  0.51100000000E-03 0.  1.
         12    1    3    3    0    0  0.60048254078E+01 -0.91849628971E+01  0.15564182900E+02  0.19043772235E+02  0.00000000000E+00 0. -1.
</event>
<event>
 7    1  0.5642630E-013  0.5052887E+02  0.7816164E-02  0.1300439E+00
        -11   -1    0    0    0    0  0.00000000000E+00  0.00000000000E+00  0.45593999997E+02  0.45594000000E+02  0.51100000000E-03 0.  1.
         11   -1    0    0    0    0 -0.00000000000E+00 -0.00000000000E+00 -0.45593999997E+02  0.45594000000E+02  0.51100000000E-03 0. -1.
    9900012    2    1    2    0    0 -0.31940410507E+01 -0.30354214041E+02  0.26862322322E+02  0.50528873487E+02  0.30000041451E+02 0.  0.
         12    1    1    2    0    0  0.31940410507E+01  0.30354214041E+02 -0.26862322322E+02  0.40659126513E+02  0.00000000000E+00 0. -1.
         11    1    3    3    0    0 -0.18265555626E+01  0.62158688585E+00  0.33889377235E+01  0.38996890433E+01  0.51100000000E-03 0. -1.
        -11    1    3    3    0    0 -0.11415106019E+02 -0.51115875552E+01  0.82050294310E+01  0.14958458510E+02  0.51100000000E-03 0.  1.
        -12    1    3    3    0    0  0.10047620531E+02 -0.25864213371E+02  0.15268355168E+02  0.31670725934E+02  0.00000000000E+00 0.  1.
</event>
<event>
 7    1  0.5642630E-013  0.5052886E+02  0.7816164E-02  0.1300439E+00
        -11   -1    0    0    0    0  0.00000000000E+00  0.00000000000E+00  0.45593999997E+02  0.45594000000E+02  0.51100000000E-03 0.  1.
         11   -1    0    0    0    0 -0.00000000000E+00 -0.00000000000E+00 -0.45593999997E+02  0.45594000000E+02  0.51100000000E-03 0. -1.
    9900012    2    1    2    0    0 -0.74710859674E+01  0.44853645986E+01  0.39714358763E+02  0.50528856956E+02  0.29999991203E+02 0.  0.
         12    1    1    2    0    0  0.74710859674E+01 -0.44853645986E+01 -0.39714358763E+02  0.40659143044E+02  0.00000000000E+00 0. -1.
         11    1    3    3    0    0  0.79748074063E+01 -0.16210209731E+01  0.58330033285E+01  0.10012451760E+02  0.51100000000E-03 0. -1.
        -11    1    3    3    0    0 -0.59123229614E+01 -0.48774378518E+01  0.12249621453E+02  0.14449850823E+02  0.51100000000E-03 0.  1.
        -12    1    3    3    0    0 -0.95335704124E+01  0.10983823423E+02  0.21631733981E+02  0.26066554372E+02  0.00000000000E+00 0.  1.
</event>
<event>
 7    1  0.5642630E-013  0.5052885E+02  0.7816164E-02  0.1300439E+00
        -11   -1    0    0    0    0  0.00000000000E+00  0.00000000000E+00  0.45593999997E+02  0.45594000000E+02  0.51100000000E-03 0.  1.
         11   -1    0    0    0    0 -0.00000000000E+00 -0.00000000000E+00 -0.45593999997E+02  0.45594000000E+02  0.51100000000E-03 0. -1.
    9900012    2    1    2    0    0 -0.15639819443E+02 -0.28617762512E+02  0.24281396044E+02  0.50528850018E+02  0.29999970116E+02 0.  0.
         12    1    1    2    0    0  0.15639819443E+02  0.28617762512E+02 -0.24281396044E+02  0.40659149982E+02  0.00000000000E+00 0. -1.
         11    1    3    3    0    0 -0.50060695584E+01 -0.12361854713E+02  0.39128162889E+01  0.13899148029E+02  0.51100000000E-03 0. -1.
        -11    1    3    3    0    0 -0.89504849599E+01 -0.12037312576E+02  0.25618947982E+02  0.29687346986E+02  0.51100000000E-03 0.  1.
         12    1    3    3    0    0 -0.16832649249E+01 -0.42185952230E+01 -0.52503682277E+01  0.69423550032E+01  0.00000000000E+00 0. -1.
</event>
<event>
 7    1  0.5642630E-013  0.5052886E+02  0.7816164E-02  0.1300439E+00
        -11   -1    0    0    0    0  0.00000000000E+00  0.00000000000E+00  0.45593999997E+02  0.45594000000E+02  0.51100000000E-03 0. -1.
         11   -1    0    0    0    0 -0.00000000000E+00 -0.00000000000E+00 -0.45593999997E+02  0.45594000000E+02  0.51100000000E-03 0.  1.
    9900012    2    1    2    0    0 -0.13073746283E+02  0.15336231443E+02 -0.35313491394E+02  0.50528861898E+02  0.30000006226E+02 0.  0.
         12    1    1    2    0    0  0.13073746283E+02 -0.15336231443E+02  0.35313491394E+02  0.40659138102E+02  0.00000000000E+00 0. -1.
         11    1    3    3    0    0 -0.19161497820E+01  0.10059314588E+02 -0.15080614082E+01  0.10350637152E+02  0.51100000000E-03 0. -1.
        -11    1    3    3    0    0 -0.12084714426E+01  0.34264393659E+01  0.11313127243E+01  0.38053592074E+01  0.51100000000E-03 0.  1.
        -12    1    3    3    0    0 -0.99491250588E+01  0.18504774888E+01 -0.34936742710E+02  0.36372865539E+02  0.00000000000E+00 0.  1.
</event>
<event>
 7    1  0.5642630E-013  0.5052888E+02  0.7816164E-02  0.1300439E+00
        -11   -1    0    0    0    0  0.00000000000E+00  0.00000000000E+00  0.45593999997E+02  0.45594000000E+02  0.51100000000E-03 0. -1.
         11   -1    0    0    0    0 -0.00000000000E+00 -0.00000000000E+00 -0.45593999997E+02  0.45594000000E+02  0.51100000000E-03 0.  1.
    9900012    2    1    2    0    0 -0.19012478711E+02  0.24176903487E+02 -0.26592607928E+02  0.50528882875E+02  0.30000069988E+02 0.  0.
         12    1    1    2    0    0  0.19012478711E+02 -0.24176903487E+02  0.26592607928E+02  0.40659117125E+02  0.00000000000E+00 0. -1.
         11    1    3    3    0    0 -0.71746331688E+01  0.17005559971E+02 -0.11746640085E+02  0.21878025153E+02  0.51100000000E-03 0. -1.
        -11    1    3    3    0    0 -0.12399364777E+02  0.11052483118E+02 -0.17333156941E+02  0.24007081450E+02  0.51100000000E-03 0.  1.
        -12    1    3    3    0    0  0.56151923473E+00 -0.38811396018E+01  0.24871890982E+01  0.46437762726E+01  0.00000000000E+00 0.  1.
</event>
<event>
 7    1  0.5642630E-013  0.5052887E+02  0.7816164E-02  0.1300439E+00
        -11   -1    0    0    0    0  0.00000000000E+00  0.00000000000E+00  0.45593999997E+02  0.45594000000E+02  0.51100000000E-03 0.  1.
         11   -1    0    0    0    0 -0.00000000000E+00 -0.00000000000E+00 -0.45593999997E+02  0.45594000000E+02  0.51100000000E-03 0. -1.
    9900012    2    1    2    0    0 -0.19147675862E+02  0.14134437510E+01  0.35840395189E+02  0.50528865215E+02  0.30000016306E+02 0.  0.
         12    1    1    2    0    0  0.19147675862E+02 -0.14134437510E+01 -0.35840395189E+02  0.40659134785E+02  0.00000000000E+00 0. -1.
         11    1    3    3    0    0 -0.67398894360E-01  0.12144391586E+01  0.26059098333E+01  0.28757905698E+01  0.51100000000E-03 0. -1.
        -11    1    3    3    0    0 -0.20851146384E+02  0.63905892432E+01  0.34760042974E+02  0.41034991461E+02  0.51100000000E-03 0.  1.
         12    1    3    3    0    0  0.17708694157E+01 -0.61915846508E+01 -0.15255576183E+01  0.66180831834E+01  0.00000000000E+00 0. -1.
</event>
<event>
 7    1  0.5642630E-013  0.5052886E+02  0.7816164E-02  0.1300439E+00
        -11   -1    0    0    0    0  0.00000000000E+00  0.00000000000E+00  0.45593999997E+02  0.45594000000E+02  0.51100000000E-03 0.  1.
         11   -1    0    0    0    0 -0.00000000000E+00 -0.00000000000E+00 -0.45593999997E+02  0.45594000000E+02  0.51100000000E-03 0. -1.
    9900012    2    1    2    0    0 -0.53644328967E+00  0.40256231506E+02  0.56845345477E+01  0.50528857369E+02  0.29999992459E+02 0.  0.
         12    1    1    2    0    0  0.53644328967E+00 -0.40256231506E+02 -0.56845345477E+01  0.40659142631E+02  0.00000000000E+00 0. -1.
         11    1    3    3    0    0  0.63254805931E+01  0.51908322285E+01  0.53211071877E+01  0.97606672888E+01  0.51100000000E-03 0. -1.
        -11    1    3    3    0    0  0.25832976034E+01 -0.14929858824E+01 -0.33866483605E+00  0.30028532240E+01  0.51100000000E-03 0.  1.
        -12    1    3    3    0    0 -0.94452214862E+01  0.36558385160E+02  0.70209219605E+00  0.37765336856E+02  0.00000000000E+00 0.  1.
</event>
<event>
 7    1  0.5642630E-013  0.5052886E+02  0.7816164E-02  0.1300439E+00
        -11   -1    0    0    0    0  0.00000000000E+00  0.00000000000E+00  0.45593999997E+02  0.45594000000E+02  0.51100000000E-03 0.  1.
         11   -1    0    0    0    0 -0.00000000000E+00 -0.00000000000E+00 -0.45593999997E+02  0.45594000000E+02  0.51100000000E-03 0. -1.
    9900012    2    1    2    0    0  0.37537523089E+02 -0.68874675456E+01  0.14023649735E+02  0.50528860797E+02  0.30000002878E+02 0.  0.
         12    1    1    2    0    0 -0.37537523089E+02  0.68874675456E+01 -0.14023649735E+02  0.40659139203E+02  0.00000000000E+00 0. -1.
         11    1    3    3    0    0  0.10703906494E+02 -0.87165787620E+01  0.53630393115E+00  0.13814484489E+02  0.51100000000E-03 0.  1.
        -11    1    3    3    0    0  0.24429037994E+02 -0.50568651078E+01  0.15212563639E+02  0.29219374989E+02  0.51100000000E-03 0. -1.
         12    1    3    3    0    0  0.24045786018E+01  0.68859763241E+01 -0.17252178349E+01  0.74950013186E+01  0.00000000000E+00 0. -1.
</event>
<event>
 7    1  0.5642630E-013  0.5052887E+02  0.7816164E-02  0.1300439E+00
        -11   -1    0    0    0    0  0.00000000000E+00  0.00000000000E+00  0.45593999997E+02  0.45594000000E+02  0.51100000000E-03 0.  1.
         11   -1    0    0    0    0 -0.00000000000E+00 -0.00000000000E+00 -0.45593999997E+02  0.45594000000E+02  0.51100000000E-03 0. -1.
    9900012    2    1    2    0    0 -0.23883390719E+02  0.53280310346E+01  0.32470919242E+02  0.50528869865E+02  0.30000030440E+02 0.  0.
         12    1    1    2    0    0  0.23883390719E+02 -0.53280310346E+01 -0.32470919242E+02  0.40659130135E+02  0.00000000000E+00 0. -1.
         11    1    3    3    0    0 -0.20265587401E+01 -0.96643186567E+01  0.98548325875E+01  0.13950760589E+02  0.51100000000E-03 0. -1.
        -11    1    3    3    0    0  0.18026729021E+00  0.26824505605E+01  0.53747121154E+01  0.60096229407E+01  0.51100000000E-03 0.  1.
        -12    1    3    3    0    0 -0.22037099269E+02  0.12309899131E+02  0.17241374540E+02  0.30568486335E+02  0.00000000000E+00 0.  1.
</event>
<event>
 7    1  0.5642630E-013  0.5052886E+02  0.7816164E-02  0.1300439E+00
        -11   -1    0    0    0    0  0.00000000000E+00  0.00000000000E+00  0.45593999997E+02  0.45594000000E+02  0.51100000000E-03 0.  1.
         11   -1    0    0    0    0 -0.00000000000E+00 -0.00000000000E+00 -0.45593999997E+02  0.45594000000E+02  0.51100000000E-03 0. -1.
    9900012    2    1    2    0    0 -0.30918254684E+02  0.22874876179E+02  0.13189652216E+02  0.50528863776E+02  0.30000011934E+02 0.  0.
         12    1    1    2    0    0  0.30918254684E+02 -0.22874876179E+02 -0.13189652216E+02  0.40659136224E+02  0.00000000000E+00 0. -1.
         11    1    3    3    0    0 -0.12932791054E+02 -0.32737518515E+01 -0.21754303759E+01  0.13516916557E+02  0.51100000000E-03 0. -1.
        -11    1    3    3    0    0 -0.22190618861E+01  0.22731798604E+00  0.40639174072E+01  0.46358746828E+01  0.51100000000E-03 0.  1.
        -12    1    3    3    0    0 -0.15766401744E+02  0.25921310044E+02  0.11301165184E+02  0.32376072537E+02  0.00000000000E+00 0.  1.
</event>
<event>
 7    1  0.5642630E-013  0.5052887E+02  0.7816164E-02  0.1300439E+00
        -11   -1    0    0    0    0  0.00000000000E+00  0.00000000000E+00  0.45593999997E+02  0.45594000000E+02  0.51100000000E-03 0.  1.
         11   -1    0    0    0    0 -0.00000000000E+00 -0.00000000000E+00 -0.45593999997E+02  0.45594000000E+02  0.51100000000E-03 0. -1.
    9900012    2    1    2    0    0 -0.14489209364E+01  0.93792366737E+01  0.39536002657E+02  0.50528868694E+02  0.30000026883E+02 0.  0.
         12    1    1    2    0    0  0.14489209364E+01 -0.93792366737E+01 -0.39536002657E+02  0.40659131306E+02  0.00000000000E+00 0. -1.
         11    1    3    3    0    0  0.20568836255E+01  0.99611365182E+01  0.22364494099E+02  0.24568793367E+02  0.51100000000E-03 0. -1.
        -11    1    3    3    0    0  0.12260499196E+01  0.84998475570E+01  0.11172821054E+02  0.14091931644E+02  0.51100000000E-03 0.  1.
        -12    1    3    3    0    0 -0.47318544815E+01 -0.90817474016E+01  0.59986875041E+01  0.11868143683E+02  0.00000000000E+00 0.  1.
</event>
<event>
 7    1  0.5642630E-013  0.5052886E+02  0.7816164E-02  0.1300439E+00
        -11   -1    0    0    0    0  0.00000000000E+00  0.00000000000E+00  0.45593999997E+02  0.45594000000E+02  0.51100000000E-03 0.  1.
         11   -1    0    0    0    0 -0.00000000000E+00 -0.00000000000E+00 -0.45593999997E+02  0.45594000000E+02  0.51100000000E-03 0. -1.
    9900012    2    1    2    0    0 -0.47083431241E+00  0.31041132528E+02  0.26256278794E+02  0.50528858719E+02  0.29999996564E+02 0.  0.
         12    1    1    2    0    0  0.47083431241E+00 -0.31041132528E+02 -0.26256278794E+02  0.40659141281E+02  0.00000000000E+00 0. -1.
         11    1    3    3    0    0 -0.14151539505E+01  0.10514817276E+02  0.14617458358E+02  0.18061952612E+02  0.51100000000E-03 0. -1.
        -11    1    3    3    0    0 -0.84124698638E+01  0.13333625903E+02  0.13200302804E+02  0.20562179439E+02  0.51100000000E-03 0.  1.
         12    1    3    3    0    0  0.93567895019E+01  0.71926893500E+01 -0.15614823678E+01  0.11904726669E+02  0.00000000000E+00 0. -1.
</event>
<event>
 7    1  0.5642630E-013  0.5052886E+02  0.7816164E-02  0.1300439E+00
        -11   -1    0    0    0    0  0.00000000000E+00  0.00000000000E+00  0.45593999997E+02  0.45594000000E+02  0.51100000000E-03 0. -1.
         11   -1    0    0    0    0 -0.00000000000E+00 -0.00000000000E+00 -0.45593999997E+02  0.45594000000E+02  0.51100000000E-03 0.  1.
    9900012    2    1    2    0    0 -0.10732663600E+02  0.30361648549E+02  0.24822287784E+02  0.50528859067E+02  0.29999997620E+02 0.  0.
         12    1    1    2    0    0  0.10732663600E+02 -0.30361648549E+02 -0.24822287784E+02  0.40659140933E+02  0.00000000000E+00 0. -1.
         11    1    3    3    0    0 -0.34517423703E+01  0.68938122199E+01  0.15844177029E+01  0.78708037729E+01  0.51100000000E-03 0. -1.
        -11    1    3    3    0    0 -0.68879138259E+00  0.98904425021E+01 -0.46478404178E+01  0.10949781152E+02  0.51100000000E-03 0.  1.
         12    1    3    3    0    0 -0.65921298476E+01  0.13577393827E+02  0.27885710499E+02  0.31708274142E+02  0.00000000000E+00 0. -1.
</event>
<event>
 7    1  0.5642630E-013  0.5052892E+02  0.7816164E-02  0.1300439E+00
        -11   -1    0    0    0    0  0.00000000000E+00  0.00000000000E+00  0.45593999997E+02  0.45594000000E+02  0.51100000000E-03 0. -1.
         11   -1    0    0    0    0 -0.00000000000E+00 -0.00000000000E+00 -0.45593999997E+02  0.45594000000E+02  0.51100000000E-03 0.  1.
    9900012    2    1    2    0    0 -0.22822249372E+02 -0.33148120622E+02  0.57886208599E+01  0.50528916161E+02  0.30000171162E+02 0.  0.
         12    1    1    2    0    0  0.22822249372E+02  0.33148120622E+02 -0.57886208599E+01  0.40659083839E+02  0.00000000000E+00 0. -1.
         11    1    3    3    0    0 -0.46724905315E-01 -0.90693206347E+01  0.57090387613E+01  0.10716710495E+02  0.51100000000E-03 0. -1.
        -11    1    3    3    0    0 -0.19080474956E+02 -0.26718006090E+02  0.48938314522E+01  0.33194366397E+02  0.51100000000E-03 0.  1.
        -12    1    3    3    0    0 -0.36950495113E+01  0.26392061030E+01 -0.48142493536E+01  0.66178392685E+01  0.00000000000E+00 0.  1.
</event>
<event>
 7    1  0.5642630E-013  0.5052886E+02  0.7816164E-02  0.1300439E+00
        -11   -1    0    0    0    0  0.00000000000E+00  0.00000000000E+00  0.45593999997E+02  0.45594000000E+02  0.51100000000E-03 0.  1.
         11   -1    0    0    0    0 -0.00000000000E+00 -0.00000000000E+00 -0.45593999997E+02  0.45594000000E+02  0.51100000000E-03 0. -1.
    9900012    2    1    2    0    0 -0.13315994883E+02  0.67666820477E+01  0.37816162203E+02  0.50528857984E+02  0.29999994329E+02 0.  0.
         12    1    1    2    0    0  0.13315994883E+02 -0.67666820477E+01 -0.37816162203E+02  0.40659142016E+02  0.00000000000E+00 0. -1.
         11    1    3    3    0    0 -0.11711766265E+01  0.55185253952E+01  0.13301398372E+02  0.14448286270E+02  0.51100000000E-03 0. -1.
        -11    1    3    3    0    0 -0.13164575610E+01  0.45325986347E+01  0.24309214324E+02  0.24763186633E+02  0.51100000000E-03 0.  1.
         12    1    3    3    0    0 -0.10828360696E+02 -0.32844419821E+01  0.20554950775E+00  0.11317385082E+02  0.00000000000E+00 0. -1.
</event>
<event>
 7    1  0.6882846E-013  0.5052886E+02  0.7816164E-02  0.1300439E+00
        -11   -1    0    0    0    0  0.00000000000E+00  0.00000000000E+00  0.45593999997E+02  0.45594000000E+02  0.51100000000E-03 0. -1.
         11   -1    0    0    0    0 -0.00000000000E+00 -0.00000000000E+00 -0.45593999997E+02  0.45594000000E+02  0.51100000000E-03 0.  1.
    9900012    2    1    2    0    0 -0.14347301554E+02 -0.21154161454E+02 -0.31619965102E+02  0.50528858325E+02  0.29999995365E+02 0.  0.
         12    1    1    2    0    0  0.14347301554E+02  0.21154161454E+02  0.31619965102E+02  0.40659141675E+02  0.00000000000E+00 0. -1.
         11    1    3    3    0    0 -0.46964651532E+01 -0.37992543009E+01  0.47628936129E+01  0.76926116506E+01  0.51100000000E-03 0. -1.
        -11    1    3    3    0    0 -0.91833911534E+01 -0.86150303285E+01 -0.14143087035E+02  0.18936217462E+02  0.51100000000E-03 0.  1.
        -12    1    3    3    0    0 -0.46744524727E+00 -0.87398768251E+01 -0.22239771680E+02  0.23900029212E+02  0.00000000000E+00 0.  1.
</event>
<event>
 7    1  0.5642630E-013  0.5052886E+02  0.7816164E-02  0.1300439E+00
        -11   -1    0    0    0    0  0.00000000000E+00  0.00000000000E+00  0.45593999997E+02  0.45594000000E+02  0.51100000000E-03 0. -1.
         11   -1    0    0    0    0 -0.00000000000E+00 -0.00000000000E+00 -0.45593999997E+02  0.45594000000E+02  0.51100000000E-03 0.  1.
    9900012    2    1    2    0    0  0.13382408501E+01  0.40480706631E+02  0.35619272224E+01  0.50528858058E+02  0.29999994552E+02 0.  0.
         12    1    1    2    0    0 -0.13382408501E+01 -0.40480706631E+02 -0.35619272224E+01  0.40659141942E+02  0.00000000000E+00 0. -1.
         11    1    3    3    0    0 -0.66794516334E+01  0.38230970239E+01 -0.25035875685E+01  0.80931511756E+01  0.51100000000E-03 0. -1.
        -11    1    3    3    0    0  0.62744419347E+01  0.77603979914E+01  0.88682710189E+01  0.13350604095E+02  0.51100000000E-03 0.  1.
        -12    1    3    3    0    0  0.17432505488E+01  0.28897211616E+02 -0.28027562280E+01  0.29085102787E+02  0.00000000000E+00 0.  1.
</event>
<event>
 7    1  0.5642630E-013  0.5052886E+02  0.7816164E-02  0.1300439E+00
        -11   -1    0    0    0    0  0.00000000000E+00  0.00000000000E+00  0.45593999997E+02  0.45594000000E+02  0.51100000000E-03 0.  1.
         11   -1    0    0    0    0 -0.00000000000E+00 -0.00000000000E+00 -0.45593999997E+02  0.45594000000E+02  0.51100000000E-03 0. -1.
    9900012    2    1    2    0    0 -0.31890441842E+01 -0.12137948088E+01  0.40515707313E+02  0.50528857858E+02  0.29999993946E+02 0.  0.
         12    1    1    2    0    0  0.31890441842E+01  0.12137948088E+01 -0.40515707313E+02  0.40659142142E+02  0.00000000000E+00 0. -1.
         11    1    3    3    0    0  0.97516884015E+00 -0.60579895598E+01  0.73204458860E+01  0.95519170853E+01  0.51100000000E-03 0. -1.
        -11    1    3    3    0    0  0.59943641685E+01 -0.43225999829E+01  0.32891911188E+01  0.80892552731E+01  0.51100000000E-03 0.  1.
        -12    1    3    3    0    0 -0.10158577193E+02  0.91667947338E+01  0.29906070308E+02  0.32887685500E+02  0.00000000000E+00 0.  1.
</event>
<event>
 7    1  0.5642630E-013  0.5052886E+02  0.7816164E-02  0.1300439E+00
        -11   -1    0    0    0    0  0.00000000000E+00  0.00000000000E+00  0.45593999997E+02  0.45594000000E+02  0.51100000000E-03 0.  1.
         11   -1    0    0    0    0 -0.00000000000E+00 -0.00000000000E+00 -0.45593999997E+02  0.45594000000E+02  0.51100000000E-03 0. -1.
    9900012    2    1    2    0    0 -0.17512939266E+02 -0.13654195795E+02  0.34059153004E+02  0.50528855790E+02  0.29999987658E+02 0.  0.
         12    1    1    2    0    0  0.17512939266E+02  0.13654195795E+02 -0.34059153004E+02  0.40659144210E+02  0.00000000000E+00 0. -1.
         11    1    3    3    0    0 -0.10907437685E+02 -0.46020509547E+01  0.29864153802E+02  0.32125048676E+02  0.51100000000E-03 0. -1.
        -11    1    3    3    0    0  0.26195158562E+01 -0.47381630922E+01  0.59777315118E+01  0.80650683257E+01  0.51100000000E-03 0.  1.
        -12    1    3    3    0    0 -0.92250174370E+01 -0.43139817483E+01 -0.17827323097E+01  0.10338738788E+02  0.00000000000E+00 0.  1.
</event>
<event>
 7    1  0.5642630E-013  0.5052887E+02  0.7816164E-02  0.1300439E+00
        -11   -1    0    0    0    0  0.00000000000E+00  0.00000000000E+00  0.45593999997E+02  0.45594000000E+02  0.51100000000E-03 0.  1.
         11   -1    0    0    0    0 -0.00000000000E+00 -0.00000000000E+00 -0.45593999997E+02  0.45594000000E+02  0.51100000000E-03 0. -1.
    9900012    2    1    2    0    0 -0.84750924243E+01 -0.32952336470E+02  0.22259404249E+02  0.50528871283E+02  0.30000034753E+02 0.  0.
         12    1    1    2    0    0  0.84750924243E+01  0.32952336470E+02 -0.22259404249E+02  0.40659128717E+02  0.00000000000E+00 0. -1.
         11    1    3    3    0    0  0.88513326537E+01 -0.52279552569E+01  0.16962353679E+01  0.10418964469E+02  0.51100000000E-03 0. -1.
        -11    1    3    3    0    0  0.86543507573E+00 -0.36178625863E+01  0.47086102765E+01  0.60007431674E+01  0.51100000000E-03 0.  1.
         12    1    3    3    0    0 -0.18191860154E+02 -0.24106518627E+02  0.15854558605E+02  0.34109163647E+02  0.00000000000E+00 0. -1.
</event>
<event>
 7    1  0.5642630E-013  0.5052886E+02  0.7816164E-02  0.1300439E+00
        -11   -1    0    0    0    0  0.00000000000E+00  0.00000000000E+00  0.45593999997E+02  0.45594000000E+02  0.51100000000E-03 0. -1.
         11   -1    0    0    0    0 -0.00000000000E+00 -0.00000000000E+00 -0.45593999997E+02  0.45594000000E+02  0.51100000000E-03 0.  1.
    9900012    2    1    2    0    0  0.56791106651E+01 -0.19548496486E+02 -0.35196162698E+02  0.50528857345E+02  0.29999992386E+02 0.  0.
         12    1    1    2    0    0 -0.56791106651E+01  0.19548496486E+02  0.35196162698E+02  0.40659142655E+02  0.00000000000E+00 0. -1.
         11    1    3    3    0    0 -0.26523460736E+01 -0.51468690245E+01 -0.33488908751E+01  0.66888168463E+01  0.51100000000E-03 0. -1.
        -11    1    3    3    0    0  0.85497760032E+01 -0.15341220431E+02 -0.68928540844E+01  0.18866985761E+02  0.51100000000E-03 0.  1.
        -12    1    3    3    0    0 -0.21831926454E+00  0.93959297016E+00 -0.24954417738E+02  0.24973054737E+02  0.00000000000E+00 0.  1.
</event>
<event>
 7    1  0.5642630E-013  0.5052886E+02  0.7816164E-02  0.1300439E+00
        -11   -1    0    0    0    0  0.00000000000E+00  0.00000000000E+00  0.45593999997E+02  0.45594000000E+02  0.51100000000E-03 0.  1.
         11   -1    0    0    0    0 -0.00000000000E+00 -0.00000000000E+00 -0.45593999997E+02  0.45594000000E+02  0.51100000000E-03 0. -1.
    9900012    2    1    2    0    0  0.14839579226E+02 -0.23243081469E+02  0.29878284050E+02  0.50528858278E+02  0.29999995223E+02 0.  0.
         12    1    1    2    0    0 -0.14839579226E+02  0.23243081469E+02 -0.29878284050E+02  0.40659141722E+02  0.00000000000E+00 0. -1.
         11    1    3    3    0    0  0.12979394820E+02 -0.97419490714E+01  0.99497361169E+01  0.19035953106E+02  0.51100000000E-03 0. -1.
        -11    1    3    3    0    0  0.80291385577E+01 -0.15255110855E+02  0.17688351747E+02  0.24699458718E+02  0.51100000000E-03 0.  1.
         12    1    3    3    0    0 -0.61689541526E+01  0.17539784574E+01  0.22401961860E+01  0.67934464536E+01  0.00000000000E+00 0. -1.
</event>
<event>
 7    1  0.5642630E-013  0.5052887E+02  0.7816164E-02  0.1300439E+00
        -11   -1    0    0    0    0  0.00000000000E+00  0.00000000000E+00  0.45593999997E+02  0.45594000000E+02  0.51100000000E-03 0. -1.
         11   -1    0    0    0    0 -0.00000000000E+00 -0.00000000000E+00 -0.45593999997E+02  0.45594000000E+02  0.51100000000E-03 0.  1.
    9900012    2    1    2    0    0 -0.11390862710E+02 -0.36736372319E+02  0.13185308020E+02  0.50528866315E+02  0.30000019650E+02 0.  0.
         12    1    1    2    0    0  0.11390862710E+02  0.36736372319E+02 -0.13185308020E+02  0.40659133685E+02  0.00000000000E+00 0. -1.
         11    1    3    3    0    0  0.20853963297E+00  0.30762992963E+01  0.73985347820E+01  0.80153242805E+01  0.51100000000E-03 0. -1.
        -11    1    3    3    0    0 -0.37924475721E+00 -0.11181736807E+02  0.32875455585E+01  0.11661175784E+02  0.51100000000E-03 0.  1.
        -12    1    3    3    0    0 -0.11220157586E+02 -0.28630934808E+02  0.24992276800E+01  0.30852366250E+02  0.00000000000E+00 0.  1.
</event>
<event>
 7    1  0.5642630E-013  0.5052885E+02  0.7816164E-02  0.1300439E+00
        -11   -1    0    0    0    0  0.00000000000E+00  0.00000000000E+00  0.45593999997E+02  0.45594000000E+02  0.51100000000E-03 0.  1.
         11   -1    0    0    0    0 -0.00000000000E+00 -0.00000000000E+00 -0.45593999997E+02  0.45594000000E+02  0.51100000000E-03 0. -1.
    9900012    2    1    2    0    0  0.40001690409E+02 -0.38901106710E+01  0.61561902378E+01  0.50528845129E+02  0.29999955254E+02 0.  0.
         12    1    1    2    0    0 -0.40001690409E+02  0.38901106710E+01 -0.61561902378E+01  0.40659154871E+02  0.00000000000E+00 0. -1.
         11    1    3    3    0    0  0.20000373024E+01 -0.24393838438E+01  0.61641224029E+01  0.69243879157E+01  0.51100000000E-03 0.  1.
        -11    1    3    3    0    0  0.40710065997E+02 -0.13814428184E+01  0.91063716260E+00  0.40743675804E+02  0.51100000000E-03 0. -1.
         12    1    3    3    0    0 -0.27084128908E+01 -0.69284008732E-01 -0.91856932768E+00  0.28607814091E+01  0.00000000000E+00 0. -1.
</event>
<event>
 7    1  0.5642630E-013  0.5052884E+02  0.7816164E-02  0.1300439E+00
        -11   -1    0    0    0    0  0.00000000000E+00  0.00000000000E+00  0.45593999997E+02  0.45594000000E+02  0.51100000000E-03 0. -1.
         11   -1    0    0    0    0 -0.00000000000E+00 -0.00000000000E+00 -0.45593999997E+02  0.45594000000E+02  0.51100000000E-03 0.  1.
    9900012    2    1    2    0    0 -0.19534198270E+02 -0.21227589559E+02 -0.28652604182E+02  0.50528841291E+02  0.29999943587E+02 0.  0.
         12    1    1    2    0    0  0.19534198270E+02  0.21227589559E+02  0.28652604182E+02  0.40659158709E+02  0.00000000000E+00 0. -1.
         11    1    3    3    0    0 -0.75922033727E+01  0.88501695911E+00 -0.14710311934E+01  0.77838769327E+01  0.51100000000E-03 0. -1.
        -11    1    3    3    0    0 -0.13607121652E+02 -0.45759457283E+01 -0.17531545144E+02  0.22659393513E+02  0.51100000000E-03 0.  1.
        -12    1    3    3    0    0  0.16651267549E+01 -0.17536660790E+02 -0.96500278445E+01  0.20085570845E+02  0.00000000000E+00 0.  1.
</event>
<event>
 7    1  0.5642630E-013  0.5052887E+02  0.7816164E-02  0.1300439E+00
        -11   -1    0    0    0    0  0.00000000000E+00  0.00000000000E+00  0.45593999997E+02  0.45594000000E+02  0.51100000000E-03 0.  1.
         11   -1    0    0    0    0 -0.00000000000E+00 -0.00000000000E+00 -0.45593999997E+02  0.45594000000E+02  0.51100000000E-03 0. -1.
    9900012    2    1    2    0    0 -0.51549537606E+01 -0.25312140927E+02  0.31398833838E+02  0.50528870730E+02  0.30000033071E+02 0.  0.
         12    1    1    2    0    0  0.51549537606E+01  0.25312140927E+02 -0.31398833838E+02  0.40659129270E+02  0.00000000000E+00 0. -1.
         11    1    3    3    0    0  0.45043159808E+01 -0.11608349591E+02  0.16802055164E+02  0.20912955331E+02  0.51100000000E-03 0. -1.
        -11    1    3    3    0    0  0.17523980295E+01 -0.14106575337E+02  0.95917327606E+01  0.17148402381E+02  0.51100000000E-03 0.  1.
        -12    1    3    3    0    0 -0.11411667771E+02  0.40278400121E+00  0.50050459135E+01  0.12467513018E+02  0.00000000000E+00 0.  1.
</event>
<event>
 7    1  0.5642630E-013  0.5052886E+02  0.7816164E-02  0.1300439E+00
        -11   -1    0    0    0    0  0.00000000000E+00  0.00000000000E+00  0.45593999997E+02  0.45594000000E+02  0.51100000000E-03 0. -1.
         11   -1    0    0    0    0 -0.00000000000E+00 -0.00000000000E+00 -0.45593999997E+02  0.45594000000E+02  0.51100000000E-03 0.  1.
    9900012    2    1    2    0    0  0.35378957556E+02  0.20035988715E+02 -0.23336501238E+00  0.50528856615E+02  0.29999990168E+02 0.  0.
         12    1    1    2    0    0 -0.35378957556E+02 -0.20035988715E+02  0.23336501238E+00  0.40659143385E+02  0.00000000000E+00 0. -1.
         11    1    3    3    0    0  0.46518236730E+01  0.84023315202E+01 -0.53699027719E+01  0.11003385593E+02  0.51100000000E-03 0. -1.
        -11    1    3    3    0    0  0.28848109111E+02  0.16413265071E+02  0.14845148193E+01  0.33223673097E+02  0.51100000000E-03 0.  1.
         12    1    3    3    0    0  0.18790247721E+01 -0.47796078754E+01  0.36520229402E+01  0.63017979254E+01  0.00000000000E+00 0. -1.
</event>
<event>
 7    1  0.5642630E-013  0.5052888E+02  0.7816164E-02  0.1300439E+00
        -11   -1    0    0    0    0  0.00000000000E+00  0.00000000000E+00  0.45593999997E+02  0.45594000000E+02  0.51100000000E-03 0. -1.
         11   -1    0    0    0    0 -0.00000000000E+00 -0.00000000000E+00 -0.45593999997E+02  0.45594000000E+02  0.51100000000E-03 0.  1.
    9900012    2    1    2    0    0  0.35210355775E+02  0.16418353788E+02 -0.11993015487E+02  0.50528881522E+02  0.30000065873E+02 0.  0.
         12    1    1    2    0    0 -0.35210355775E+02 -0.16418353788E+02  0.11993015487E+02  0.40659118478E+02  0.00000000000E+00 0. -1.
         11    1    3    3    0    0 -0.28937191971E+00 -0.75487595892E+00  0.33828143652E+01  0.34780752022E+01  0.51100000000E-03 0. -1.
        -11    1    3    3    0    0  0.14443527299E+02  0.26147695161E+01 -0.15641779366E+02  0.21450355765E+02  0.51100000000E-03 0.  1.
         12    1    3    3    0    0  0.21056200396E+02  0.14558460231E+02  0.26594951367E+00  0.25600450554E+02  0.00000000000E+00 0. -1.
</event>
<event>
 7    1  0.5642630E-013  0.5052886E+02  0.7816164E-02  0.1300439E+00
        -11   -1    0    0    0    0  0.00000000000E+00  0.00000000000E+00  0.45593999997E+02  0.45594000000E+02  0.51100000000E-03 0. -1.
         11   -1    0    0    0    0 -0.00000000000E+00 -0.00000000000E+00 -0.45593999997E+02  0.45594000000E+02  0.51100000000E-03 0.  1.
    9900012    2    1    2    0    0  0.77967575609E+00  0.39695873367E+02  0.87632994883E+01  0.50528859889E+02  0.30000000118E+02 0.  0.
         12    1    1    2    0    0 -0.77967575609E+00 -0.39695873367E+02 -0.87632994883E+01  0.40659140111E+02  0.00000000000E+00 0. -1.
         11    1    3    3    0    0 -0.53529091374E+01  0.10077098521E+02  0.59719890209E+01  0.12878905387E+02  0.51100000000E-03 0. -1.
        -11    1    3    3    0    0 -0.33237634961E+01  0.16547185764E+02 -0.75470759921E+01  0.18488242664E+02  0.51100000000E-03 0.  1.
         12    1    3    3    0    0  0.94563483895E+01  0.13071589082E+02  0.10338386459E+02  0.19161711838E+02  0.00000000000E+00 0. -1.
</event>
<event>
 7    1  0.5642630E-013  0.5052886E+02  0.7816164E-02  0.1300439E+00
        -11   -1    0    0    0    0  0.00000000000E+00  0.00000000000E+00  0.45593999997E+02  0.45594000000E+02  0.51100000000E-03 0. -1.
         11   -1    0    0    0    0 -0.00000000000E+00 -0.00000000000E+00 -0.45593999997E+02  0.45594000000E+02  0.51100000000E-03 0.  1.
    9900012    2    1    2    0    0 -0.86320050568E+00  0.38272001005E+02 -0.13699424228E+02  0.50528863263E+02  0.30000010374E+02 0.  0.
         12    1    1    2    0    0  0.86320050568E+00 -0.38272001005E+02  0.13699424228E+02  0.40659136737E+02  0.00000000000E+00 0. -1.
         11    1    3    3    0    0  0.17119020635E+01  0.43987544884E+01  0.38733450222E+01  0.61059357716E+01  0.51100000000E-03 0. -1.
        -11    1    3    3    0    0  0.17048272816E+01  0.23434957462E+02  0.51678032440E-01  0.23496943167E+02  0.51100000000E-03 0.  1.
        -12    1    3    3    0    0 -0.42799298507E+01  0.10438289054E+02 -0.17624447283E+02  0.20925984324E+02  0.00000000000E+00 0.  1.
</event>
<event>
 7    1  0.5642630E-013  0.5052885E+02  0.7816164E-02  0.1300439E+00
        -11   -1    0    0    0    0  0.00000000000E+00  0.00000000000E+00  0.45593999997E+02  0.45594000000E+02  0.51100000000E-03 0. -1.
         11   -1    0    0    0    0 -0.00000000000E+00 -0.00000000000E+00 -0.45593999997E+02  0.45594000000E+02  0.51100000000E-03 0.  1.
    9900012    2    1    2    0    0 -0.29050099958E+02  0.28395317369E+02  0.17215683257E+01  0.50528853999E+02  0.29999982214E+02 0.  0.
         12    1    1    2    0    0  0.29050099958E+02 -0.28395317369E+02 -0.17215683257E+01  0.40659146001E+02  0.00000000000E+00 0. -1.
         11    1    3    3    0    0  0.29139128745E+01  0.53993983254E+01  0.72139711737E+01  0.94702571703E+01  0.51100000000E-03 0. -1.
        -11    1    3    3    0    0 -0.69014658053E+00  0.37563957685E+01 -0.15782951305E+01  0.41325327890E+01  0.51100000000E-03 0.  1.
        -12    1    3    3    0    0 -0.31273866252E+02  0.19239523275E+02 -0.39141077175E+01  0.36926064039E+02  0.00000000000E+00 0.  1.
</event>
<event>
 7    1  0.5642630E-013  0.5052881E+02  0.7816164E-02  0.1300439E+00
        -11   -1    0    0    0    0  0.00000000000E+00  0.00000000000E+00  0.45593999997E+02  0.45594000000E+02  0.51100000000E-03 0.  1.
         11   -1    0    0    0    0 -0.00000000000E+00 -0.00000000000E+00 -0.45593999997E+02  0.45594000000E+02  0.51100000000E-03 0. -1.
    9900012    2    1    2    0    0 -0.10266042204E+02 -0.22709859901E+02  0.32125388648E+02  0.50528807250E+02  0.29999840118E+02 0.  0.
         12    1    1    2    0    0  0.10266042204E+02  0.22709859901E+02 -0.32125388648E+02  0.40659192750E+02  0.00000000000E+00 0. -1.
         11    1    3    3    0    0 -0.32116995273E+01  0.35649822291E+01 -0.92810357632E+00  0.48872782463E+01  0.51100000000E-03 0. -1.
        -11    1    3    3    0    0  0.32642468856E+01 -0.13094500076E+02  0.21198774657E+02  0.25129848531E+02  0.51100000000E-03 0.  1.
        -12    1    3    3    0    0 -0.10318589563E+02 -0.13180342055E+02  0.11854717567E+02  0.20511680473E+02  0.00000000000E+00 0.  1.
</event>
<event>
 7    1  0.5642630E-013  0.5052886E+02  0.7816164E-02  0.1300439E+00
        -11   -1    0    0    0    0  0.00000000000E+00  0.00000000000E+00  0.45593999997E+02  0.45594000000E+02  0.51100000000E-03 0.  1.
         11   -1    0    0    0    0 -0.00000000000E+00 -0.00000000000E+00 -0.45593999997E+02  0.45594000000E+02  0.51100000000E-03 0. -1.
    9900012    2    1    2    0    0 -0.19313374159E+01 -0.37132128359E+02  0.16451156436E+02  0.50528861191E+02  0.30000004075E+02 0.  0.
         12    1    1    2    0    0  0.19313374159E+01  0.37132128359E+02 -0.16451156436E+02  0.40659138809E+02  0.00000000000E+00 0. -1.
         11    1    3    3    0    0 -0.10678107308E+01 -0.12721286341E+02 -0.17772509130E+01  0.12889141438E+02  0.51100000000E-03 0. -1.
        -11    1    3    3    0    0 -0.10563129847E+02 -0.10706494141E+02  0.38263041335E+01  0.15519321265E+02  0.51100000000E-03 0.  1.
        -12    1    3    3    0    0  0.96996031623E+01 -0.13704347877E+02  0.14402103215E+02  0.22120398488E+02  0.00000000000E+00 0.  1.
</event>
<event>
 7    1  0.5642630E-013  0.5052887E+02  0.7816164E-02  0.1300439E+00
        -11   -1    0    0    0    0  0.00000000000E+00  0.00000000000E+00  0.45593999997E+02  0.45594000000E+02  0.51100000000E-03 0.  1.
         11   -1    0    0    0    0 -0.00000000000E+00 -0.00000000000E+00 -0.45593999997E+02  0.45594000000E+02  0.51100000000E-03 0. -1.
    9900012    2    1    2    0    0  0.30913133922E+02  0.16838878104E+02  0.20346873195E+02  0.50528869248E+02  0.30000028566E+02 0.  0.
         12    1    1    2    0    0 -0.30913133922E+02 -0.16838878104E+02 -0.20346873195E+02  0.40659130752E+02  0.00000000000E+00 0. -1.
         11    1    3    3    0    0  0.63437876491E+01 -0.91902663593E+00 -0.26099155010E+01  0.69209761507E+01  0.51100000000E-03 0. -1.
        -11    1    3    3    0    0  0.14849583654E-01 -0.16468117490E+01 -0.26840614901E+01  0.31490309288E+01  0.51100000000E-03 0.  1.
        -12    1    3    3    0    0  0.24554496689E+02  0.19404716489E+02  0.25640850186E+02  0.40458862168E+02  0.00000000000E+00 0.  1.
</event>
<event>
 7    1  0.5642630E-013  0.5052886E+02  0.7816164E-02  0.1300439E+00
        -11   -1    0    0    0    0  0.00000000000E+00  0.00000000000E+00  0.45593999997E+02  0.45594000000E+02  0.51100000000E-03 0.  1.
         11   -1    0    0    0    0 -0.00000000000E+00 -0.00000000000E+00 -0.45593999997E+02  0.45594000000E+02  0.51100000000E-03 0. -1.
    9900012    2    1    2    0    0 -0.80081027053E+01 -0.35854933315E+01  0.39701137357E+02  0.50528858607E+02  0.29999996222E+02 0.  0.
         12    1    1    2    0    0  0.80081027053E+01  0.35854933315E+01 -0.39701137357E+02  0.40659141393E+02  0.00000000000E+00 0. -1.
         11    1    3    3    0    0  0.49042268737E+01  0.21834619227E+01  0.96619367207E+01  0.11053142931E+02  0.51100000000E-03 0. -1.
        -11    1    3    3    0    0  0.50098777457E+01 -0.34615766942E+01  0.14183636897E+02  0.15435573981E+02  0.51100000000E-03 0.  1.
        -12    1    3    3    0    0 -0.17922207325E+02 -0.23073785600E+01  0.15855563739E+02  0.24040141695E+02  0.00000000000E+00 0.  1.
</event>
<event>
 7    1  0.5642630E-013  0.5052885E+02  0.7816164E-02  0.1300439E+00
        -11   -1    0    0    0    0  0.00000000000E+00  0.00000000000E+00  0.45593999997E+02  0.45594000000E+02  0.51100000000E-03 0.  1.
         11   -1    0    0    0    0 -0.00000000000E+00 -0.00000000000E+00 -0.45593999997E+02  0.45594000000E+02  0.51100000000E-03 0. -1.
    9900012    2    1    2    0    0 -0.38896282685E+02 -0.12548488855E+00  0.11841877618E+02  0.50528848278E+02  0.29999964827E+02 0.  0.
         12    1    1    2    0    0  0.38896282685E+02  0.12548488855E+00 -0.11841877618E+02  0.40659151722E+02  0.00000000000E+00 0. -1.
         11    1    3    3    0    0 -0.16329157025E+02 -0.30502172030E+01  0.52161560649E+01  0.17411303182E+02  0.51100000000E-03 0. -1.
        -11    1    3    3    0    0 -0.22828280515E+02 -0.55132987489E+01  0.22045969294E+01  0.23587859213E+02  0.51100000000E-03 0.  1.
         12    1    3    3    0    0  0.26115485523E+00  0.84380310634E+01  0.44211246241E+01  0.95296858829E+01  0.00000000000E+00 0. -1.
</event>
<event>
 7    1  0.5642630E-013  0.5052886E+02  0.7816164E-02  0.1300439E+00
        -11   -1    0    0    0    0  0.00000000000E+00  0.00000000000E+00  0.45593999997E+02  0.45594000000E+02  0.51100000000E-03 0. -1.
         11   -1    0    0    0    0 -0.00000000000E+00 -0.00000000000E+00 -0.45593999997E+02  0.45594000000E+02  0.51100000000E-03 0.  1.
    9900012    2    1    2    0    0 -0.42811950436E+01 -0.40418392728E+02 -0.10910810738E+01  0.50528861303E+02  0.30000004416E+02 0.  0.
         12    1    1    2    0    0  0.42811950436E+01  0.40418392728E+02  0.10910810738E+01  0.40659138697E+02  0.00000000000E+00 0. -1.
         11    1    3    3    0    0 -0.34622487113E+01  0.14234590387E+01  0.18658793849E+01  0.41826914677E+01  0.51100000000E-03 0. -1.
        -11    1    3    3    0    0 -0.81842606687E+01 -0.74109189742E+01 -0.82483755079E+00  0.11071774925E+02  0.51100000000E-03 0.  1.
        -12    1    3    3    0    0  0.73653143364E+01 -0.34430932792E+02 -0.21321229079E+01  0.35274394910E+02  0.00000000000E+00 0.  1.
</event>
<event>
 7    1  0.5642630E-013  0.5052887E+02  0.7816164E-02  0.1300439E+00
        -11   -1    0    0    0    0  0.00000000000E+00  0.00000000000E+00  0.45593999997E+02  0.45594000000E+02  0.51100000000E-03 0.  1.
         11   -1    0    0    0    0 -0.00000000000E+00 -0.00000000000E+00 -0.45593999997E+02  0.45594000000E+02  0.51100000000E-03 0. -1.
    9900012    2    1    2    0    0  0.87490123714E+01 -0.77205920904E+01  0.38948844214E+02  0.50528865414E+02  0.30000016912E+02 0.  0.
         12    1    1    2    0    0 -0.87490123714E+01  0.77205920904E+01 -0.38948844214E+02  0.40659134586E+02  0.00000000000E+00 0. -1.
         11    1    3    3    0    0 -0.19307483337E+01  0.85069805419E+00  0.27576347145E+02  0.27656941234E+02  0.51100000000E-03 0. -1.
        -11    1    3    3    0    0  0.31314254454E+01 -0.56128797735E+01  0.13091640141E+02  0.14584282173E+02  0.51100000000E-03 0.  1.
         12    1    3    3    0    0  0.75483352596E+01 -0.29584103711E+01 -0.17191430725E+01  0.82876420060E+01  0.00000000000E+00 0. -1.
</event>
<event>
 7    1  0.5642630E-013  0.5052886E+02  0.7816164E-02  0.1300439E+00
        -11   -1    0    0    0    0  0.00000000000E+00  0.00000000000E+00  0.45593999997E+02  0.45594000000E+02  0.51100000000E-03 0.  1.
         11   -1    0    0    0    0 -0.00000000000E+00 -0.00000000000E+00 -0.45593999997E+02  0.45594000000E+02  0.51100000000E-03 0. -1.
    9900012    2    1    2    0    0  0.20069425762E+02 -0.34385302086E+02  0.82483271712E+01  0.50528858948E+02  0.29999997258E+02 0.  0.
         12    1    1    2    0    0 -0.20069425762E+02  0.34385302086E+02 -0.82483271712E+01  0.40659141052E+02  0.00000000000E+00 0. -1.
         11    1    3    3    0    0  0.45975143687E+01 -0.91528960199E+01  0.57941891652E+01  0.11767976558E+02  0.51100000000E-03 0.  1.
        -11    1    3    3    0    0 -0.41001249348E+01 -0.13630853455E+02 -0.45689226696E+01  0.14949456345E+02  0.51100000000E-03 0. -1.
         12    1    3    3    0    0  0.19572036328E+02 -0.11601552611E+02  0.70230606757E+01  0.23811426045E+02  0.00000000000E+00 0. -1.
</event>
<event>
 7    1  0.5642630E-013  0.5052886E+02  0.7816164E-02  0.1300439E+00
        -11   -1    0    0    0    0  0.00000000000E+00  0.00000000000E+00  0.45593999997E+02  0.45594000000E+02  0.51100000000E-03 0.  1.
         11   -1    0    0    0    0 -0.00000000000E+00 -0.00000000000E+00 -0.45593999997E+02  0.45594000000E+02  0.51100000000E-03 0. -1.
    9900012    2    1    2    0    0  0.22719395271E+02  0.27562792773E+02  0.19423879715E+02  0.50528861173E+02  0.30000004023E+02 0.  0.
         12    1    1    2    0    0 -0.22719395271E+02 -0.27562792773E+02 -0.19423879715E+02  0.40659138827E+02  0.00000000000E+00 0. -1.
         11    1    3    3    0    0  0.14826822186E+02  0.12323278700E+02  0.14175993558E+02  0.23930245457E+02  0.51100000000E-03 0.  1.
        -11    1    3    3    0    0  0.11899092880E+02  0.16121068207E+02  0.80894425488E+01  0.21608246863E+02  0.51100000000E-03 0. -1.
         12    1    3    3    0    0 -0.40065197951E+01 -0.88155413327E+00 -0.28415563916E+01  0.49903688526E+01  0.00000000000E+00 0. -1.
</event>
<event>
 7    1  0.5642630E-013  0.5052886E+02  0.7816164E-02  0.1300439E+00
        -11   -1    0    0    0    0  0.00000000000E+00  0.00000000000E+00  0.45593999997E+02  0.45594000000E+02  0.51100000000E-03 0.  1.
         11   -1    0    0    0    0 -0.00000000000E+00 -0.00000000000E+00 -0.45593999997E+02  0.45594000000E+02  0.51100000000E-03 0. -1.
    9900012    2    1    2    0    0 -0.34852155749E+02  0.17486140899E+02  0.11520757194E+02  0.50528859205E+02  0.29999998039E+02 0.  0.
         12    1    1    2    0    0  0.34852155749E+02 -0.17486140899E+02 -0.11520757194E+02  0.40659140795E+02  0.00000000000E+00 0. -1.
         11    1    3    3    0    0 -0.11628183594E+02 -0.42764435687E+01 -0.30423685354E+01  0.12757689049E+02  0.51100000000E-03 0. -1.
        -11    1    3    3    0    0 -0.78496695452E+01  0.36698631342E+01 -0.19103143702E+01  0.88732467928E+01  0.51100000000E-03 0.  1.
        -12    1    3    3    0    0 -0.15374302609E+02  0.18092721334E+02  0.16473440100E+02  0.28897923363E+02  0.00000000000E+00 0.  1.
</event>
<event>
 7    1  0.6555766E-013  0.5052886E+02  0.7816164E-02  0.1300439E+00
        -11   -1    0    0    0    0  0.00000000000E+00  0.00000000000E+00  0.45593999997E+02  0.45594000000E+02  0.51100000000E-03 0. -1.
         11   -1    0    0    0    0 -0.00000000000E+00 -0.00000000000E+00 -0.45593999997E+02  0.45594000000E+02  0.51100000000E-03 0.  1.
    9900012    2    1    2    0    0 -0.16299504206E+02  0.24846099923E+02 -0.27751807790E+02  0.50528863826E+02  0.30000012087E+02 0.  0.
         12    1    1    2    0    0  0.16299504206E+02 -0.24846099923E+02  0.27751807790E+02  0.40659136174E+02  0.00000000000E+00 0. -1.
         11    1    3    3    0    0  0.75041262604E+00 -0.60990590830E+00  0.33630852923E+01  0.34993495496E+01  0.51100000000E-03 0. -1.
        -11    1    3    3    0    0 -0.70915709684E+01 -0.25358307967E-01 -0.27090100713E+01  0.75914265900E+01  0.51100000000E-03 0.  1.
        -12    1    3    3    0    0 -0.99583458632E+01  0.25481364139E+02 -0.28405883011E+02  0.39438087687E+02  0.00000000000E+00 0.  1.
</event>
<event>
 7    1  0.5642630E-013  0.5052886E+02  0.7816164E-02  0.1300439E+00
        -11   -1    0    0    0    0  0.00000000000E+00  0.00000000000E+00  0.45593999997E+02  0.45594000000E+02  0.51100000000E-03 0.  1.
         11   -1    0    0    0    0 -0.00000000000E+00 -0.00000000000E+00 -0.45593999997E+02  0.45594000000E+02  0.51100000000E-03 0. -1.
    9900012    2    1    2    0    0  0.24436541755E+02  0.29147780022E+02  0.14367592257E+02  0.50528863752E+02  0.30000011861E+02 0.  0.
         12    1    1    2    0    0 -0.24436541755E+02 -0.29147780022E+02 -0.14367592257E+02  0.40659136248E+02  0.00000000000E+00 0. -1.
         11    1    3    3    0    0  0.21389302166E+02  0.20911475776E+02  0.69586646104E+01  0.30711806846E+02  0.51100000000E-03 0. -1.
        -11    1    3    3    0    0 -0.34789132229E+01  0.81394779783E+01  0.94793630087E+01  0.12969667007E+02  0.51100000000E-03 0.  1.
         12    1    3    3    0    0  0.65261528114E+01  0.96826267554E-01 -0.20704353621E+01  0.68473898993E+01  0.00000000000E+00 0. -1.
</event>
<event>
 7    1  0.5642630E-013  0.5052886E+02  0.7816164E-02  0.1300439E+00
        -11   -1    0    0    0    0  0.00000000000E+00  0.00000000000E+00  0.45593999997E+02  0.45594000000E+02  0.51100000000E-03 0.  1.
         11   -1    0    0    0    0 -0.00000000000E+00 -0.00000000000E+00 -0.45593999997E+02  0.45594000000E+02  0.51100000000E-03 0. -1.
    9900012    2    1    2    0    0  0.68029120384E+01  0.22975521396E+02  0.32848313958E+02  0.50528856804E+02  0.29999990740E+02 0.  0.
         12    1    1    2    0    0 -0.68029120384E+01 -0.22975521396E+02 -0.32848313958E+02  0.40659143196E+02  0.00000000000E+00 0. -1.
         11    1    3    3    0    0  0.13641380701E+02  0.49352645357E+00  0.13507573925E+02  0.19203785809E+02  0.51100000000E-03 0.  1.
        -11    1    3    3    0    0 -0.47436140121E+01  0.68423543305E+01  0.37115879173E+01  0.91156772545E+01  0.51100000000E-03 0. -1.
        -12    1    3    3    0    0 -0.20948546507E+01  0.15639640612E+02  0.15629152115E+02  0.22209393740E+02  0.00000000000E+00 0.  1.
</event>
<event>
 7    1  0.5642630E-013  0.5052885E+02  0.7816164E-02  0.1300439E+00
        -11   -1    0    0    0    0  0.00000000000E+00  0.00000000000E+00  0.45593999997E+02  0.45594000000E+02  0.51100000000E-03 0.  1.
         11   -1    0    0    0    0 -0.00000000000E+00 -0.00000000000E+00 -0.45593999997E+02  0.45594000000E+02  0.51100000000E-03 0. -1.
    9900012    2    1    2    0    0  0.26546233127E+02  0.30374912634E+02  0.50821619413E+01  0.50528853665E+02  0.29999981200E+02 0.  0.
         12    1    1    2    0    0 -0.26546233127E+02 -0.30374912634E+02 -0.50821619413E+01  0.40659146335E+02  0.00000000000E+00 0. -1.
         11    1    3    3    0    0  0.84587846934E+01  0.42033279481E+01  0.12438804901E+01  0.95271319537E+01  0.51100000000E-03 0. -1.
        -11    1    3    3    0    0  0.24487470911E+02  0.18023019905E+02  0.37886993694E+01  0.30640165164E+02  0.51100000000E-03 0.  1.
         12    1    3    3    0    0 -0.64000224778E+01  0.81485647801E+01  0.49582081852E-01  0.10361556547E+02  0.00000000000E+00 0. -1.
</event>
<event>
 7    1  0.5642630E-013  0.5052888E+02  0.7816164E-02  0.1300439E+00
        -11   -1    0    0    0    0  0.00000000000E+00  0.00000000000E+00  0.45593999997E+02  0.45594000000E+02  0.51100000000E-03 0.  1.
         11   -1    0    0    0    0 -0.00000000000E+00 -0.00000000000E+00 -0.45593999997E+02  0.45594000000E+02  0.51100000000E-03 0. -1.
    9900012    2    1    2    0    0  0.31171325787E+01  0.34636400109E+02  0.21065792676E+02  0.50528876189E+02  0.30000049663E+02 0.  0.
         12    1    1    2    0    0 -0.31171325787E+01 -0.34636400109E+02 -0.21065792676E+02  0.40659123811E+02  0.00000000000E+00 0. -1.
         11    1    3    3    0    0 -0.41373640886E+01  0.85687348925E+00  0.36904168222E+01  0.56099189264E+01  0.51100000000E-03 0. -1.
        -11    1    3    3    0    0 -0.25144363451E+01  0.14939107541E+02  0.18200659397E+02  0.23680441867E+02  0.51100000000E-03 0.  1.
        -12    1    3    3    0    0  0.97689330125E+01  0.18840419079E+02 -0.82528354383E+00  0.21238515395E+02  0.00000000000E+00 0.  1.
</event>
<event>
 7    1  0.5642630E-013  0.5052883E+02  0.7816164E-02  0.1300439E+00
        -11   -1    0    0    0    0  0.00000000000E+00  0.00000000000E+00  0.45593999997E+02  0.45594000000E+02  0.51100000000E-03 0.  1.
         11   -1    0    0    0    0 -0.00000000000E+00 -0.00000000000E+00 -0.45593999997E+02  0.45594000000E+02  0.51100000000E-03 0. -1.
    9900012    2    1    2    0    0  0.32113699293E+02  0.21015722381E+02  0.13424538674E+02  0.50528825044E+02  0.29999894205E+02 0.  0.
         12    1    1    2    0    0 -0.32113699293E+02 -0.21015722381E+02 -0.13424538674E+02  0.40659174956E+02  0.00000000000E+00 0. -1.
         11    1    3    3    0    0  0.85716568897E+01  0.62142115134E+00  0.76385129525E+01  0.11498101864E+02  0.51100000000E-03 0. -1.
        -11    1    3    3    0    0  0.77708915973E+01  0.10361381919E+02  0.13591702443E+02  0.18774433868E+02  0.51100000000E-03 0.  1.
        -12    1    3    3    0    0  0.15771150806E+02  0.10032919310E+02 -0.78056767222E+01  0.20256289313E+02  0.00000000000E+00 0.  1.
</event>
<event>
 7    1  0.5642630E-013  0.5052886E+02  0.7816164E-02  0.1300439E+00
        -11   -1    0    0    0    0  0.00000000000E+00  0.00000000000E+00  0.45593999997E+02  0.45594000000E+02  0.51100000000E-03 0.  1.
         11   -1    0    0    0    0 -0.00000000000E+00 -0.00000000000E+00 -0.45593999997E+02  0.45594000000E+02  0.51100000000E-03 0. -1.
    9900012    2    1    2    0    0 -0.39397928941E+02 -0.33449379182E+01  0.94752642304E+01  0.50528855312E+02  0.29999986206E+02 0.  0.
         12    1    1    2    0    0  0.39397928941E+02  0.33449379182E+01 -0.94752642304E+01  0.40659144688E+02  0.00000000000E+00 0. -1.
         11    1    3    3    0    0 -0.76258383294E+01  0.57298633447E+01  0.10951619940E+01  0.96012563880E+01  0.51100000000E-03 0. -1.
        -11    1    3    3    0    0 -0.93869278234E+01  0.41772144436E+01 -0.52732268667E+01  0.11548612744E+02  0.51100000000E-03 0.  1.
        -12    1    3    3    0    0 -0.22385162788E+02 -0.13252015706E+02  0.13653329103E+02  0.29378986180E+02  0.00000000000E+00 0.  1.
</event>
<event>
 7    1  0.5642630E-013  0.5052888E+02  0.7816164E-02  0.1300439E+00
        -11   -1    0    0    0    0  0.00000000000E+00  0.00000000000E+00  0.45593999997E+02  0.45594000000E+02  0.51100000000E-03 0.  1.
         11   -1    0    0    0    0 -0.00000000000E+00 -0.00000000000E+00 -0.45593999997E+02  0.45594000000E+02  0.51100000000E-03 0. -1.
    9900012    2    1    2    0    0  0.75006240639E+01  0.40275363019E-01  0.39961268879E+02  0.50528880557E+02  0.30000062942E+02 0.  0.
         12    1    1    2    0    0 -0.75006240639E+01 -0.40275363019E-01 -0.39961268879E+02  0.40659119443E+02  0.00000000000E+00 0. -1.
         11    1    3    3    0    0  0.27164349263E+01  0.40941160415E+01  0.11997512390E+02  0.12964609855E+02  0.51100000000E-03 0. -1.
        -11    1    3    3    0    0  0.66481858172E+01  0.12842332068E+01  0.30589662633E+02  0.31330098785E+02  0.51100000000E-03 0.  1.
         12    1    3    3    0    0 -0.18639966795E+01 -0.53380738853E+01 -0.26259061441E+01  0.62341719181E+01  0.00000000000E+00 0. -1.
</event>
<event>
 7    1  0.5642630E-013  0.5052886E+02  0.7816164E-02  0.1300439E+00
        -11   -1    0    0    0    0  0.00000000000E+00  0.00000000000E+00  0.45593999997E+02  0.45594000000E+02  0.51100000000E-03 0.  1.
         11   -1    0    0    0    0 -0.00000000000E+00 -0.00000000000E+00 -0.45593999997E+02  0.45594000000E+02  0.51100000000E-03 0. -1.
    9900012    2    1    2    0    0  0.32523406451E+02  0.15177503343E+02  0.19105937550E+02  0.50528862964E+02  0.30000009464E+02 0.  0.
         12    1    1    2    0    0 -0.32523406451E+02 -0.15177503343E+02 -0.19105937550E+02  0.40659137036E+02  0.00000000000E+00 0. -1.
         11    1    3    3    0    0 -0.35115033043E+01 -0.21934100930E+01  0.84962116305E+00  0.42265304535E+01  0.51100000000E-03 0. -1.
        -11    1    3    3    0    0  0.43516820774E+01 -0.26187411032E+01  0.18530176568E+01  0.54063496525E+01  0.51100000000E-03 0.  1.
        -12    1    3    3    0    0  0.31683227678E+02  0.19989654539E+02  0.16403298730E+02  0.40895982858E+02  0.00000000000E+00 0.  1.
</event>
<event>
 7    1  0.5642630E-013  0.5052886E+02  0.7816164E-02  0.1300439E+00
        -11   -1    0    0    0    0  0.00000000000E+00  0.00000000000E+00  0.45593999997E+02  0.45594000000E+02  0.51100000000E-03 0. -1.
         11   -1    0    0    0    0 -0.00000000000E+00 -0.00000000000E+00 -0.45593999997E+02  0.45594000000E+02  0.51100000000E-03 0.  1.
    9900012    2    1    2    0    0  0.35625211716E+02  0.17652854623E+02 -0.85080476497E+01  0.50528857596E+02  0.29999993150E+02 0.  0.
         12    1    1    2    0    0 -0.35625211716E+02 -0.17652854623E+02  0.85080476497E+01  0.40659142404E+02  0.00000000000E+00 0. -1.
         11    1    3    3    0    0  0.24633988371E+02  0.16775232061E+02 -0.13753190502E+02  0.32823650665E+02  0.51100000000E-03 0. -1.
        -11    1    3    3    0    0  0.54926958065E+01  0.34273379641E+01 -0.32700545632E+01  0.72532482275E+01  0.51100000000E-03 0.  1.
         12    1    3    3    0    0  0.54985275386E+01 -0.25497154014E+01  0.85151974151E+01  0.10451958703E+02  0.00000000000E+00 0. -1.
</event>
<event>
 7    1  0.5642630E-013  0.5052888E+02  0.7816164E-02  0.1300439E+00
        -11   -1    0    0    0    0  0.00000000000E+00  0.00000000000E+00  0.45593999997E+02  0.45594000000E+02  0.51100000000E-03 0.  1.
         11   -1    0    0    0    0 -0.00000000000E+00 -0.00000000000E+00 -0.45593999997E+02  0.45594000000E+02  0.51100000000E-03 0. -1.
    9900012    2    1    2    0    0 -0.33532298474E+02  0.22441499096E+02 -0.50128324674E+01  0.50528875416E+02  0.30000047313E+02 0.  0.
         12    1    1    2    0    0  0.33532298474E+02 -0.22441499096E+02  0.50128324674E+01  0.40659124584E+02  0.00000000000E+00 0. -1.
         11    1    3    3    0    0 -0.31636468239E+02  0.76761261481E+01 -0.13517429001E+01  0.32582453014E+02  0.51100000000E-03 0.  1.
        -11    1    3    3    0    0 -0.27642737343E+01  0.25855368213E+00 -0.17664401875E+01  0.32906489454E+01  0.51100000000E-03 0. -1.
        -12    1    3    3    0    0  0.86844349929E+00  0.14506819266E+02 -0.18946493798E+01  0.14655773456E+02  0.00000000000E+00 0.  1.
</event>
<event>
 7    1  0.5642630E-013  0.5052883E+02  0.7816164E-02  0.1300439E+00
        -11   -1    0    0    0    0  0.00000000000E+00  0.00000000000E+00  0.45593999997E+02  0.45594000000E+02  0.51100000000E-03 0.  1.
         11   -1    0    0    0    0 -0.00000000000E+00 -0.00000000000E+00 -0.45593999997E+02  0.45594000000E+02  0.51100000000E-03 0. -1.
    9900012    2    1    2    0    0  0.28018771990E+02 -0.71807988825E+01  0.28575384191E+02  0.50528830824E+02  0.29999911773E+02 0.  0.
         12    1    1    2    0    0 -0.28018771990E+02  0.71807988825E+01 -0.28575384191E+02  0.40659169176E+02  0.00000000000E+00 0. -1.
         11    1    3    3    0    0  0.13545441991E+02  0.40099139038E+01  0.91746518935E+01  0.16844365404E+02  0.51100000000E-03 0. -1.
        -11    1    3    3    0    0  0.11508238835E+02  0.38567084551E+01  0.97010261127E+01  0.15537814167E+02  0.51100000000E-03 0.  1.
         12    1    3    3    0    0  0.29650911639E+01 -0.15047421241E+02  0.96997061850E+01  0.18146651253E+02  0.00000000000E+00 0. -1.
</event>
<event>
 7    1  0.5642630E-013  0.5052885E+02  0.7816164E-02  0.1300439E+00
        -11   -1    0    0    0    0  0.00000000000E+00  0.00000000000E+00  0.45593999997E+02  0.45594000000E+02  0.51100000000E-03 0.  1.
         11   -1    0    0    0    0 -0.00000000000E+00 -0.00000000000E+00 -0.45593999997E+02  0.45594000000E+02  0.51100000000E-03 0. -1.
    9900012    2    1    2    0    0  0.52008063954E+01  0.33900077165E+02  0.21838100356E+02  0.50528852861E+02  0.29999978755E+02 0.  0.
         12    1    1    2    0    0 -0.52008063954E+01 -0.33900077165E+02 -0.21838100356E+02  0.40659147139E+02  0.00000000000E+00 0. -1.
         11    1    3    3    0    0 -0.91608654028E-01  0.93486120866E+00 -0.11079750460E+01  0.14525724039E+01  0.51100000000E-03 0. -1.
        -11    1    3    3    0    0  0.90555276378E+01  0.24447817358E+02  0.19927596096E+01  0.26147073363E+02  0.51100000000E-03 0.  1.
         12    1    3    3    0    0 -0.37631125883E+01  0.85173985985E+01  0.20953315792E+02  0.22929207093E+02  0.00000000000E+00 0. -1.
</event>
<event>
 7    1  0.5642630E-013  0.5052888E+02  0.7816164E-02  0.1300439E+00
        -11   -1    0    0    0    0  0.00000000000E+00  0.00000000000E+00  0.45593999997E+02  0.45594000000E+02  0.51100000000E-03 0. -1.
         11   -1    0    0    0    0 -0.00000000000E+00 -0.00000000000E+00 -0.45593999997E+02  0.45594000000E+02  0.51100000000E-03 0.  1.
    9900012    2    1    2    0    0 -0.32267008062E+02  0.16161897529E+02 -0.18729573071E+02  0.50528884805E+02  0.30000075854E+02 0.  0.
         12    1    1    2    0    0  0.32267008062E+02 -0.16161897529E+02  0.18729573071E+02  0.40659115195E+02  0.00000000000E+00 0. -1.
         11    1    3    3    0    0 -0.17176278233E+02 -0.54133590485E+01 -0.10520545382E+02  0.20856914094E+02  0.51100000000E-03 0. -1.
        -11    1    3    3    0    0 -0.67105568819E+01  0.87738902819E+01 -0.91488397842E+01  0.14342733143E+02  0.51100000000E-03 0.  1.
        -12    1    3    3    0    0 -0.83801729471E+01  0.12801366296E+02  0.93981209522E+00  0.15329237569E+02  0.00000000000E+00 0.  1.
</event>
<event>
 7    1  0.5642630E-013  0.5052886E+02  0.7816164E-02  0.1300439E+00
        -11   -1    0    0    0    0  0.00000000000E+00  0.00000000000E+00  0.45593999997E+02  0.45594000000E+02  0.51100000000E-03 0.  1.
         11   -1    0    0    0    0 -0.00000000000E+00 -0.00000000000E+00 -0.45593999997E+02  0.45594000000E+02  0.51100000000E-03 0. -1.
    9900012    2    1    2    0    0 -0.36894444016E+02  0.30883400616E+01  0.16805599631E+02  0.50528855610E+02  0.29999987112E+02 0.  0.
         12    1    1    2    0    0  0.36894444016E+02 -0.30883400616E+01 -0.16805599631E+02  0.40659144390E+02  0.00000000000E+00 0. -1.
         11    1    3    3    0    0 -0.24993933648E+02  0.95889262193E+01  0.75201479627E+01  0.27806417441E+02  0.51100000000E-03 0. -1.
        -11    1    3    3    0    0 -0.11942081365E+02  0.20969043308E+01  0.58745693330E+01  0.13472968500E+02  0.51100000000E-03 0.  1.
         12    1    3    3    0    0  0.41570997831E-01 -0.85974904885E+01  0.34108823353E+01  0.92494696687E+01  0.00000000000E+00 0. -1.
</event>
<event>
 7    1  0.5642630E-013  0.5052885E+02  0.7816164E-02  0.1300439E+00
        -11   -1    0    0    0    0  0.00000000000E+00  0.00000000000E+00  0.45593999997E+02  0.45594000000E+02  0.51100000000E-03 0.  1.
         11   -1    0    0    0    0 -0.00000000000E+00 -0.00000000000E+00 -0.45593999997E+02  0.45594000000E+02  0.51100000000E-03 0. -1.
    9900012    2    1    2    0    0  0.16193306696E+02  0.26462723653E+02  0.26280546967E+02  0.50528854980E+02  0.29999985197E+02 0.  0.
         12    1    1    2    0    0 -0.16193306696E+02 -0.26462723653E+02 -0.26280546967E+02  0.40659145020E+02  0.00000000000E+00 0. -1.
         11    1    3    3    0    0 -0.16447804547E+01  0.16713395495E+01  0.46821043620E+01  0.52364854770E+01  0.51100000000E-03 0. -1.
        -11    1    3    3    0    0  0.16424696198E+01 -0.30803837651E+01  0.10714644393E+02  0.11268987325E+02  0.51100000000E-03 0.  1.
        -12    1    3    3    0    0  0.16195617531E+02  0.27871767869E+02  0.10883798212E+02  0.34023382178E+02  0.00000000000E+00 0.  1.
</event>
<event>
 7    1  0.5642630E-013  0.5052890E+02  0.7816164E-02  0.1300439E+00
        -11   -1    0    0    0    0  0.00000000000E+00  0.00000000000E+00  0.45593999997E+02  0.45594000000E+02  0.51100000000E-03 0.  1.
         11   -1    0    0    0    0 -0.00000000000E+00 -0.00000000000E+00 -0.45593999997E+02  0.45594000000E+02  0.51100000000E-03 0. -1.
    9900012    2    1    2    0    0  0.20322522893E+01  0.73539705466E+01  0.39936838945E+02  0.50528904620E+02  0.30000136084E+02 0.  0.
         12    1    1    2    0    0 -0.20322522893E+01 -0.73539705466E+01 -0.39936838945E+02  0.40659095380E+02  0.00000000000E+00 0. -1.
         11    1    3    3    0    0 -0.83562947253E+01  0.10523415115E+02  0.18020069811E+02  0.22478719792E+02  0.51100000000E-03 0. -1.
        -11    1    3    3    0    0  0.16538223164E+01  0.44421308562E+01  0.11621686395E+02  0.12551145355E+02  0.51100000000E-03 0.  1.
         12    1    3    3    0    0  0.87347246981E+01 -0.76115754250E+01  0.10295082739E+02  0.15499039474E+02  0.00000000000E+00 0. -1.
</event>
<event>
 7    1  0.5642630E-013  0.5052888E+02  0.7816164E-02  0.1300439E+00
        -11   -1    0    0    0    0  0.00000000000E+00  0.00000000000E+00  0.45593999997E+02  0.45594000000E+02  0.51100000000E-03 0. -1.
         11   -1    0    0    0    0 -0.00000000000E+00 -0.00000000000E+00 -0.45593999997E+02  0.45594000000E+02  0.51100000000E-03 0.  1.
    9900012    2    1    2    0    0  0.34669102493E+02  0.96286011532E+01 -0.18934300148E+02  0.50528876178E+02  0.30000049631E+02 0.  0.
         12    1    1    2    0    0 -0.34669102493E+02 -0.96286011532E+01  0.18934300148E+02  0.40659123822E+02  0.00000000000E+00 0. -1.
         11    1    3    3    0    0 -0.10940247232E+01  0.24793886386E+00  0.10772346749E+01  0.15552487200E+01  0.51100000000E-03 0.  1.
        -11    1    3    3    0    0  0.13869311701E+02  0.86120402713E+01  0.36490350715E+01  0.16728433935E+02  0.51100000000E-03 0. -1.
        -12    1    3    3    0    0  0.21893815516E+02  0.76862201809E+00 -0.23660569894E+02  0.32245193523E+02  0.00000000000E+00 0.  1.
</event>
<event>
 7    1  0.5642630E-013  0.5052887E+02  0.7816164E-02  0.1300439E+00
        -11   -1    0    0    0    0  0.00000000000E+00  0.00000000000E+00  0.45593999997E+02  0.45594000000E+02  0.51100000000E-03 0. -1.
         11   -1    0    0    0    0 -0.00000000000E+00 -0.00000000000E+00 -0.45593999997E+02  0.45594000000E+02  0.51100000000E-03 0.  1.
    9900012    2    1    2    0    0  0.17754067358E+02 -0.21601133076E+01 -0.36514274377E+02  0.50528865350E+02  0.30000016716E+02 0.  0.
         12    1    1    2    0    0 -0.17754067358E+02  0.21601133076E+01  0.36514274377E+02  0.40659134650E+02  0.00000000000E+00 0. -1.
         11    1    3    3    0    0  0.16490893082E+01 -0.89191199907E+01 -0.13280900639E+02  0.16082677607E+02  0.51100000000E-03 0. -1.
        -11    1    3    3    0    0  0.12994744326E-02 -0.27276303337E+01 -0.12705170766E+02  0.12994665574E+02  0.51100000000E-03 0.  1.
         12    1    3    3    0    0  0.16103678575E+02  0.94866370168E+01 -0.10528202972E+02  0.21451522169E+02  0.00000000000E+00 0. -1.
</event>
<event>
 7    1  0.5642630E-013  0.5052886E+02  0.7816164E-02  0.1300439E+00
        -11   -1    0    0    0    0  0.00000000000E+00  0.00000000000E+00  0.45593999997E+02  0.45594000000E+02  0.51100000000E-03 0. -1.
         11   -1    0    0    0    0 -0.00000000000E+00 -0.00000000000E+00 -0.45593999997E+02  0.45594000000E+02  0.51100000000E-03 0.  1.
    9900012    2    1    2    0    0  0.30455031999E+01 -0.40409393213E+02  0.33123282253E+01  0.50528859971E+02  0.30000000368E+02 0.  0.
         12    1    1    2    0    0 -0.30455031999E+01  0.40409393213E+02 -0.33123282253E+01  0.40659140029E+02  0.00000000000E+00 0. -1.
         11    1    3    3    0    0  0.42475845220E+01 -0.97414821912E+01 -0.46957071931E-01  0.10627354082E+02  0.51100000000E-03 0. -1.
        -11    1    3    3    0    0  0.20311684629E+01 -0.31673020270E+02  0.92922311221E+01  0.33070400932E+02  0.51100000000E-03 0.  1.
         12    1    3    3    0    0 -0.32332497850E+01  0.10051092475E+01 -0.59329458249E+01  0.68311049569E+01  0.00000000000E+00 0. -1.
</event>
<event>
 7    1  0.5642630E-013  0.5052885E+02  0.7816164E-02  0.1300439E+00
        -11   -1    0    0    0    0  0.00000000000E+00  0.00000000000E+00  0.45593999997E+02  0.45594000000E+02  0.51100000000E-03 0. -1.
         11   -1    0    0    0    0 -0.00000000000E+00 -0.00000000000E+00 -0.45593999997E+02  0.45594000000E+02  0.51100000000E-03 0.  1.
    9900012    2    1    2    0    0  0.14262095038E+01 -0.22937284483E+02 -0.33541215263E+02  0.50528853251E+02  0.29999979943E+02 0.  0.
         12    1    1    2    0    0 -0.14262095038E+01  0.22937284483E+02  0.33541215263E+02  0.40659146749E+02  0.00000000000E+00 0. -1.
         11    1    3    3    0    0 -0.37006911435E+01 -0.21800212921E+02 -0.21663468230E+02  0.30955617492E+02  0.51100000000E-03 0. -1.
        -11    1    3    3    0    0  0.41753901333E+01 -0.73450222311E+01 -0.98420901614E+01  0.12971120744E+02  0.51100000000E-03 0.  1.
         12    1    3    3    0    0  0.95151051398E+00  0.62079506694E+01 -0.20356568724E+01  0.66021150152E+01  0.00000000000E+00 0. -1.
</event>
<event>
 7    1  0.5642630E-013  0.5052886E+02  0.7816164E-02  0.1300439E+00
        -11   -1    0    0    0    0  0.00000000000E+00  0.00000000000E+00  0.45593999997E+02  0.45594000000E+02  0.51100000000E-03 0.  1.
         11   -1    0    0    0    0 -0.00000000000E+00 -0.00000000000E+00 -0.45593999997E+02  0.45594000000E+02  0.51100000000E-03 0. -1.
    9900012    2    1    2    0    0 -0.11062248662E+01  0.35566193532E+02  0.19671996894E+02  0.50528864279E+02  0.30000013461E+02 0.  0.
         12    1    1    2    0    0  0.11062248662E+01 -0.35566193532E+02 -0.19671996894E+02  0.40659135721E+02  0.00000000000E+00 0. -1.
         11    1    3    3    0    0  0.38557035388E+01  0.93567873745E+00 -0.26817338743E+01  0.47889081546E+01  0.51100000000E-03 0. -1.
        -11    1    3    3    0    0 -0.63582111419E+00  0.23048252944E+02  0.36869501773E+01  0.23349942915E+02  0.51100000000E-03 0.  1.
         12    1    3    3    0    0 -0.43261072908E+01  0.11582261850E+02  0.18666780591E+02  0.22390013209E+02  0.00000000000E+00 0. -1.
</event>
<event>
 7    1  0.5642630E-013  0.5052886E+02  0.7816164E-02  0.1300439E+00
        -11   -1    0    0    0    0  0.00000000000E+00  0.00000000000E+00  0.45593999997E+02  0.45594000000E+02  0.51100000000E-03 0.  1.
         11   -1    0    0    0    0 -0.00000000000E+00 -0.00000000000E+00 -0.45593999997E+02  0.45594000000E+02  0.51100000000E-03 0. -1.
    9900012    2    1    2    0    0 -0.26576167369E+02 -0.18965822788E+01  0.30712799141E+02  0.50528859238E+02  0.29999998140E+02 0.  0.
         12    1    1    2    0    0  0.26576167369E+02  0.18965822788E+01 -0.30712799141E+02  0.40659140762E+02  0.00000000000E+00 0. -1.
         11    1    3    3    0    0 -0.40482620346E+01  0.25090467302E+01  0.50088315541E+01  0.69117389124E+01  0.51100000000E-03 0. -1.
        -11    1    3    3    0    0 -0.13331945405E+02 -0.47215571451E+01  0.30221006852E+02  0.33366796753E+02  0.51100000000E-03 0.  1.
         12    1    3    3    0    0 -0.91959599303E+01  0.31592813606E+00 -0.45170392648E+01  0.10250323573E+02  0.00000000000E+00 0. -1.
</event>
<event>
 7    1  0.5642630E-013  0.5052886E+02  0.7816164E-02  0.1300439E+00
        -11   -1    0    0    0    0  0.00000000000E+00  0.00000000000E+00  0.45593999997E+02  0.45594000000E+02  0.51100000000E-03 0.  1.
         11   -1    0    0    0    0 -0.00000000000E+00 -0.00000000000E+00 -0.45593999997E+02  0.45594000000E+02  0.51100000000E-03 0. -1.
    9900012    2    1    2    0    0  0.81291855087E+00 -0.27333765484E+02  0.30089373808E+02  0.50528856031E+02  0.29999988391E+02 0.  0.
         12    1    1    2    0    0 -0.81291855087E+00  0.27333765484E+02 -0.30089373808E+02  0.40659143969E+02  0.00000000000E+00 0. -1.
         11    1    3    3    0    0 -0.17863604654E+01 -0.18577364524E+02  0.25716979822E+02  0.31775345912E+02  0.51100000000E-03 0. -1.
        -11    1    3    3    0    0  0.42404546533E+01 -0.36733799838E+01  0.97024110932E+01  0.11207674043E+02  0.51100000000E-03 0.  1.
         12    1    3    3    0    0 -0.16411756370E+01 -0.50830209768E+01 -0.53300171074E+01  0.75458360760E+01  0.00000000000E+00 0. -1.
</event>
<event>
 7    1  0.5642630E-013  0.5052887E+02  0.7816164E-02  0.1300439E+00
        -11   -1    0    0    0    0  0.00000000000E+00  0.00000000000E+00  0.45593999997E+02  0.45594000000E+02  0.51100000000E-03 0.  1.
         11   -1    0    0    0    0 -0.00000000000E+00 -0.00000000000E+00 -0.45593999997E+02  0.45594000000E+02  0.51100000000E-03 0. -1.
    9900012    2    1    2    0    0  0.20643462763E+02 -0.19377912644E+02  0.29180617337E+02  0.50528874561E+02  0.30000044717E+02 0.  0.
         12    1    1    2    0    0 -0.20643462763E+02  0.19377912644E+02 -0.29180617337E+02  0.40659125439E+02  0.00000000000E+00 0. -1.
         11    1    3    3    0    0  0.71200911717E+01 -0.85945909076E+01  0.17687997793E+02  0.20914778444E+02  0.51100000000E-03 0. -1.
        -11    1    3    3    0    0  0.17951195749E+02 -0.11623067042E+02  0.54376467948E+01  0.22066017293E+02  0.51100000000E-03 0.  1.
         12    1    3    3    0    0 -0.44278241574E+01  0.83974530588E+00  0.60549727488E+01  0.75480788242E+01  0.00000000000E+00 0. -1.
</event>
<event>
 7    1  0.5642630E-013  0.5052886E+02  0.7816164E-02  0.1300439E+00
        -11   -1    0    0    0    0  0.00000000000E+00  0.00000000000E+00  0.45593999997E+02  0.45594000000E+02  0.51100000000E-03 0.  1.
         11   -1    0    0    0    0 -0.00000000000E+00 -0.00000000000E+00 -0.45593999997E+02  0.45594000000E+02  0.51100000000E-03 0. -1.
    9900012    2    1    2    0    0 -0.33383956959E+02  0.51663059565E+01  0.22627115254E+02  0.50528860263E+02  0.30000001255E+02 0.  0.
         12    1    1    2    0    0  0.33383956959E+02 -0.51663059565E+01 -0.22627115254E+02  0.40659139737E+02  0.00000000000E+00 0. -1.
         11    1    3    3    0    0  0.19333034284E+01 -0.38286166312E+01 -0.13657234987E+00  0.42912258998E+01  0.51100000000E-03 0. -1.
        -11    1    3    3    0    0 -0.93881676398E+01 -0.20454474137E+01 -0.60506351012E+00  0.96274424884E+01  0.51100000000E-03 0.  1.
        -12    1    3    3    0    0 -0.25929092747E+02  0.11040370001E+02  0.23368751114E+02  0.36610191875E+02  0.00000000000E+00 0.  1.
</event>
<event>
 7    1  0.5642630E-013  0.5052886E+02  0.7816164E-02  0.1300439E+00
        -11   -1    0    0    0    0  0.00000000000E+00  0.00000000000E+00  0.45593999997E+02  0.45594000000E+02  0.51100000000E-03 0. -1.
         11   -1    0    0    0    0 -0.00000000000E+00 -0.00000000000E+00 -0.45593999997E+02  0.45594000000E+02  0.51100000000E-03 0.  1.
    9900012    2    1    2    0    0 -0.69581433216E+01  0.13206773620E+02 -0.37819713719E+02  0.50528863589E+02  0.30000011365E+02 0.  0.
         12    1    1    2    0    0  0.69581433216E+01 -0.13206773620E+02  0.37819713719E+02  0.40659136411E+02  0.00000000000E+00 0. -1.
         11    1    3    3    0    0 -0.47864651429E+01  0.13122210436E+02 -0.14047008107E+02  0.19809621205E+02  0.51100000000E-03 0. -1.
        -11    1    3    3    0    0  0.98041773103E-01  0.94302045524E+01 -0.86464821260E+01  0.12794531000E+02  0.51100000000E-03 0.  1.
        -12    1    3    3    0    0 -0.22697199518E+01 -0.93456413684E+01 -0.15126223486E+02  0.17924711384E+02  0.00000000000E+00 0.  1.
</event>
<event>
 7    1  0.5642630E-013  0.5052887E+02  0.7816164E-02  0.1300439E+00
        -11   -1    0    0    0    0  0.00000000000E+00  0.00000000000E+00  0.45593999997E+02  0.45594000000E+02  0.51100000000E-03 0.  1.
         11   -1    0    0    0    0 -0.00000000000E+00 -0.00000000000E+00 -0.45593999997E+02  0.45594000000E+02  0.51100000000E-03 0. -1.
    9900012    2    1    2    0    0 -0.13972913499E+02  0.37593748307E+02  0.66807877847E+01  0.50528866354E+02  0.30000019771E+02 0.  0.
         12    1    1    2    0    0  0.13972913499E+02 -0.37593748307E+02 -0.66807877847E+01  0.40659133646E+02  0.00000000000E+00 0. -1.
         11    1    3    3    0    0  0.57821732005E+01  0.10470194527E+02  0.30313834856E+01  0.12338872981E+02  0.51100000000E-03 0. -1.
        -11    1    3    3    0    0 -0.20771771297E+02  0.25471979534E+02  0.76480595114E+01  0.33745829946E+02  0.51100000000E-03 0.  1.
         12    1    3    3    0    0  0.10166845976E+01  0.16515742456E+01 -0.39986552122E+01  0.44441634270E+01  0.00000000000E+00 0. -1.
</event>
<event>
 7    1  0.5642630E-013  0.5052888E+02  0.7816164E-02  0.1300439E+00
        -11   -1    0    0    0    0  0.00000000000E+00  0.00000000000E+00  0.45593999997E+02  0.45594000000E+02  0.51100000000E-03 0.  1.
         11   -1    0    0    0    0 -0.00000000000E+00 -0.00000000000E+00 -0.45593999997E+02  0.45594000000E+02  0.51100000000E-03 0. -1.
    9900012    2    1    2    0    0 -0.76242585477E+01 -0.11931970945E+02  0.38113817547E+02  0.50528876337E+02  0.30000050113E+02 0.  0.
         12    1    1    2    0    0  0.76242585477E+01  0.11931970945E+02 -0.38113817547E+02  0.40659123663E+02  0.00000000000E+00 0. -1.
         11    1    3    3    0    0 -0.94194597109E+01  0.64951146328E+01  0.12193289879E+02  0.16720916652E+02  0.51100000000E-03 0. -1.
        -11    1    3    3    0    0 -0.34217776644E+01 -0.11143471435E+02  0.19735795264E+02  0.22921324852E+02  0.51100000000E-03 0.  1.
        -12    1    3    3    0    0  0.52169788276E+01 -0.72836141431E+01  0.61847324045E+01  0.10886634833E+02  0.00000000000E+00 0.  1.
</event>
<event>
 7    1  0.5642630E-013  0.5052886E+02  0.7816164E-02  0.1300439E+00
        -11   -1    0    0    0    0  0.00000000000E+00  0.00000000000E+00  0.45593999997E+02  0.45594000000E+02  0.51100000000E-03 0. -1.
         11   -1    0    0    0    0 -0.00000000000E+00 -0.00000000000E+00 -0.45593999997E+02  0.45594000000E+02  0.51100000000E-03 0.  1.
    9900012    2    1    2    0    0 -0.16883247725E+02  0.28017020879E+02 -0.24148877788E+02  0.50528858210E+02  0.29999995014E+02 0.  0.
         12    1    1    2    0    0  0.16883247725E+02 -0.28017020879E+02  0.24148877788E+02  0.40659141790E+02  0.00000000000E+00 0. -1.
         11    1    3    3    0    0 -0.35250181254E+01  0.31809236882E+00  0.40473993978E+01  0.53766511591E+01  0.51100000000E-03 0. -1.
        -11    1    3    3    0    0  0.30947412935E+00  0.37115373305E+00  0.20812427717E+01  0.21366097131E+01  0.51100000000E-03 0.  1.
        -12    1    3    3    0    0 -0.13667703729E+02  0.27327774777E+02 -0.30277519958E+02  0.43015597337E+02  0.00000000000E+00 0.  1.
</event>
<event>
 7    1  0.5642630E-013  0.5052887E+02  0.7816164E-02  0.1300439E+00
        -11   -1    0    0    0    0  0.00000000000E+00  0.00000000000E+00  0.45593999997E+02  0.45594000000E+02  0.51100000000E-03 0. -1.
         11   -1    0    0    0    0 -0.00000000000E+00 -0.00000000000E+00 -0.45593999997E+02  0.45594000000E+02  0.51100000000E-03 0.  1.
    9900012    2    1    2    0    0 -0.35122868161E+02 -0.18619814944E+02 -0.85353147071E+01  0.50528868510E+02  0.30000026322E+02 0.  0.
         12    1    1    2    0    0  0.35122868161E+02  0.18619814944E+02  0.85353147071E+01  0.40659131490E+02  0.00000000000E+00 0. -1.
         11    1    3    3    0    0 -0.41740977952E+01  0.15283103439E+01 -0.82480876439E+01  0.93696197870E+01  0.51100000000E-03 0. -1.
        -11    1    3    3    0    0 -0.17011938748E+02 -0.19487400933E+01  0.45807035096E+01  0.17725306564E+02  0.51100000000E-03 0.  1.
        -12    1    3    3    0    0 -0.13936831618E+02 -0.18199385195E+02 -0.48679305728E+01  0.23433942158E+02  0.00000000000E+00 0.  1.
</event>
<event>
 7    1  0.5642630E-013  0.5052886E+02  0.7816164E-02  0.1300439E+00
        -11   -1    0    0    0    0  0.00000000000E+00  0.00000000000E+00  0.45593999997E+02  0.45594000000E+02  0.51100000000E-03 0.  1.
         11   -1    0    0    0    0 -0.00000000000E+00 -0.00000000000E+00 -0.45593999997E+02  0.45594000000E+02  0.51100000000E-03 0. -1.
    9900012    2    1    2    0    0  0.26057919822E+02 -0.24448232026E+02  0.19401920435E+02  0.50528858947E+02  0.29999997254E+02 0.  0.
         12    1    1    2    0    0 -0.26057919822E+02  0.24448232026E+02 -0.19401920435E+02  0.40659141053E+02  0.00000000000E+00 0. -1.
         11    1    3    3    0    0  0.11568694440E+02 -0.40294506852E+01  0.43590234521E+01  0.13002778533E+02  0.51100000000E-03 0. -1.
        -11    1    3    3    0    0  0.18368846446E+02 -0.14733012144E+02  0.18384872512E+02  0.29874398808E+02  0.51100000000E-03 0.  1.
        -12    1    3    3    0    0 -0.38796210636E+01 -0.56857691960E+01 -0.33419755295E+01  0.76516816051E+01  0.00000000000E+00 0.  1.
</event>
<event>
 7    1  0.5642630E-013  0.5052886E+02  0.7816164E-02  0.1300439E+00
        -11   -1    0    0    0    0  0.00000000000E+00  0.00000000000E+00  0.45593999997E+02  0.45594000000E+02  0.51100000000E-03 0. -1.
         11   -1    0    0    0    0 -0.00000000000E+00 -0.00000000000E+00 -0.45593999997E+02  0.45594000000E+02  0.51100000000E-03 0.  1.
    9900012    2    1    2    0    0  0.35593430119E+02 -0.14484582247E+02 -0.13284226761E+02  0.50528855012E+02  0.29999985294E+02 0.  0.
         12    1    1    2    0    0 -0.35593430119E+02  0.14484582247E+02  0.13284226761E+02  0.40659144988E+02  0.00000000000E+00 0. -1.
         11    1    3    3    0    0  0.44140834172E+01 -0.76354347128E+00 -0.97189545490E+01  0.10701645146E+02  0.51100000000E-03 0. -1.
        -11    1    3    3    0    0 -0.12250126039E+01 -0.54055899999E+00 -0.46389737057E+01  0.48283472551E+01  0.51100000000E-03 0.  1.
         12    1    3    3    0    0  0.32404359306E+02 -0.13180479775E+02  0.10737014939E+01  0.34998862611E+02  0.00000000000E+00 0. -1.
</event>
<event>
 7    1  0.5642630E-013  0.5052887E+02  0.7816164E-02  0.1300439E+00
        -11   -1    0    0    0    0  0.00000000000E+00  0.00000000000E+00  0.45593999997E+02  0.45594000000E+02  0.51100000000E-03 0.  1.
         11   -1    0    0    0    0 -0.00000000000E+00 -0.00000000000E+00 -0.45593999997E+02  0.45594000000E+02  0.51100000000E-03 0. -1.
    9900012    2    1    2    0    0  0.12646387602E+02  0.17264069374E+02  0.34571459161E+02  0.50528868193E+02  0.30000025360E+02 0.  0.
         12    1    1    2    0    0 -0.12646387602E+02 -0.17264069374E+02 -0.34571459161E+02  0.40659131807E+02  0.00000000000E+00 0. -1.
         11    1    3    3    0    0 -0.19081009174E+01 -0.40404648499E+01  0.35254007227E+01  0.56916303316E+01  0.51100000000E-03 0. -1.
        -11    1    3    3    0    0 -0.12453017279E+01  0.75545115522E+01  0.19435750402E+02  0.20889466608E+02  0.51100000000E-03 0.  1.
        -12    1    3    3    0    0  0.15799790248E+02  0.13750022672E+02  0.11610308036E+02  0.23947771254E+02  0.00000000000E+00 0.  1.
</event>
<event>
 7    1  0.5642630E-013  0.5052886E+02  0.7816164E-02  0.1300439E+00
        -11   -1    0    0    0    0  0.00000000000E+00  0.00000000000E+00  0.45593999997E+02  0.45594000000E+02  0.51100000000E-03 0.  1.
         11   -1    0    0    0    0 -0.00000000000E+00 -0.00000000000E+00 -0.45593999997E+02  0.45594000000E+02  0.51100000000E-03 0. -1.
    9900012    2    1    2    0    0  0.45282081228E+01 -0.38106481508E+02  0.13437150302E+02  0.50528860683E+02  0.30000002532E+02 0.  0.
         12    1    1    2    0    0 -0.45282081228E+01  0.38106481508E+02 -0.13437150302E+02  0.40659139317E+02  0.00000000000E+00 0. -1.
         11    1    3    3    0    0  0.15706816292E+01  0.30557766836E+01  0.20077713886E+01  0.39794419370E+01  0.51100000000E-03 0. -1.
        -11    1    3    3    0    0  0.34793851870E+01 -0.16522722066E-01 -0.89817570532E+00  0.35934821745E+01  0.51100000000E-03 0.  1.
        -12    1    3    3    0    0 -0.52185869338E+00 -0.41145735470E+02  0.12327554619E+02  0.42955936572E+02  0.00000000000E+00 0.  1.
</event>
<event>
 7    1  0.5642630E-013  0.5052887E+02  0.7816164E-02  0.1300439E+00
        -11   -1    0    0    0    0  0.00000000000E+00  0.00000000000E+00  0.45593999997E+02  0.45594000000E+02  0.51100000000E-03 0.  1.
         11   -1    0    0    0    0 -0.00000000000E+00 -0.00000000000E+00 -0.45593999997E+02  0.45594000000E+02  0.51100000000E-03 0. -1.
    9900012    2    1    2    0    0 -0.34562291128E+02  0.14742931773E+02 -0.15532513262E+02  0.50528868510E+02  0.30000026324E+02 0.  0.
         12    1    1    2    0    0  0.34562291128E+02 -0.14742931773E+02  0.15532513262E+02  0.40659131490E+02  0.00000000000E+00 0. -1.
         11    1    3    3    0    0 -0.92213258959E+01  0.11642003092E+01 -0.49333812932E+01  0.10522664343E+02  0.51100000000E-03 0. -1.
        -11    1    3    3    0    0 -0.28113349732E+02  0.98528767345E+01 -0.15443850576E+01  0.29829930247E+02  0.51100000000E-03 0.  1.
         12    1    3    3    0    0  0.27723844996E+01  0.37258547290E+01 -0.90547469107E+01  0.10176273920E+02  0.00000000000E+00 0. -1.
</event>
<event>
 7    1  0.5642630E-013  0.5052887E+02  0.7816164E-02  0.1300439E+00
        -11   -1    0    0    0    0  0.00000000000E+00  0.00000000000E+00  0.45593999997E+02  0.45594000000E+02  0.51100000000E-03 0.  1.
         11   -1    0    0    0    0 -0.00000000000E+00 -0.00000000000E+00 -0.45593999997E+02  0.45594000000E+02  0.51100000000E-03 0. -1.
    9900012    2    1    2    0    0 -0.19894046063E+02 -0.29436210072E+02  0.19771230686E+02  0.50528867016E+02  0.30000021783E+02 0.  0.
         12    1    1    2    0    0  0.19894046063E+02  0.29436210072E+02 -0.19771230686E+02  0.40659132984E+02  0.00000000000E+00 0. -1.
         11    1    3    3    0    0 -0.35595916570E+01  0.22307523414E+01  0.91898168764E+01  0.10104438790E+02  0.51100000000E-03 0. -1.
        -11    1    3    3    0    0  0.17112966249E+01 -0.10432414733E+02  0.60828475019E+01  0.12196919582E+02  0.51100000000E-03 0.  1.
         12    1    3    3    0    0 -0.18045751031E+02 -0.21234547680E+02  0.44985663075E+01  0.28227508644E+02  0.00000000000E+00 0. -1.
</event>
<event>
 7    1  0.5642630E-013  0.5052889E+02  0.7816164E-02  0.1300439E+00
        -11   -1    0    0    0    0  0.00000000000E+00  0.00000000000E+00  0.45593999997E+02  0.45594000000E+02  0.51100000000E-03 0.  1.
         11   -1    0    0    0    0 -0.00000000000E+00 -0.00000000000E+00 -0.45593999997E+02  0.45594000000E+02  0.51100000000E-03 0. -1.
    9900012    2    1    2    0    0 -0.11238035988E+02 -0.36156075426E+02 -0.14819181326E+02  0.50528888128E+02  0.30000085953E+02 0.  0.
         12    1    1    2    0    0  0.11238035988E+02  0.36156075426E+02  0.14819181326E+02  0.40659111872E+02  0.00000000000E+00 0. -1.
         11    1    3    3    0    0  0.40445426887E+01 -0.10190488888E+01  0.12549015276E+00  0.41728328793E+01  0.51100000000E-03 0.  1.
        -11    1    3    3    0    0  0.27249682927E+01  0.89700761707E+00  0.99152431430E+00  0.30353246265E+01  0.51100000000E-03 0. -1.
        -12    1    3    3    0    0 -0.18007546969E+02 -0.36034034154E+02 -0.15936195793E+02  0.43320730622E+02  0.00000000000E+00 0.  1.
</event>
<event>
 7    1  0.5642630E-013  0.5052886E+02  0.7816164E-02  0.1300439E+00
        -11   -1    0    0    0    0  0.00000000000E+00  0.00000000000E+00  0.45593999997E+02  0.45594000000E+02  0.51100000000E-03 0.  1.
         11   -1    0    0    0    0 -0.00000000000E+00 -0.00000000000E+00 -0.45593999997E+02  0.45594000000E+02  0.51100000000E-03 0. -1.
    9900012    2    1    2    0    0 -0.21557420217E+02  0.20120201936E+02  0.27993233068E+02  0.50528856010E+02  0.29999988328E+02 0.  0.
         12    1    1    2    0    0  0.21557420217E+02 -0.20120201936E+02 -0.27993233068E+02  0.40659143990E+02  0.00000000000E+00 0. -1.
         11    1    3    3    0    0 -0.18913495475E+02  0.85449154955E+01  0.13477619229E+02  0.24746355535E+02  0.51100000000E-03 0.  1.
        -11    1    3    3    0    0  0.60090416550E+01  0.21907434962E+00  0.94879972386E+00  0.60874293720E+01  0.51100000000E-03 0. -1.
         12    1    3    3    0    0 -0.86529663972E+01  0.11356212091E+02  0.13566814115E+02  0.19695071103E+02  0.00000000000E+00 0. -1.
</event>
<event>
 7    1  0.5642630E-013  0.5052888E+02  0.7816164E-02  0.1300439E+00
        -11   -1    0    0    0    0  0.00000000000E+00  0.00000000000E+00  0.45593999997E+02  0.45594000000E+02  0.51100000000E-03 0.  1.
         11   -1    0    0    0    0 -0.00000000000E+00 -0.00000000000E+00 -0.45593999997E+02  0.45594000000E+02  0.51100000000E-03 0. -1.
    9900012    2    1    2    0    0  0.18626896578E+02 -0.44221229745E+01  0.35869875800E+02  0.50528875099E+02  0.30000046352E+02 0.  0.
         12    1    1    2    0    0 -0.18626896578E+02  0.44221229745E+01 -0.35869875800E+02  0.40659124901E+02  0.00000000000E+00 0. -1.
         11    1    3    3    0    0  0.25791989798E+01  0.17807199404E+01  0.10151874548E+02  0.10624678254E+02  0.51100000000E-03 0. -1.
        -11    1    3    3    0    0  0.32028281409E+01 -0.54348745720E+01  0.26277612152E+02  0.27024227470E+02  0.51100000000E-03 0.  1.
         12    1    3    3    0    0  0.12844869458E+02 -0.76796834289E+00 -0.55961089958E+00  0.12879969376E+02  0.00000000000E+00 0. -1.
</event>
<event>
 7    1  0.5642630E-013  0.5052887E+02  0.7816164E-02  0.1300439E+00
        -11   -1    0    0    0    0  0.00000000000E+00  0.00000000000E+00  0.45593999997E+02  0.45594000000E+02  0.51100000000E-03 0. -1.
         11   -1    0    0    0    0 -0.00000000000E+00 -0.00000000000E+00 -0.45593999997E+02  0.45594000000E+02  0.51100000000E-03 0.  1.
    9900012    2    1    2    0    0  0.40282543501E+02 -0.47410327803E+01  0.28291219656E+01  0.50528872688E+02  0.30000039021E+02 0.  0.
         12    1    1    2    0    0 -0.40282543501E+02  0.47410327803E+01 -0.28291219656E+01  0.40659127312E+02  0.00000000000E+00 0. -1.
         11    1    3    3    0    0  0.77246839571E+01 -0.17624501150E+01  0.88470743202E+01  0.11876350320E+02  0.51100000000E-03 0. -1.
        -11    1    3    3    0    0  0.26574401969E+02  0.14647952010E+01  0.31912471195E+01  0.26805382359E+02  0.51100000000E-03 0.  1.
         12    1    3    3    0    0  0.59834575746E+01 -0.44433778663E+01 -0.92091994742E+01  0.11847140008E+02  0.00000000000E+00 0. -1.
</event>
<event>
 7    1  0.5642630E-013  0.5052886E+02  0.7816164E-02  0.1300439E+00
        -11   -1    0    0    0    0  0.00000000000E+00  0.00000000000E+00  0.45593999997E+02  0.45594000000E+02  0.51100000000E-03 0.  1.
         11   -1    0    0    0    0 -0.00000000000E+00 -0.00000000000E+00 -0.45593999997E+02  0.45594000000E+02  0.51100000000E-03 0. -1.
    9900012    2    1    2    0    0 -0.29472373670E+02  0.24673951288E+02  0.13256729069E+02  0.50528861451E+02  0.30000004867E+02 0.  0.
         12    1    1    2    0    0  0.29472373670E+02 -0.24673951288E+02 -0.13256729069E+02  0.40659138549E+02  0.00000000000E+00 0. -1.
         11    1    3    3    0    0 -0.65753735419E+01  0.13617408506E+02  0.87772160955E+01  0.17484532430E+02  0.51100000000E-03 0. -1.
        -11    1    3    3    0    0 -0.25452574435E+02  0.89942757722E+01  0.80730655612E+01  0.28176318600E+02  0.51100000000E-03 0.  1.
         12    1    3    3    0    0  0.25555743070E+01  0.20622670098E+01 -0.35935525876E+01  0.48680104209E+01  0.00000000000E+00 0. -1.
</event>
<event>
 7    1  0.5642630E-013  0.5052887E+02  0.7816164E-02  0.1300439E+00
        -11   -1    0    0    0    0  0.00000000000E+00  0.00000000000E+00  0.45593999997E+02  0.45594000000E+02  0.51100000000E-03 0.  1.
         11   -1    0    0    0    0 -0.00000000000E+00 -0.00000000000E+00 -0.45593999997E+02  0.45594000000E+02  0.51100000000E-03 0. -1.
    9900012    2    1    2    0    0  0.25920366543E+02  0.94310171325E+01  0.29872311757E+02  0.50528874388E+02  0.30000044189E+02 0.  0.
         12    1    1    2    0    0 -0.25920366543E+02 -0.94310171325E+01 -0.29872311757E+02  0.40659125612E+02  0.00000000000E+00 0. -1.
         11    1    3    3    0    0  0.12441542353E+02  0.95256230646E+00  0.97302600705E+01  0.15823315467E+02  0.51100000000E-03 0. -1.
        -11    1    3    3    0    0  0.13872592121E+02 -0.30526319639E+01  0.18067636605E+02  0.22982751506E+02  0.51100000000E-03 0.  1.
         12    1    3    3    0    0 -0.39376793138E+00  0.11531086790E+02  0.20744150815E+01  0.11722807414E+02  0.00000000000E+00 0. -1.
</event>
<event>
 7    1  0.5642630E-013  0.5052886E+02  0.7816164E-02  0.1300439E+00
        -11   -1    0    0    0    0  0.00000000000E+00  0.00000000000E+00  0.45593999997E+02  0.45594000000E+02  0.51100000000E-03 0. -1.
         11   -1    0    0    0    0 -0.00000000000E+00 -0.00000000000E+00 -0.45593999997E+02  0.45594000000E+02  0.51100000000E-03 0.  1.
    9900012    2    1    2    0    0 -0.17460688878E+02 -0.33047604001E+02 -0.16004565445E+02  0.50528857100E+02  0.29999991641E+02 0.  0.
         12    1    1    2    0    0  0.17460688878E+02  0.33047604001E+02  0.16004565445E+02  0.40659142900E+02  0.00000000000E+00 0. -1.
         11    1    3    3    0    0 -0.67040880092E+01 -0.52050971916E+00 -0.13031191218E+02  0.14663821849E+02  0.51100000000E-03 0. -1.
        -11    1    3    3    0    0 -0.46784579781E+01 -0.29611063257E+01 -0.22474448172E-01  0.55368425196E+01  0.51100000000E-03 0.  1.
         12    1    3    3    0    0 -0.60781428909E+01 -0.29565987956E+02 -0.29508997786E+01  0.30328192731E+02  0.00000000000E+00 0. -1.
</event>
<event>
 7    1  0.5642630E-013  0.5052886E+02  0.7816164E-02  0.1300439E+00
        -11   -1    0    0    0    0  0.00000000000E+00  0.00000000000E+00  0.45593999997E+02  0.45594000000E+02  0.51100000000E-03 0. -1.
         11   -1    0    0    0    0 -0.00000000000E+00 -0.00000000000E+00 -0.45593999997E+02  0.45594000000E+02  0.51100000000E-03 0.  1.
    9900012    2    1    2    0    0  0.35101416454E+02 -0.85219104085E+01 -0.18666364475E+02  0.50528861337E+02  0.30000004520E+02 0.  0.
         12    1    1    2    0    0 -0.35101416454E+02  0.85219104085E+01  0.18666364475E+02  0.40659138663E+02  0.00000000000E+00 0. -1.
         11    1    3    3    0    0  0.26910469382E+02  0.27054387025E+01 -0.53077536722E+01  0.27562021157E+02  0.51100000000E-03 0. -1.
        -11    1    3    3    0    0  0.60756317899E+01 -0.31811922047E+01  0.42044006333E+00  0.68709574004E+01  0.51100000000E-03 0.  1.
         12    1    3    3    0    0  0.21153152821E+01 -0.80461569062E+01 -0.13779050866E+02  0.16095882780E+02  0.00000000000E+00 0. -1.
</event>
<event>
 7    1  0.7009913E-013  0.5052886E+02  0.7816164E-02  0.1300439E+00
        -11   -1    0    0    0    0  0.00000000000E+00  0.00000000000E+00  0.45593999997E+02  0.45594000000E+02  0.51100000000E-03 0.  1.
         11   -1    0    0    0    0 -0.00000000000E+00 -0.00000000000E+00 -0.45593999997E+02  0.45594000000E+02  0.51100000000E-03 0. -1.
    9900012    2    1    2    0    0  0.16189174731E+02 -0.27546393043E+02  0.25145030732E+02  0.50528859347E+02  0.29999998471E+02 0.  0.
         12    1    1    2    0    0 -0.16189174731E+02  0.27546393043E+02 -0.25145030732E+02  0.40659140653E+02  0.00000000000E+00 0. -1.
         11    1    3    3    0    0 -0.18209319749E+01  0.35181719375E+01  0.82710884200E+00  0.40469045376E+01  0.51100000000E-03 0. -1.
        -11    1    3    3    0    0 -0.23404153353E+01 -0.68237366633E+01  0.12605292813E+01  0.73232411077E+01  0.51100000000E-03 0.  1.
        -12    1    3    3    0    0  0.20350522041E+02 -0.24240828317E+02  0.23057392609E+02  0.39158713701E+02  0.00000000000E+00 0.  1.
</event>
<event>
 7    1  0.5642630E-013  0.5052886E+02  0.7816164E-02  0.1300439E+00
        -11   -1    0    0    0    0  0.00000000000E+00  0.00000000000E+00  0.45593999997E+02  0.45594000000E+02  0.51100000000E-03 0.  1.
         11   -1    0    0    0    0 -0.00000000000E+00 -0.00000000000E+00 -0.45593999997E+02  0.45594000000E+02  0.51100000000E-03 0. -1.
    9900012    2    1    2    0    0  0.41337812961E+01  0.38585859105E+02  0.12132966997E+02  0.50528861312E+02  0.30000004445E+02 0.  0.
         12    1    1    2    0    0 -0.41337812961E+01 -0.38585859105E+02 -0.12132966997E+02  0.40659138688E+02  0.00000000000E+00 0. -1.
         11    1    3    3    0    0 -0.79306341210E+01  0.61116392183E+01 -0.15072773743E+01  0.10125165522E+02  0.51100000000E-03 0.  1.
        -11    1    3    3    0    0 -0.28956138277E+01  0.80402977954E+00  0.10131564114E+01  0.31713608279E+01  0.51100000000E-03 0. -1.
        -12    1    3    3    0    0  0.14960029245E+02  0.31670190107E+02  0.12627087959E+02  0.37232334963E+02  0.00000000000E+00 0.  1.
</event>
<event>
 7    1  0.5642630E-013  0.5052887E+02  0.7816164E-02  0.1300439E+00
        -11   -1    0    0    0    0  0.00000000000E+00  0.00000000000E+00  0.45593999997E+02  0.45594000000E+02  0.51100000000E-03 0.  1.
         11   -1    0    0    0    0 -0.00000000000E+00 -0.00000000000E+00 -0.45593999997E+02  0.45594000000E+02  0.51100000000E-03 0. -1.
    9900012    2    1    2    0    0 -0.36688469009E+02  0.16898428371E+02  0.46437096560E+01  0.50528872132E+02  0.30000037332E+02 0.  0.
         12    1    1    2    0    0  0.36688469009E+02 -0.16898428371E+02 -0.46437096560E+01  0.40659127868E+02  0.00000000000E+00 0. -1.
         11    1    3    3    0    0 -0.58920974492E+01  0.57190549932E+01  0.47986480754E+01  0.95105954587E+01  0.51100000000E-03 0. -1.
        -11    1    3    3    0    0 -0.19769728438E+02  0.18228494189E+02  0.42181042936E+01  0.27219709165E+02  0.51100000000E-03 0.  1.
        -12    1    3    3    0    0 -0.11026643121E+02 -0.70491208104E+01 -0.43730427130E+01  0.13798567509E+02  0.00000000000E+00 0.  1.
</event>
<event>
 7    1  0.5642630E-013  0.5052886E+02  0.7816164E-02  0.1300439E+00
        -11   -1    0    0    0    0  0.00000000000E+00  0.00000000000E+00  0.45593999997E+02  0.45594000000E+02  0.51100000000E-03 0.  1.
         11   -1    0    0    0    0 -0.00000000000E+00 -0.00000000000E+00 -0.45593999997E+02  0.45594000000E+02  0.51100000000E-03 0. -1.
    9900012    2    1    2    0    0 -0.27320225083E+02  0.17890235694E+02  0.24222109971E+02  0.50528857815E+02  0.29999993815E+02 0.  0.
         12    1    1    2    0    0  0.27320225083E+02 -0.17890235694E+02 -0.24222109971E+02  0.40659142185E+02  0.00000000000E+00 0. -1.
         11    1    3    3    0    0  0.35401555827E+00  0.49935930715E+00 -0.60104324150E+00  0.85786943786E+00  0.51100000000E-03 0. -1.
        -11    1    3    3    0    0 -0.14731564743E+02  0.37161775541E+01  0.26730151794E+02  0.30746219127E+02  0.51100000000E-03 0.  1.
        -12    1    3    3    0    0 -0.12942675899E+02  0.13674698833E+02 -0.19069985824E+01  0.18924769250E+02  0.00000000000E+00 0.  1.
</event>
<event>
 7    1  0.5642630E-013  0.5052886E+02  0.7816164E-02  0.1300439E+00
        -11   -1    0    0    0    0  0.00000000000E+00  0.00000000000E+00  0.45593999997E+02  0.45594000000E+02  0.51100000000E-03 0. -1.
         11   -1    0    0    0    0 -0.00000000000E+00 -0.00000000000E+00 -0.45593999997E+02  0.45594000000E+02  0.51100000000E-03 0.  1.
    9900012    2    1    2    0    0  0.92832712761E+01  0.29133514623E+01 -0.39477823832E+02  0.50528864288E+02  0.30000013491E+02 0.  0.
         12    1    1    2    0    0 -0.92832712761E+01 -0.29133514623E+01  0.39477823832E+02  0.40659135712E+02  0.00000000000E+00 0. -1.
         11    1    3    3    0    0  0.55008157049E+01 -0.76985427292E+01 -0.16604496781E+02  0.19111144581E+02  0.51100000000E-03 0. -1.
        -11    1    3    3    0    0  0.33018953595E+01 -0.12730986539E+01 -0.18356159140E+02  0.18694166785E+02  0.51100000000E-03 0.  1.
         12    1    3    3    0    0  0.48056021163E+00  0.11884992845E+02 -0.45171679108E+01  0.12723552923E+02  0.00000000000E+00 0. -1.
</event>
<event>
 7    1  0.5642630E-013  0.5052886E+02  0.7816164E-02  0.1300439E+00
        -11   -1    0    0    0    0  0.00000000000E+00  0.00000000000E+00  0.45593999997E+02  0.45594000000E+02  0.51100000000E-03 0. -1.
         11   -1    0    0    0    0 -0.00000000000E+00 -0.00000000000E+00 -0.45593999997E+02  0.45594000000E+02  0.51100000000E-03 0.  1.
    9900012    2    1    2    0    0  0.19865643800E+02 -0.35475508474E+02  0.10211465847E+00  0.50528856717E+02  0.29999990477E+02 0.  0.
         12    1    1    2    0    0 -0.19865643800E+02  0.35475508474E+02 -0.10211465847E+00  0.40659143283E+02  0.00000000000E+00 0. -1.
         11    1    3    3    0    0  0.21043411750E+01  0.51870380151E+00  0.28910381966E+01  0.36132267476E+01  0.51100000000E-03 0. -1.
        -11    1    3    3    0    0  0.10508761407E+02 -0.98190344399E+01  0.93613497682E+01  0.17160488728E+02  0.51100000000E-03 0.  1.
        -12    1    3    3    0    0  0.72525412183E+01 -0.26175177836E+02 -0.12150273306E+02  0.29755141241E+02  0.00000000000E+00 0.  1.
</event>
<event>
 7    1  0.5642630E-013  0.5052885E+02  0.7816164E-02  0.1300439E+00
        -11   -1    0    0    0    0  0.00000000000E+00  0.00000000000E+00  0.45593999997E+02  0.45594000000E+02  0.51100000000E-03 0. -1.
         11   -1    0    0    0    0 -0.00000000000E+00 -0.00000000000E+00 -0.45593999997E+02  0.45594000000E+02  0.51100000000E-03 0.  1.
    9900012    2    1    2    0    0 -0.36057551980E+02  0.20616180568E+01 -0.18675355585E+02  0.50528853058E+02  0.29999979355E+02 0.  0.
         12    1    1    2    0    0  0.36057551980E+02 -0.20616180568E+01  0.18675355585E+02  0.40659146942E+02  0.00000000000E+00 0. -1.
         11    1    3    3    0    0 -0.10417564428E+02 -0.30349240016E+01 -0.11264422802E+02  0.15640448639E+02  0.51100000000E-03 0.  1.
        -11    1    3    3    0    0 -0.51911334702E+01 -0.48682040303E+01  0.52602948135E+01  0.88497445710E+01  0.51100000000E-03 0. -1.
         12    1    3    3    0    0 -0.20448854082E+02  0.99647460887E+01 -0.12671227596E+02  0.26038659848E+02  0.00000000000E+00 0. -1.
</event>
<event>
 7    1  0.5642630E-013  0.5052887E+02  0.7816164E-02  0.1300439E+00
        -11   -1    0    0    0    0  0.00000000000E+00  0.00000000000E+00  0.45593999997E+02  0.45594000000E+02  0.51100000000E-03 0.  1.
         11   -1    0    0    0    0 -0.00000000000E+00 -0.00000000000E+00 -0.45593999997E+02  0.45594000000E+02  0.51100000000E-03 0. -1.
    9900012    2    1    2    0    0 -0.11598924635E+02  0.85736564801E+01  0.38014759860E+02  0.50528873037E+02  0.30000040085E+02 0.  0.
         12    1    1    2    0    0  0.11598924635E+02 -0.85736564801E+01 -0.38014759860E+02  0.40659126963E+02  0.00000000000E+00 0. -1.
         11    1    3    3    0    0 -0.40888057890E+01  0.20155789582E+01  0.11312690435E+02  0.12196632996E+02  0.51100000000E-03 0. -1.
        -11    1    3    3    0    0 -0.33938296641E+01  0.11686321422E+02  0.28933154475E+02  0.31388144519E+02  0.51100000000E-03 0.  1.
        -12    1    3    3    0    0 -0.41162891816E+01 -0.51282439000E+01 -0.22310850498E+01  0.69440955224E+01  0.00000000000E+00 0.  1.
</event>
<event>
 7    1  0.5642630E-013  0.5052886E+02  0.7816164E-02  0.1300439E+00
        -11   -1    0    0    0    0  0.00000000000E+00  0.00000000000E+00  0.45593999997E+02  0.45594000000E+02  0.51100000000E-03 0.  1.
         11   -1    0    0    0    0 -0.00000000000E+00 -0.00000000000E+00 -0.45593999997E+02  0.45594000000E+02  0.51100000000E-03 0. -1.
    9900012    2    1    2    0    0 -0.36351770823E+01  0.23431830998E+02  0.33028783728E+02  0.50528858704E+02  0.29999996518E+02 0.  0.
         12    1    1    2    0    0  0.36351770823E+01 -0.23431830998E+02 -0.33028783728E+02  0.40659141296E+02  0.00000000000E+00 0. -1.
         11    1    3    3    0    0 -0.23285129944E+00  0.17338159566E+01 -0.89318376805E+00  0.19642084929E+01  0.51100000000E-03 0. -1.
        -11    1    3    3    0    0 -0.14693421367E+02  0.17066058986E+02  0.21034228418E+02  0.30815349522E+02  0.51100000000E-03 0.  1.
         12    1    3    3    0    0  0.11291095585E+02  0.46319560560E+01  0.12887739079E+02  0.17749300689E+02  0.00000000000E+00 0. -1.
</event>
<event>
 7    1  0.5642630E-013  0.5052886E+02  0.7816164E-02  0.1300439E+00
        -11   -1    0    0    0    0  0.00000000000E+00  0.00000000000E+00  0.45593999997E+02  0.45594000000E+02  0.51100000000E-03 0. -1.
         11   -1    0    0    0    0 -0.00000000000E+00 -0.00000000000E+00 -0.45593999997E+02  0.45594000000E+02  0.51100000000E-03 0.  1.
    9900012    2    1    2    0    0  0.82071718364E+01  0.22917194502E+02 -0.32567013234E+02  0.50528858047E+02  0.29999994519E+02 0.  0.
         12    1    1    2    0    0 -0.82071718364E+01 -0.22917194502E+02  0.32567013234E+02  0.40659141953E+02  0.00000000000E+00 0. -1.
         11    1    3    3    0    0  0.35701474165E+01 -0.43692807826E+00 -0.39652802114E+01  0.53535321178E+01  0.51100000000E-03 0. -1.
        -11    1    3    3    0    0 -0.46901041175E+01 -0.12674319918E+01  0.15937589193E+01  0.51130742456E+01  0.51100000000E-03 0.  1.
        -12    1    3    3    0    0  0.93271285374E+01  0.24621554573E+02 -0.30195491942E+02  0.40062251683E+02  0.00000000000E+00 0.  1.
</event>
<event>
 7    1  0.5642630E-013  0.5052886E+02  0.7816164E-02  0.1300439E+00
        -11   -1    0    0    0    0  0.00000000000E+00  0.00000000000E+00  0.45593999997E+02  0.45594000000E+02  0.51100000000E-03 0. -1.
         11   -1    0    0    0    0 -0.00000000000E+00 -0.00000000000E+00 -0.45593999997E+02  0.45594000000E+02  0.51100000000E-03 0.  1.
    9900012    2    1    2    0    0  0.68280694518E+01 -0.34088748662E+02 -0.21083169066E+02  0.50528864056E+02  0.30000012785E+02 0.  0.
         12    1    1    2    0    0 -0.68280694518E+01  0.34088748662E+02  0.21083169066E+02  0.40659135944E+02  0.00000000000E+00 0. -1.
         11    1    3    3    0    0  0.60932634753E+01 -0.72726677172E+01 -0.83991382904E+01  0.12671427693E+02  0.51100000000E-03 0. -1.
        -11    1    3    3    0    0  0.10044069933E+02 -0.10611628353E+02 -0.12405327643E+02  0.19167215533E+02  0.51100000000E-03 0.  1.
        -12    1    3    3    0    0 -0.93092639562E+01 -0.16204452593E+02 -0.27870313351E+00  0.18690220830E+02  0.00000000000E+00 0.  1.
</event>
<event>
 7    1  0.5642630E-013  0.5052885E+02  0.7816164E-02  0.1300439E+00
        -11   -1    0    0    0    0  0.00000000000E+00  0.00000000000E+00  0.45593999997E+02  0.45594000000E+02  0.51100000000E-03 0.  1.
         11   -1    0    0    0    0 -0.00000000000E+00 -0.00000000000E+00 -0.45593999997E+02  0.45594000000E+02  0.51100000000E-03 0. -1.
    9900012    2    1    2    0    0 -0.33059297694E+02  0.93647312099E+01  0.21738231812E+02  0.50528854941E+02  0.29999985077E+02 0.  0.
         12    1    1    2    0    0  0.33059297694E+02 -0.93647312099E+01 -0.21738231812E+02  0.40659145059E+02  0.00000000000E+00 0. -1.
         11    1    3    3    0    0 -0.14294504497E+02 -0.46832912057E+01  0.13920960283E+02  0.20495346076E+02  0.51100000000E-03 0. -1.
        -11    1    3    3    0    0 -0.14450936390E+02  0.29687839086E+01 -0.16370389358E+01  0.14843285929E+02  0.51100000000E-03 0.  1.
        -12    1    3    3    0    0 -0.43138568075E+01  0.11079238507E+02  0.94543104646E+01  0.15190222935E+02  0.00000000000E+00 0.  1.
</event>
<event>
 7    1  0.5642630E-013  0.5052886E+02  0.7816164E-02  0.1300439E+00
        -11   -1    0    0    0    0  0.00000000000E+00  0.00000000000E+00  0.45593999997E+02  0.45594000000E+02  0.51100000000E-03 0. -1.
         11   -1    0    0    0    0 -0.00000000000E+00 -0.00000000000E+00 -0.45593999997E+02  0.45594000000E+02  0.51100000000E-03 0.  1.
    9900012    2    1    2    0    0  0.15834397817E+02 -0.14989535535E+02 -0.34318387138E+02  0.50528855573E+02  0.29999986998E+02 0.  0.
         12    1    1    2    0    0 -0.15834397817E+02  0.14989535535E+02  0.34318387138E+02  0.40659144427E+02  0.00000000000E+00 0. -1.
         11    1    3    3    0    0 -0.11461861997E+01  0.30369992879E+01  0.91919963020E+00  0.33737272712E+01  0.51100000000E-03 0. -1.
        -11    1    3    3    0    0  0.21307776598E+01 -0.13225692468E+02 -0.75639840259E+01  0.15384180489E+02  0.51100000000E-03 0.  1.
        -12    1    3    3    0    0  0.14849806357E+02 -0.48008423548E+01 -0.27673602743E+02  0.31770947813E+02  0.00000000000E+00 0.  1.
</event>
<event>
 7    1  0.5642630E-013  0.5052886E+02  0.7816164E-02  0.1300439E+00
        -11   -1    0    0    0    0  0.00000000000E+00  0.00000000000E+00  0.45593999997E+02  0.45594000000E+02  0.51100000000E-03 0.  1.
         11   -1    0    0    0    0 -0.00000000000E+00 -0.00000000000E+00 -0.45593999997E+02  0.45594000000E+02  0.51100000000E-03 0. -1.
    9900012    2    1    2    0    0 -0.19572049497E+02 -0.15532476248E+02  0.32075573684E+02  0.50528863670E+02  0.30000011612E+02 0.  0.
         12    1    1    2    0    0  0.19572049497E+02  0.15532476248E+02 -0.32075573684E+02  0.40659136330E+02  0.00000000000E+00 0. -1.
         11    1    3    3    0    0 -0.17109038577E+01  0.43599779680E+01  0.18860175024E+02  0.19433033785E+02  0.51100000000E-03 0. -1.
        -11    1    3    3    0    0  0.63910229577E+00 -0.48389370142E+00 -0.53363564454E+00  0.96300162044E+00  0.51100000000E-03 0.  1.
        -12    1    3    3    0    0 -0.18500247935E+02 -0.19408560515E+02  0.13749034304E+02  0.30132828265E+02  0.00000000000E+00 0.  1.
</event>
<event>
 7    1  0.5642630E-013  0.5052885E+02  0.7816164E-02  0.1300439E+00
        -11   -1    0    0    0    0  0.00000000000E+00  0.00000000000E+00  0.45593999997E+02  0.45594000000E+02  0.51100000000E-03 0.  1.
         11   -1    0    0    0    0 -0.00000000000E+00 -0.00000000000E+00 -0.45593999997E+02  0.45594000000E+02  0.51100000000E-03 0. -1.
    9900012    2    1    2    0    0  0.27307014134E+02 -0.24872198876E+02 -0.16996102756E+02  0.50528845966E+02  0.29999957798E+02 0.  0.
         12    1    1    2    0    0 -0.27307014134E+02  0.24872198876E+02  0.16996102756E+02  0.40659154034E+02  0.00000000000E+00 0. -1.
         11    1    3    3    0    0 -0.28268508061E+01  0.27439443942E+01  0.24199233790E+01  0.46234560385E+01  0.51100000000E-03 0. -1.
        -11    1    3    3    0    0  0.22341728347E+01 -0.34015227461E+01  0.20669744690E+00  0.40748753776E+01  0.51100000000E-03 0.  1.
        -12    1    3    3    0    0  0.27899692106E+02 -0.24214620525E+02 -0.19622723581E+02  0.41830514550E+02  0.00000000000E+00 0.  1.
</event>
<event>
 7    1  0.5642630E-013  0.5052887E+02  0.7816164E-02  0.1300439E+00
        -11   -1    0    0    0    0  0.00000000000E+00  0.00000000000E+00  0.45593999997E+02  0.45594000000E+02  0.51100000000E-03 0. -1.
         11   -1    0    0    0    0 -0.00000000000E+00 -0.00000000000E+00 -0.45593999997E+02  0.45594000000E+02  0.51100000000E-03 0.  1.
    9900012    2    1    2    0    0 -0.38916549230E+02  0.79378246188E+01  0.86981789876E+01  0.50528865955E+02  0.30000018555E+02 0.  0.
         12    1    1    2    0    0  0.38916549230E+02 -0.79378246188E+01 -0.86981789876E+01  0.40659134045E+02  0.00000000000E+00 0. -1.
         11    1    3    3    0    0 -0.52840892032E+01  0.19483182088E+01 -0.28302496610E+01  0.63030037248E+01  0.51100000000E-03 0. -1.
        -11    1    3    3    0    0 -0.60234867823E+01 -0.22461623688E+01 -0.73621824077E+01  0.97739126490E+01  0.51100000000E-03 0.  1.
        -12    1    3    3    0    0 -0.27608973244E+02  0.82356687787E+01  0.18890611056E+02  0.34451949581E+02  0.00000000000E+00 0.  1.
</event>
<event>
 7    1  0.5642630E-013  0.5052886E+02  0.7816164E-02  0.1300439E+00
        -11   -1    0    0    0    0  0.00000000000E+00  0.00000000000E+00  0.45593999997E+02  0.45594000000E+02  0.51100000000E-03 0. -1.
         11   -1    0    0    0    0 -0.00000000000E+00 -0.00000000000E+00 -0.45593999997E+02  0.45594000000E+02  0.51100000000E-03 0.  1.
    9900012    2    1    2    0    0 -0.23782077978E+01  0.38041372788E+02 -0.14154992838E+02  0.50528859107E+02  0.29999997741E+02 0.  0.
         12    1    1    2    0    0  0.23782077978E+01 -0.38041372788E+02  0.14154992838E+02  0.40659140893E+02  0.00000000000E+00 0. -1.
         11    1    3    3    0    0  0.30871756086E+01 -0.60747335304E+00 -0.21761011697E+01  0.38255840959E+01  0.51100000000E-03 0. -1.
        -11    1    3    3    0    0  0.73355725626E+01  0.16807367200E+02 -0.10965292007E+02  0.21366699466E+02  0.51100000000E-03 0.  1.
         12    1    3    3    0    0 -0.12800955969E+02  0.21841478941E+02 -0.10135996614E+01  0.25336575545E+02  0.00000000000E+00 0. -1.
</event>
<event>
 7    1  0.5642630E-013  0.5052883E+02  0.7816164E-02  0.1300439E+00
        -11   -1    0    0    0    0  0.00000000000E+00  0.00000000000E+00  0.45593999997E+02  0.45594000000E+02  0.51100000000E-03 0.  1.
         11   -1    0    0    0    0 -0.00000000000E+00 -0.00000000000E+00 -0.45593999997E+02  0.45594000000E+02  0.51100000000E-03 0. -1.
    9900012    2    1    2    0    0 -0.16221155209E+02 -0.27400502208E+02  0.25283485509E+02  0.50528830837E+02  0.29999911813E+02 0.  0.
         12    1    1    2    0    0  0.16221155209E+02  0.27400502208E+02 -0.25283485509E+02  0.40659169163E+02  0.00000000000E+00 0. -1.
         11    1    3    3    0    0 -0.77750343357E+01 -0.61594948811E+01  0.11330687365E+02  0.15059050851E+02  0.51100000000E-03 0. -1.
        -11    1    3    3    0    0  0.97124790487E+00 -0.55366561476E+01  0.16080814145E+02  0.17034977770E+02  0.51100000000E-03 0.  1.
         12    1    3    3    0    0 -0.94173687779E+01 -0.15704351179E+02 -0.21280160016E+01  0.18434802216E+02  0.00000000000E+00 0. -1.
</event>
<event>
 7    1  0.5642630E-013  0.5052890E+02  0.7816164E-02  0.1300439E+00
        -11   -1    0    0    0    0  0.00000000000E+00  0.00000000000E+00  0.45593999997E+02  0.45594000000E+02  0.51100000000E-03 0.  1.
         11   -1    0    0    0    0 -0.00000000000E+00 -0.00000000000E+00 -0.45593999997E+02  0.45594000000E+02  0.51100000000E-03 0. -1.
    9900012    2    1    2    0    0 -0.82669423095E+01 -0.14330697760E+01  0.39783995963E+02  0.50528900663E+02  0.30000124054E+02 0.  0.
         12    1    1    2    0    0  0.82669423095E+01  0.14330697760E+01 -0.39783995963E+02  0.40659099337E+02  0.00000000000E+00 0. -1.
         11    1    3    3    0    0  0.34879728034E+01 -0.22887713623E+01  0.15331831062E+02  0.15889287983E+02  0.51100000000E-03 0. -1.
        -11    1    3    3    0    0 -0.14235808588E+01  0.62094062740E+01  0.21790987982E+02  0.22703093759E+02  0.51100000000E-03 0.  1.
         12    1    3    3    0    0 -0.10331334254E+02 -0.53537046877E+01  0.26611769190E+01  0.11936518921E+02  0.00000000000E+00 0. -1.
</event>
<event>
 7    1  0.5642630E-013  0.5052885E+02  0.7816164E-02  0.1300439E+00
        -11   -1    0    0    0    0  0.00000000000E+00  0.00000000000E+00  0.45593999997E+02  0.45594000000E+02  0.51100000000E-03 0. -1.
         11   -1    0    0    0    0 -0.00000000000E+00 -0.00000000000E+00 -0.45593999997E+02  0.45594000000E+02  0.51100000000E-03 0.  1.
    9900012    2    1    2    0    0  0.30684946049E+02  0.14195609793E+02 -0.22585058579E+02  0.50528854381E+02  0.29999983378E+02 0.  0.
         12    1    1    2    0    0 -0.30684946049E+02 -0.14195609793E+02  0.22585058579E+02  0.40659145619E+02  0.00000000000E+00 0. -1.
         11    1    3    3    0    0  0.69202864905E+01  0.27693468984E+01 -0.43525768401E+00  0.74665317830E+01  0.51100000000E-03 0. -1.
        -11    1    3    3    0    0  0.22970255449E+02  0.18488004010E+02 -0.15418809242E+02  0.33274293477E+02  0.51100000000E-03 0.  1.
        -12    1    3    3    0    0  0.79440410918E+00 -0.70617411149E+01 -0.67309916523E+01  0.97880291216E+01  0.00000000000E+00 0.  1.
</event>
<event>
 7    1  0.5642630E-013  0.5052884E+02  0.7816164E-02  0.1300439E+00
        -11   -1    0    0    0    0  0.00000000000E+00  0.00000000000E+00  0.45593999997E+02  0.45594000000E+02  0.51100000000E-03 0. -1.
         11   -1    0    0    0    0 -0.00000000000E+00 -0.00000000000E+00 -0.45593999997E+02  0.45594000000E+02  0.51100000000E-03 0.  1.
    9900012    2    1    2    0    0 -0.18765010049E+02 -0.11131520487E+02 -0.34309347048E+02  0.50528835654E+02  0.29999926453E+02 0.  0.
         12    1    1    2    0    0  0.18765010049E+02  0.11131520487E+02  0.34309347048E+02  0.40659164346E+02  0.00000000000E+00 0. -1.
         11    1    3    3    0    0 -0.92359676962E+00 -0.12316069196E+02 -0.83316464438E+01  0.14898151703E+02  0.51100000000E-03 0. -1.
        -11    1    3    3    0    0 -0.16012650384E+02 -0.37670217036E+01 -0.11100478307E+02  0.19844798909E+02  0.51100000000E-03 0.  1.
        -12    1    3    3    0    0 -0.18287628956E+01  0.49515704128E+01 -0.14877222297E+02  0.15785885042E+02  0.00000000000E+00 0.  1.
</event>
<event>
 7    1  0.5642630E-013  0.5052888E+02  0.7816164E-02  0.1300439E+00
        -11   -1    0    0    0    0  0.00000000000E+00  0.00000000000E+00  0.45593999997E+02  0.45594000000E+02  0.51100000000E-03 0.  1.
         11   -1    0    0    0    0 -0.00000000000E+00 -0.00000000000E+00 -0.45593999997E+02  0.45594000000E+02  0.51100000000E-03 0. -1.
    9900012    2    1    2    0    0 -0.37076897097E+02 -0.16638448509E+02 -0.12766474179E+01  0.50528879304E+02  0.30000059133E+02 0.  0.
         12    1    1    2    0    0  0.37076897097E+02  0.16638448509E+02  0.12766474179E+01  0.40659120696E+02  0.00000000000E+00 0. -1.
         11    1    3    3    0    0 -0.17313561854E+01  0.20477088077E+01  0.18328752920E+01  0.32480975508E+01  0.51100000000E-03 0.  1.
        -11    1    3    3    0    0  0.13189362716E+01  0.23321166650E+01 -0.42266763763E+01  0.50043135872E+01  0.51100000000E-03 0. -1.
        -12    1    3    3    0    0 -0.36664477183E+02 -0.21018273982E+02  0.11171536663E+01  0.42276468166E+02  0.00000000000E+00 0.  1.
</event>
<event>
 7    1  0.5642630E-013  0.5052886E+02  0.7816164E-02  0.1300439E+00
        -11   -1    0    0    0    0  0.00000000000E+00  0.00000000000E+00  0.45593999997E+02  0.45594000000E+02  0.51100000000E-03 0.  1.
         11   -1    0    0    0    0 -0.00000000000E+00 -0.00000000000E+00 -0.45593999997E+02  0.45594000000E+02  0.51100000000E-03 0. -1.
    9900012    2    1    2    0    0 -0.27156409458E+02  0.20051502981E+02  0.22663461293E+02  0.50528858048E+02  0.29999994524E+02 0.  0.
         12    1    1    2    0    0  0.27156409458E+02 -0.20051502981E+02 -0.22663461293E+02  0.40659141952E+02  0.00000000000E+00 0. -1.
         11    1    3    3    0    0  0.16148176399E+01 -0.21622156989E+01 -0.26571244534E+01  0.37872316223E+01  0.51100000000E-03 0. -1.
        -11    1    3    3    0    0 -0.32256249161E+01  0.10830970248E+02  0.65954603008E+01  0.13084902348E+02  0.51100000000E-03 0.  1.
        -12    1    3    3    0    0 -0.25545602182E+02  0.11382748432E+02  0.18725125446E+02  0.33656724078E+02  0.00000000000E+00 0.  1.
</event>
<event>
 7    1  0.5642630E-013  0.5052895E+02  0.7816164E-02  0.1300438E+00
        -11   -1    0    0    0    0  0.00000000000E+00  0.00000000000E+00  0.45593999997E+02  0.45594000000E+02  0.51100000000E-03 0.  1.
         11   -1    0    0    0    0 -0.00000000000E+00 -0.00000000000E+00 -0.45593999997E+02  0.45594000000E+02  0.51100000000E-03 0. -1.
    9900012    2    1    2    0    0  0.23083594176E+02 -0.30002176876E+01  0.33336237045E+02  0.50528950250E+02  0.30000274779E+02 0.  0.
         12    1    1    2    0    0 -0.23083594176E+02  0.30002176876E+01 -0.33336237045E+02  0.40659049750E+02  0.00000000000E+00 0. -1.
         11    1    3    3    0    0  0.49522164155E+01  0.28646703484E+01  0.74174476939E+01  0.93674603914E+01  0.51100000000E-03 0. -1.
        -11    1    3    3    0    0 -0.15461142097E+01  0.54454763762E+01 -0.12120670415E+01  0.57890231376E+01  0.51100000000E-03 0.  1.
        -12    1    3    3    0    0  0.19677491970E+02 -0.11310364412E+02  0.27130856392E+02  0.35372466721E+02  0.00000000000E+00 0.  1.
</event>
<event>
 7    1  0.5642630E-013  0.5052886E+02  0.7816164E-02  0.1300439E+00
        -11   -1    0    0    0    0  0.00000000000E+00  0.00000000000E+00  0.45593999997E+02  0.45594000000E+02  0.51100000000E-03 0. -1.
         11   -1    0    0    0    0 -0.00000000000E+00 -0.00000000000E+00 -0.45593999997E+02  0.45594000000E+02  0.51100000000E-03 0.  1.
    9900012    2    1    2    0    0  0.21661146912E+02 -0.29708012956E+02 -0.17360703557E+02  0.50528863913E+02  0.30000012350E+02 0.  0.
         12    1    1    2    0    0 -0.21661146912E+02  0.29708012956E+02  0.17360703557E+02  0.40659136087E+02  0.00000000000E+00 0. -1.
         11    1    3    3    0    0  0.11740728194E+02 -0.19483785885E+02 -0.82898749255E+01  0.24211250225E+02  0.51100000000E-03 0. -1.
        -11    1    3    3    0    0  0.67487530604E+01 -0.69258812885E+01 -0.15594310605E+02  0.18349278542E+02  0.51100000000E-03 0.  1.
         12    1    3    3    0    0  0.31716656580E+01 -0.32983457825E+01  0.65234819730E+01  0.79683351460E+01  0.00000000000E+00 0. -1.
</event>
<event>
 7    1  0.5642630E-013  0.5052886E+02  0.7816164E-02  0.1300439E+00
        -11   -1    0    0    0    0  0.00000000000E+00  0.00000000000E+00  0.45593999997E+02  0.45594000000E+02  0.51100000000E-03 0.  1.
         11   -1    0    0    0    0 -0.00000000000E+00 -0.00000000000E+00 -0.45593999997E+02  0.45594000000E+02  0.51100000000E-03 0. -1.
    9900012    2    1    2    0    0  0.35953675196E+02  0.18824254130E+02 -0.24791138053E+01  0.50528864386E+02  0.30000013787E+02 0.  0.
         12    1    1    2    0    0 -0.35953675196E+02 -0.18824254130E+02  0.24791138053E+01  0.40659135614E+02  0.00000000000E+00 0. -1.
         11    1    3    3    0    0  0.33292764511E+00  0.28001422406E+01 -0.24537767580E+01  0.37380018758E+01  0.51100000000E-03 0. -1.
        -11    1    3    3    0    0  0.11746483913E+02  0.15412008963E+02  0.88625014782E+01  0.21308539071E+02  0.51100000000E-03 0.  1.
         12    1    3    3    0    0  0.23874263637E+02  0.61210292628E+00 -0.88878385256E+01  0.25482323439E+02  0.00000000000E+00 0. -1.
</event>
<event>
 7    1  0.5642630E-013  0.5052884E+02  0.7816164E-02  0.1300439E+00
        -11   -1    0    0    0    0  0.00000000000E+00  0.00000000000E+00  0.45593999997E+02  0.45594000000E+02  0.51100000000E-03 0.  1.
         11   -1    0    0    0    0 -0.00000000000E+00 -0.00000000000E+00 -0.45593999997E+02  0.45594000000E+02  0.51100000000E-03 0. -1.
    9900012    2    1    2    0    0  0.26211572431E+02  0.27330638387E+02  0.14803945213E+02  0.50528842141E+02  0.29999946171E+02 0.  0.
         12    1    1    2    0    0 -0.26211572431E+02 -0.27330638387E+02 -0.14803945213E+02  0.40659157859E+02  0.00000000000E+00 0. -1.
         11    1    3    3    0    0  0.89710618610E-01 -0.22645889683E+01 -0.16952200552E+01  0.28302265788E+01  0.51100000000E-03 0. -1.
        -11    1    3    3    0    0  0.12349330070E+02  0.40198082985E+01  0.13109923289E+02  0.18453587749E+02  0.51100000000E-03 0.  1.
         12    1    3    3    0    0  0.13772531742E+02  0.25575419057E+02  0.33892419796E+01  0.29245027812E+02  0.00000000000E+00 0. -1.
</event>
<event>
 7    1  0.5642630E-013  0.5052885E+02  0.7816164E-02  0.1300439E+00
        -11   -1    0    0    0    0  0.00000000000E+00  0.00000000000E+00  0.45593999997E+02  0.45594000000E+02  0.51100000000E-03 0.  1.
         11   -1    0    0    0    0 -0.00000000000E+00 -0.00000000000E+00 -0.45593999997E+02  0.45594000000E+02  0.51100000000E-03 0. -1.
    9900012    2    1    2    0    0  0.13262297442E+02 -0.93827522084E+01  0.37272535041E+02  0.50528850466E+02  0.29999971477E+02 0.  0.
         12    1    1    2    0    0 -0.13262297442E+02  0.93827522084E+01 -0.37272535041E+02  0.40659149534E+02  0.00000000000E+00 0. -1.
         11    1    3    3    0    0 -0.86277442155E+01 -0.56212657464E+01  0.53776292399E+01  0.11617034705E+02  0.51100000000E-03 0. -1.
        -11    1    3    3    0    0  0.24337950986E+01 -0.66575998649E+00  0.27418482398E+01  0.37261678670E+01  0.51100000000E-03 0.  1.
         12    1    3    3    0    0  0.19456246559E+02 -0.30957264755E+01  0.29153057561E+02  0.35185647894E+02  0.00000000000E+00 0. -1.
</event>
<event>
 7    1  0.5642630E-013  0.5052886E+02  0.7816164E-02  0.1300439E+00
        -11   -1    0    0    0    0  0.00000000000E+00  0.00000000000E+00  0.45593999997E+02  0.45594000000E+02  0.51100000000E-03 0. -1.
         11   -1    0    0    0    0 -0.00000000000E+00 -0.00000000000E+00 -0.45593999997E+02  0.45594000000E+02  0.51100000000E-03 0.  1.
    9900012    2    1    2    0    0 -0.40480400410E+02 -0.16914021342E+01 -0.34119804828E+01  0.50528864872E+02  0.30000015266E+02 0.  0.
         12    1    1    2    0    0  0.40480400410E+02  0.16914021342E+01  0.34119804828E+01  0.40659135128E+02  0.00000000000E+00 0. -1.
         11    1    3    3    0    0 -0.28051663194E+02 -0.32252938590E+01  0.46841615452E+01  0.28622363601E+02  0.51100000000E-03 0. -1.
        -11    1    3    3    0    0 -0.13037562569E+02 -0.42954434562E+01 -0.83013632039E+01  0.16041867209E+02  0.51100000000E-03 0.  1.
         12    1    3    3    0    0  0.60882535386E+00  0.58293351811E+01  0.20522117600E+00  0.58646340633E+01  0.00000000000E+00 0. -1.
</event>
<event>
 7    1  0.5642630E-013  0.5052886E+02  0.7816164E-02  0.1300439E+00
        -11   -1    0    0    0    0  0.00000000000E+00  0.00000000000E+00  0.45593999997E+02  0.45594000000E+02  0.51100000000E-03 0.  1.
         11   -1    0    0    0    0 -0.00000000000E+00 -0.00000000000E+00 -0.45593999997E+02  0.45594000000E+02  0.51100000000E-03 0. -1.
    9900012    2    1    2    0    0 -0.22579319137E+02 -0.24827663886E+02  0.22954892570E+02  0.50528860318E+02  0.30000001424E+02 0.  0.
         12    1    1    2    0    0  0.22579319137E+02  0.24827663886E+02 -0.22954892570E+02  0.40659139682E+02  0.00000000000E+00 0. -1.
         11    1    3    3    0    0 -0.10164337309E+01 -0.33492320995E+01  0.80749005550E+01  0.88008245307E+01  0.51100000000E-03 0. -1.
        -11    1    3    3    0    0  0.54823623594E+01 -0.37685190443E+01  0.23064952539E+01  0.70411613704E+01  0.51100000000E-03 0.  1.
        -12    1    3    3    0    0 -0.27045247765E+02 -0.17709912743E+02  0.12573496761E+02  0.34686874417E+02  0.00000000000E+00 0.  1.
</event>
<event>
 7    1  0.5642630E-013  0.5052886E+02  0.7816164E-02  0.1300439E+00
        -11   -1    0    0    0    0  0.00000000000E+00  0.00000000000E+00  0.45593999997E+02  0.45594000000E+02  0.51100000000E-03 0. -1.
         11   -1    0    0    0    0 -0.00000000000E+00 -0.00000000000E+00 -0.45593999997E+02  0.45594000000E+02  0.51100000000E-03 0.  1.
    9900012    2    1    2    0    0 -0.13021665613E+02 -0.34858969675E+02 -0.16384558293E+02  0.50528864586E+02  0.30000014395E+02 0.  0.
         12    1    1    2    0    0  0.13021665613E+02  0.34858969675E+02  0.16384558293E+02  0.40659135414E+02  0.00000000000E+00 0. -1.
         11    1    3    3    0    0 -0.76319275020E+00  0.43268101963E+01 -0.54894123237E+01  0.70311732711E+01  0.51100000000E-03 0. -1.
        -11    1    3    3    0    0 -0.35537761074E+01 -0.51986488463E+01 -0.47304440618E+01  0.78760634667E+01  0.51100000000E-03 0.  1.
        -12    1    3    3    0    0 -0.87046967556E+01 -0.33987131025E+02 -0.61647019071E+01  0.35621627848E+02  0.00000000000E+00 0.  1.
</event>
<event>
 7    1  0.5642630E-013  0.5052888E+02  0.7816164E-02  0.1300439E+00
        -11   -1    0    0    0    0  0.00000000000E+00  0.00000000000E+00  0.45593999997E+02  0.45594000000E+02  0.51100000000E-03 0.  1.
         11   -1    0    0    0    0 -0.00000000000E+00 -0.00000000000E+00 -0.45593999997E+02  0.45594000000E+02  0.51100000000E-03 0. -1.
    9900012    2    1    2    0    0 -0.30121137091E+02  0.78502789605E+01  0.26158254703E+02  0.50528879639E+02  0.30000060150E+02 0.  0.
         12    1    1    2    0    0  0.30121137091E+02 -0.78502789605E+01 -0.26158254703E+02  0.40659120361E+02  0.00000000000E+00 0. -1.
         11    1    3    3    0    0  0.22015376285E+01 -0.91500116585E+00  0.61691768239E+01  0.66138292999E+01  0.51100000000E-03 0. -1.
        -11    1    3    3    0    0 -0.20040232363E+02 -0.29939628690E+01  0.17413319680E+02  0.26717006370E+02  0.51100000000E-03 0.  1.
        -12    1    3    3    0    0 -0.12282442357E+02  0.11759242995E+02  0.25757581999E+01  0.17198043969E+02  0.00000000000E+00 0.  1.
</event>
<event>
 7    1  0.5642630E-013  0.5052886E+02  0.7816164E-02  0.1300439E+00
        -11   -1    0    0    0    0  0.00000000000E+00  0.00000000000E+00  0.45593999997E+02  0.45594000000E+02  0.51100000000E-03 0.  1.
         11   -1    0    0    0    0 -0.00000000000E+00 -0.00000000000E+00 -0.45593999997E+02  0.45594000000E+02  0.51100000000E-03 0. -1.
    9900012    2    1    2    0    0  0.37241715306E+02  0.10771671142E+02  0.12255247876E+02  0.50528863774E+02  0.30000011928E+02 0.  0.
         12    1    1    2    0    0 -0.37241715306E+02 -0.10771671142E+02 -0.12255247876E+02  0.40659136226E+02  0.00000000000E+00 0. -1.
         11    1    3    3    0    0  0.56985399279E+01  0.32003801778E+01 -0.48990691073E+01  0.81680272387E+01  0.51100000000E-03 0. -1.
        -11    1    3    3    0    0  0.24372119463E+02  0.67122382149E+01  0.17411127878E+01  0.25339412443E+02  0.51100000000E-03 0.  1.
        -12    1    3    3    0    0  0.71710559154E+01  0.85905274903E+00  0.15413204196E+02  0.17021424093E+02  0.00000000000E+00 0.  1.
</event>
<event>
 7    1  0.5642630E-013  0.5052886E+02  0.7816164E-02  0.1300439E+00
        -11   -1    0    0    0    0  0.00000000000E+00  0.00000000000E+00  0.45593999997E+02  0.45594000000E+02  0.51100000000E-03 0. -1.
         11   -1    0    0    0    0 -0.00000000000E+00 -0.00000000000E+00 -0.45593999997E+02  0.45594000000E+02  0.51100000000E-03 0.  1.
    9900012    2    1    2    0    0  0.33374855130E+02 -0.22039045929E+02  0.73188059144E+01  0.50528863014E+02  0.30000009617E+02 0.  0.
         12    1    1    2    0    0 -0.33374855130E+02  0.22039045929E+02 -0.73188059144E+01  0.40659136986E+02  0.00000000000E+00 0. -1.
         11    1    3    3    0    0  0.81387620097E+01 -0.75116406843E+00  0.10272440326E+02  0.13127327413E+02  0.51100000000E-03 0. -1.
        -11    1    3    3    0    0  0.82948814501E+01 -0.15480982892E+02  0.42960969489E+01  0.18080993856E+02  0.51100000000E-03 0.  1.
         12    1    3    3    0    0  0.16941211671E+02 -0.58068989692E+01 -0.72497313603E+01  0.19320541745E+02  0.00000000000E+00 0. -1.
</event>
<event>
 7    1  0.5642630E-013  0.5052883E+02  0.7816164E-02  0.1300439E+00
        -11   -1    0    0    0    0  0.00000000000E+00  0.00000000000E+00  0.45593999997E+02  0.45594000000E+02  0.51100000000E-03 0.  1.
         11   -1    0    0    0    0 -0.00000000000E+00 -0.00000000000E+00 -0.45593999997E+02  0.45594000000E+02  0.51100000000E-03 0. -1.
    9900012    2    1    2    0    0  0.40626019826E+02 -0.71468743266E-02 -0.16414453921E+01  0.50528832756E+02  0.29999917645E+02 0.  0.
         12    1    1    2    0    0 -0.40626019826E+02  0.71468743266E-02  0.16414453921E+01  0.40659167244E+02  0.00000000000E+00 0. -1.
         11    1    3    3    0    0  0.15443062287E+00  0.30520718999E+00  0.93964788119E+00  0.99996932345E+00  0.51100000000E-03 0. -1.
        -11    1    3    3    0    0  0.27220807936E+02 -0.11842761003E+02 -0.86909109848E+01  0.30931461441E+02  0.51100000000E-03 0.  1.
         12    1    3    3    0    0  0.13250781268E+02  0.11530406939E+02  0.61098177116E+01  0.18597401992E+02  0.00000000000E+00 0. -1.
</event>
<event>
 7    1  0.5642630E-013  0.5052887E+02  0.7816164E-02  0.1300439E+00
        -11   -1    0    0    0    0  0.00000000000E+00  0.00000000000E+00  0.45593999997E+02  0.45594000000E+02  0.51100000000E-03 0.  1.
         11   -1    0    0    0    0 -0.00000000000E+00 -0.00000000000E+00 -0.45593999997E+02  0.45594000000E+02  0.51100000000E-03 0. -1.
    9900012    2    1    2    0    0  0.37720822542E+02 -0.10573476460E+02  0.10886049341E+02  0.50528869071E+02  0.30000028027E+02 0.  0.
         12    1    1    2    0    0 -0.37720822542E+02  0.10573476460E+02 -0.10886049341E+02  0.40659130929E+02  0.00000000000E+00 0. -1.
         11    1    3    3    0    0  0.17411315419E+02 -0.10903935370E+02  0.13392980316E-01  0.20543852871E+02  0.51100000000E-03 0. -1.
        -11    1    3    3    0    0  0.11648665209E+02 -0.93234489850E+01  0.67482835240E+01  0.16375513210E+02  0.51100000000E-03 0.  1.
         12    1    3    3    0    0  0.86608419144E+01  0.96539078951E+01  0.41243728366E+01  0.13609502989E+02  0.00000000000E+00 0. -1.
</event>
<event>
 7    1  0.5642630E-013  0.5052887E+02  0.7816164E-02  0.1300439E+00
        -11   -1    0    0    0    0  0.00000000000E+00  0.00000000000E+00  0.45593999997E+02  0.45594000000E+02  0.51100000000E-03 0. -1.
         11   -1    0    0    0    0 -0.00000000000E+00 -0.00000000000E+00 -0.45593999997E+02  0.45594000000E+02  0.51100000000E-03 0.  1.
    9900012    2    1    2    0    0  0.34197793114E+02  0.78346334356E+01 -0.20549800205E+02  0.50528870356E+02  0.30000031935E+02 0.  0.
         12    1    1    2    0    0 -0.34197793114E+02 -0.78346334356E+01  0.20549800205E+02  0.40659129644E+02  0.00000000000E+00 0. -1.
         11    1    3    3    0    0  0.11199106603E+02 -0.23333707829E+01  0.12189232097E+01  0.11504363606E+02  0.51100000000E-03 0. -1.
        -11    1    3    3    0    0 -0.81729580758E+00 -0.34100595476E+00  0.29782943736E+01  0.31071683467E+01  0.51100000000E-03 0.  1.
        -12    1    3    3    0    0  0.23815982318E+02  0.10509010173E+02 -0.24747017788E+02  0.35917338404E+02  0.00000000000E+00 0.  1.
</event>
<event>
 7    1  0.5642630E-013  0.5052886E+02  0.7816164E-02  0.1300439E+00
        -11   -1    0    0    0    0  0.00000000000E+00  0.00000000000E+00  0.45593999997E+02  0.45594000000E+02  0.51100000000E-03 0. -1.
         11   -1    0    0    0    0 -0.00000000000E+00 -0.00000000000E+00 -0.45593999997E+02  0.45594000000E+02  0.51100000000E-03 0.  1.
    9900012    2    1    2    0    0 -0.32814511996E+02  0.23897067288E+02  0.23030224351E+01  0.50528856688E+02  0.29999990389E+02 0.  0.
         12    1    1    2    0    0  0.32814511996E+02 -0.23897067288E+02 -0.23030224351E+01  0.40659143312E+02  0.00000000000E+00 0. -1.
         11    1    3    3    0    0 -0.76277222737E+01 -0.27197321667E+01 -0.25048201361E+01  0.84766275322E+01  0.51100000000E-03 0. -1.
        -11    1    3    3    0    0 -0.25328697532E+02  0.18617161333E+02 -0.20681078208E+01  0.31502677426E+02  0.51100000000E-03 0.  1.
        -12    1    3    3    0    0  0.14190780985E+00  0.79996381215E+01  0.68759503921E+01  0.10549551730E+02  0.00000000000E+00 0.  1.
</event>
<event>
 7    1  0.5642630E-013  0.5052886E+02  0.7816164E-02  0.1300439E+00
        -11   -1    0    0    0    0  0.00000000000E+00  0.00000000000E+00  0.45593999997E+02  0.45594000000E+02  0.51100000000E-03 0. -1.
         11   -1    0    0    0    0 -0.00000000000E+00 -0.00000000000E+00 -0.45593999997E+02  0.45594000000E+02  0.51100000000E-03 0.  1.
    9900012    2    1    2    0    0 -0.45249133417E+01  0.84603985365E+01 -0.39510920267E+02  0.50528855832E+02  0.29999987788E+02 0.  0.
         12    1    1    2    0    0  0.45249133417E+01 -0.84603985365E+01  0.39510920267E+02  0.40659144168E+02  0.00000000000E+00 0. -1.
         11    1    3    3    0    0  0.28491842916E+01  0.93015134083E+00 -0.15620560629E+02  0.15905500535E+02  0.51100000000E-03 0. -1.
        -11    1    3    3    0    0 -0.33522400993E+00  0.12922341766E+02 -0.22061808574E+02  0.25569956779E+02  0.51100000000E-03 0.  1.
         12    1    3    3    0    0 -0.70388736234E+01 -0.53920945705E+01 -0.18285510640E+01  0.90533985187E+01  0.00000000000E+00 0. -1.
</event>
<event>
 7    1  0.5642630E-013  0.5052886E+02  0.7816164E-02  0.1300439E+00
        -11   -1    0    0    0    0  0.00000000000E+00  0.00000000000E+00  0.45593999997E+02  0.45594000000E+02  0.51100000000E-03 0.  1.
         11   -1    0    0    0    0 -0.00000000000E+00 -0.00000000000E+00 -0.45593999997E+02  0.45594000000E+02  0.51100000000E-03 0. -1.
    9900012    2    1    2    0    0 -0.19150589223E+02  0.98857051358E+01  0.34477428964E+02  0.50528863983E+02  0.30000012564E+02 0.  0.
         12    1    1    2    0    0  0.19150589223E+02 -0.98857051358E+01 -0.34477428964E+02  0.40659136017E+02  0.00000000000E+00 0. -1.
         11    1    3    3    0    0 -0.12935948743E+02  0.18722091224E+02  0.13271417306E+02  0.26343613784E+02  0.51100000000E-03 0. -1.
        -11    1    3    3    0    0 -0.39538389308E+01 -0.20506800269E+01  0.88785566275E+01  0.99331213077E+01  0.51100000000E-03 0.  1.
        -12    1    3    3    0    0 -0.22608015494E+01 -0.67857060609E+01  0.12327455031E+02  0.14252128891E+02  0.00000000000E+00 0.  1.
</event>
<event>
 7    1  0.5642630E-013  0.5052887E+02  0.7816164E-02  0.1300439E+00
        -11   -1    0    0    0    0  0.00000000000E+00  0.00000000000E+00  0.45593999997E+02  0.45594000000E+02  0.51100000000E-03 0. -1.
         11   -1    0    0    0    0 -0.00000000000E+00 -0.00000000000E+00 -0.45593999997E+02  0.45594000000E+02  0.51100000000E-03 0.  1.
    9900012    2    1    2    0    0 -0.40118223229E+02  0.33118714032E+01  0.57205354304E+01  0.50528869994E+02  0.30000030834E+02 0.  0.
         12    1    1    2    0    0  0.40118223229E+02 -0.33118714032E+01 -0.57205354304E+01  0.40659130006E+02  0.00000000000E+00 0. -1.
         11    1    3    3    0    0 -0.19432246256E+02 -0.90104236535E+01  0.16439298016E+01  0.21482607720E+02  0.51100000000E-03 0. -1.
        -11    1    3    3    0    0 -0.16536191171E+02  0.97209177827E+00  0.11067557614E+01  0.16601671285E+02  0.51100000000E-03 0.  1.
         12    1    3    3    0    0 -0.41497858014E+01  0.11350203278E+02  0.29698498674E+01  0.12444590989E+02  0.00000000000E+00 0. -1.
</event>
<event>
 7    1  0.5642630E-013  0.5052889E+02  0.7816164E-02  0.1300439E+00
        -11   -1    0    0    0    0  0.00000000000E+00  0.00000000000E+00  0.45593999997E+02  0.45594000000E+02  0.51100000000E-03 0. -1.
         11   -1    0    0    0    0 -0.00000000000E+00 -0.00000000000E+00 -0.45593999997E+02  0.45594000000E+02  0.51100000000E-03 0.  1.
    9900012    2    1    2    0    0 -0.40076323128E+02  0.39282945663E+00  0.68481611029E+01  0.50528889079E+02  0.30000088844E+02 0.  0.
         12    1    1    2    0    0  0.40076323128E+02 -0.39282945663E+00 -0.68481611029E+01  0.40659110921E+02  0.00000000000E+00 0. -1.
         11    1    3    3    0    0 -0.48737529705E+01  0.38961015841E+01  0.64253840259E+01  0.89564856787E+01  0.51100000000E-03 0. -1.
        -11    1    3    3    0    0  0.10602772024E+01 -0.40665885643E+01  0.30764126853E+01  0.52082286402E+01  0.51100000000E-03 0.  1.
        -12    1    3    3    0    0 -0.36262847360E+02  0.56331643677E+00 -0.26536356083E+01  0.36364174760E+02  0.00000000000E+00 0.  1.
</event>
<event>
 7    1  0.5642630E-013  0.5052886E+02  0.7816164E-02  0.1300439E+00
        -11   -1    0    0    0    0  0.00000000000E+00  0.00000000000E+00  0.45593999997E+02  0.45594000000E+02  0.51100000000E-03 0.  1.
         11   -1    0    0    0    0 -0.00000000000E+00 -0.00000000000E+00 -0.45593999997E+02  0.45594000000E+02  0.51100000000E-03 0. -1.
    9900012    2    1    2    0    0  0.31392841570E+02 -0.94931576677E+01  0.24031957449E+02  0.50528861750E+02  0.30000005776E+02 0.  0.
         12    1    1    2    0    0 -0.31392841570E+02  0.94931576677E+01 -0.24031957449E+02  0.40659138250E+02  0.00000000000E+00 0. -1.
         11    1    3    3    0    0  0.51189603949E+01  0.43651217380E+01 -0.23560175204E+01  0.71280335388E+01  0.51100000000E-03 0. -1.
        -11    1    3    3    0    0 -0.15712560839E+01  0.15004127724E+01  0.38609001487E+01  0.44301957505E+01  0.51100000000E-03 0.  1.
         12    1    3    3    0    0  0.27845137259E+02 -0.15358692178E+02  0.22527074821E+02  0.38970632461E+02  0.00000000000E+00 0. -1.
</event>
<event>
 7    1  0.5642630E-013  0.5052885E+02  0.7816164E-02  0.1300439E+00
        -11   -1    0    0    0    0  0.00000000000E+00  0.00000000000E+00  0.45593999997E+02  0.45594000000E+02  0.51100000000E-03 0.  1.
         11   -1    0    0    0    0 -0.00000000000E+00 -0.00000000000E+00 -0.45593999997E+02  0.45594000000E+02  0.51100000000E-03 0. -1.
    9900012    2    1    2    0    0 -0.26715808385E+02  0.24304022535E+00  0.30649195263E+02  0.50528847814E+02  0.29999963415E+02 0.  0.
         12    1    1    2    0    0  0.26715808385E+02 -0.24304022535E+00 -0.30649195263E+02  0.40659152186E+02  0.00000000000E+00 0. -1.
         11    1    3    3    0    0 -0.69329211663E+01  0.21631633938E+00  0.22133789245E+01  0.72808814838E+01  0.51100000000E-03 0. -1.
        -11    1    3    3    0    0 -0.11638940034E+02 -0.68899017044E+01  0.72067807211E+00  0.13544557865E+02  0.51100000000E-03 0.  1.
        -12    1    3    3    0    0 -0.81439471848E+01  0.69166255904E+01  0.27715138266E+02  0.29703408465E+02  0.00000000000E+00 0.  1.
</event>
<event>
 7    1  0.5642630E-013  0.5052886E+02  0.7816164E-02  0.1300439E+00
        -11   -1    0    0    0    0  0.00000000000E+00  0.00000000000E+00  0.45593999997E+02  0.45594000000E+02  0.51100000000E-03 0. -1.
         11   -1    0    0    0    0 -0.00000000000E+00 -0.00000000000E+00 -0.45593999997E+02  0.45594000000E+02  0.51100000000E-03 0.  1.
    9900012    2    1    2    0    0  0.29820528642E+02 -0.25433815744E+02  0.10817702590E+02  0.50528860793E+02  0.30000002866E+02 0.  0.
         12    1    1    2    0    0 -0.29820528642E+02  0.25433815744E+02 -0.10817702590E+02  0.40659139207E+02  0.00000000000E+00 0. -1.
         11    1    3    3    0    0  0.15801132851E+02 -0.14028443727E+02  0.64739462149E+00  0.21139823860E+02  0.51100000000E-03 0. -1.
        -11    1    3    3    0    0  0.11045368488E+02 -0.14698623466E+02  0.14326847764E+02  0.23308973893E+02  0.51100000000E-03 0.  1.
         12    1    3    3    0    0  0.29740273027E+01  0.32932514492E+01 -0.41565397951E+01  0.60800630402E+01  0.00000000000E+00 0. -1.
</event>
<event>
 7    1  0.5642630E-013  0.5052889E+02  0.7816164E-02  0.1300439E+00
        -11   -1    0    0    0    0  0.00000000000E+00  0.00000000000E+00  0.45593999997E+02  0.45594000000E+02  0.51100000000E-03 0.  1.
         11   -1    0    0    0    0 -0.00000000000E+00 -0.00000000000E+00 -0.45593999997E+02  0.45594000000E+02  0.51100000000E-03 0. -1.
    9900012    2    1    2    0    0 -0.12287742607E+02 -0.30369724544E+02  0.24080175107E+02  0.50528885150E+02  0.30000076901E+02 0.  0.
         12    1    1    2    0    0  0.12287742607E+02  0.30369724544E+02 -0.24080175107E+02  0.40659114850E+02  0.00000000000E+00 0. -1.
         11    1    3    3    0    0  0.29235893969E+01  0.24903070433E+01 -0.84123958525E+00  0.39314995145E+01  0.51100000000E-03 0. -1.
        -11    1    3    3    0    0  0.10537253880E+01 -0.24078389247E+01  0.74591098037E+01  0.79086247102E+01  0.51100000000E-03 0.  1.
        -12    1    3    3    0    0 -0.16265057392E+02 -0.30452192662E+02  0.17462304888E+02  0.38688760925E+02  0.00000000000E+00 0.  1.
</event>
<event>
 7    1  0.5642630E-013  0.5052886E+02  0.7816164E-02  0.1300439E+00
        -11   -1    0    0    0    0  0.00000000000E+00  0.00000000000E+00  0.45593999997E+02  0.45594000000E+02  0.51100000000E-03 0.  1.
         11   -1    0    0    0    0 -0.00000000000E+00 -0.00000000000E+00 -0.45593999997E+02  0.45594000000E+02  0.51100000000E-03 0. -1.
    9900012    2    1    2    0    0 -0.12194052956E+02  0.62866940621E+01  0.38274646281E+02  0.50528855916E+02  0.29999988041E+02 0.  0.
         12    1    1    2    0    0  0.12194052956E+02 -0.62866940621E+01 -0.38274646281E+02  0.40659144084E+02  0.00000000000E+00 0. -1.
         11    1    3    3    0    0 -0.30000236308E+01  0.67377696795E+01 -0.14939721619E+01  0.75252664485E+01  0.51100000000E-03 0. -1.
        -11    1    3    3    0    0 -0.58836725633E+01  0.13276854915E+01  0.44748174962E+01  0.75102825168E+01  0.51100000000E-03 0.  1.
        -12    1    3    3    0    0 -0.33103567617E+01 -0.17787611089E+01  0.35293800947E+02  0.35493306950E+02  0.00000000000E+00 0.  1.
</event>
<event>
 7    1  0.5642630E-013  0.5052885E+02  0.7816164E-02  0.1300439E+00
        -11   -1    0    0    0    0  0.00000000000E+00  0.00000000000E+00  0.45593999997E+02  0.45594000000E+02  0.51100000000E-03 0.  1.
         11   -1    0    0    0    0 -0.00000000000E+00 -0.00000000000E+00 -0.45593999997E+02  0.45594000000E+02  0.51100000000E-03 0. -1.
    9900012    2    1    2    0    0  0.32305783099E+02 -0.19771759707E+02  0.14784460596E+02  0.50528851230E+02  0.29999973799E+02 0.  0.
         12    1    1    2    0    0 -0.32305783099E+02  0.19771759707E+02 -0.14784460596E+02  0.40659148770E+02  0.00000000000E+00 0. -1.
         11    1    3    3    0    0  0.10597421897E+02  0.57393339300E+01  0.93331616311E+00  0.12087861025E+02  0.51100000000E-03 0. -1.
        -11    1    3    3    0    0 -0.12069145396E+00 -0.81895254544E+00  0.39389462491E+01  0.40249903743E+01  0.51100000000E-03 0.  1.
        -12    1    3    3    0    0  0.21829052656E+02 -0.24692141092E+02  0.99121981838E+01  0.34415999831E+02  0.00000000000E+00 0.  1.
</event>
<event>
 7    1  0.5642630E-013  0.5052887E+02  0.7816164E-02  0.1300439E+00
        -11   -1    0    0    0    0  0.00000000000E+00  0.00000000000E+00  0.45593999997E+02  0.45594000000E+02  0.51100000000E-03 0.  1.
         11   -1    0    0    0    0 -0.00000000000E+00 -0.00000000000E+00 -0.45593999997E+02  0.45594000000E+02  0.51100000000E-03 0. -1.
    9900012    2    1    2    0    0  0.19108129626E+02 -0.21007324175E+01  0.35827803829E+02  0.50528865458E+02  0.30000017046E+02 0.  0.
         12    1    1    2    0    0 -0.19108129626E+02  0.21007324175E+01 -0.35827803829E+02  0.40659134542E+02  0.00000000000E+00 0. -1.
         11    1    3    3    0    0 -0.26762547588E+01  0.12227059849E+00 -0.22866350236E+00  0.26887872530E+01  0.51100000000E-03 0. -1.
        -11    1    3    3    0    0  0.15796916744E+02 -0.10609153006E+02  0.30969925935E+02  0.36348769151E+02  0.51100000000E-03 0.  1.
         12    1    3    3    0    0  0.59874676408E+01  0.83861499899E+01  0.50865413970E+01  0.11491309055E+02  0.00000000000E+00 0. -1.
</event>
<event>
 7    1  0.5642630E-013  0.5052886E+02  0.7816164E-02  0.1300439E+00
        -11   -1    0    0    0    0  0.00000000000E+00  0.00000000000E+00  0.45593999997E+02  0.45594000000E+02  0.51100000000E-03 0.  1.
         11   -1    0    0    0    0 -0.00000000000E+00 -0.00000000000E+00 -0.45593999997E+02  0.45594000000E+02  0.51100000000E-03 0. -1.
    9900012    2    1    2    0    0  0.21443574351E+02 -0.27017846549E+02  0.21526136592E+02  0.50528862409E+02  0.30000007778E+02 0.  0.
         12    1    1    2    0    0 -0.21443574351E+02  0.27017846549E+02 -0.21526136592E+02  0.40659137591E+02  0.00000000000E+00 0. -1.
         11    1    3    3    0    0  0.90576115349E+01 -0.11303817250E+01 -0.91321513642E+00  0.91734427402E+01  0.51100000000E-03 0. -1.
        -11    1    3    3    0    0  0.16259138572E+02 -0.17168551741E+02  0.21157017289E+02  0.31729137032E+02  0.51100000000E-03 0.  1.
         12    1    3    3    0    0 -0.38731757555E+01 -0.87189130831E+01  0.12823344393E+01  0.96262826365E+01  0.00000000000E+00 0. -1.
</event>
<event>
 7    1  0.5642630E-013  0.5052887E+02  0.7816164E-02  0.1300439E+00
        -11   -1    0    0    0    0  0.00000000000E+00  0.00000000000E+00  0.45593999997E+02  0.45594000000E+02  0.51100000000E-03 0. -1.
         11   -1    0    0    0    0 -0.00000000000E+00 -0.00000000000E+00 -0.45593999997E+02  0.45594000000E+02  0.51100000000E-03 0.  1.
    9900012    2    1    2    0    0  0.18701641559E+01 -0.31392772715E+02 -0.25771324444E+02  0.50528869951E+02  0.30000030704E+02 0.  0.
         12    1    1    2    0    0 -0.18701641559E+01  0.31392772715E+02  0.25771324444E+02  0.40659130049E+02  0.00000000000E+00 0. -1.
         11    1    3    3    0    0 -0.63592107616E+00 -0.68949359899E+00 -0.78108059623E+01  0.78669236096E+01  0.51100000000E-03 0. -1.
        -11    1    3    3    0    0  0.38380889244E+01  0.28848700140E+01 -0.40554472298E+01  0.62849068477E+01  0.51100000000E-03 0.  1.
        -12    1    3    3    0    0 -0.13320036923E+01 -0.33588149130E+02 -0.13905071252E+02  0.36377039494E+02  0.00000000000E+00 0.  1.
</event>
<event>
 7    1  0.5642630E-013  0.5052887E+02  0.7816164E-02  0.1300439E+00
        -11   -1    0    0    0    0  0.00000000000E+00  0.00000000000E+00  0.45593999997E+02  0.45594000000E+02  0.51100000000E-03 0. -1.
         11   -1    0    0    0    0 -0.00000000000E+00 -0.00000000000E+00 -0.45593999997E+02  0.45594000000E+02  0.51100000000E-03 0.  1.
    9900012    2    1    2    0    0 -0.27700545155E+02 -0.11413055690E+02 -0.27487944500E+02  0.50528866525E+02  0.30000020291E+02 0.  0.
         12    1    1    2    0    0  0.27700545155E+02  0.11413055690E+02  0.27487944500E+02  0.40659133475E+02  0.00000000000E+00 0. -1.
         11    1    3    3    0    0 -0.97339055453E+01 -0.40098583465E+01 -0.46244806399E+01  0.11498421743E+02  0.51100000000E-03 0. -1.
        -11    1    3    3    0    0 -0.20337689658E+02 -0.95139121639E+01 -0.26146203211E+02  0.34463895426E+02  0.51100000000E-03 0.  1.
        -12    1    3    3    0    0  0.23710500483E+01  0.21107148205E+01  0.32827393509E+01  0.45665493571E+01  0.00000000000E+00 0.  1.
</event>
<event>
 7    1  0.5642630E-013  0.5052886E+02  0.7816164E-02  0.1300439E+00
        -11   -1    0    0    0    0  0.00000000000E+00  0.00000000000E+00  0.45593999997E+02  0.45594000000E+02  0.51100000000E-03 0.  1.
         11   -1    0    0    0    0 -0.00000000000E+00 -0.00000000000E+00 -0.45593999997E+02  0.45594000000E+02  0.51100000000E-03 0. -1.
    9900012    2    1    2    0    0 -0.25446562000E+02  0.52366646677E+01  0.31276434544E+02  0.50528861640E+02  0.30000005439E+02 0.  0.
         12    1    1    2    0    0  0.25446562000E+02 -0.52366646677E+01 -0.31276434544E+02  0.40659138360E+02  0.00000000000E+00 0. -1.
         11    1    3    3    0    0  0.25693549442E+00  0.13025429579E+01 -0.14457459399E+01  0.19628590345E+01  0.51100000000E-03 0. -1.
        -11    1    3    3    0    0 -0.98186162340E+01  0.12766827330E+02  0.82881042484E+01  0.18113248662E+02  0.51100000000E-03 0.  1.
        -12    1    3    3    0    0 -0.15884881260E+02 -0.88327056198E+01  0.24434076235E+02  0.30452753943E+02  0.00000000000E+00 0.  1.
</event>
<event>
 7    1  0.5642630E-013  0.5052886E+02  0.7816164E-02  0.1300439E+00
        -11   -1    0    0    0    0  0.00000000000E+00  0.00000000000E+00  0.45593999997E+02  0.45594000000E+02  0.51100000000E-03 0.  1.
         11   -1    0    0    0    0 -0.00000000000E+00 -0.00000000000E+00 -0.45593999997E+02  0.45594000000E+02  0.51100000000E-03 0. -1.
    9900012    2    1    2    0    0 -0.26247398013E+02  0.31017158417E+02  0.14750891143E+01  0.50528857036E+02  0.29999991446E+02 0.  0.
         12    1    1    2    0    0  0.26247398013E+02 -0.31017158417E+02 -0.14750891143E+01  0.40659142964E+02  0.00000000000E+00 0. -1.
         11    1    3    3    0    0 -0.22989092126E+01 -0.43696556296E+01  0.22686091197E+00  0.49427057391E+01  0.51100000000E-03 0. -1.
        -11    1    3    3    0    0 -0.22702303984E+02  0.21957725835E+02  0.39548832174E+01  0.31830448183E+02  0.51100000000E-03 0.  1.
         12    1    3    3    0    0 -0.12461848165E+01  0.13429088211E+02 -0.27066550151E+01  0.13755703114E+02  0.00000000000E+00 0. -1.
</event>
<event>
 7    1  0.5642630E-013  0.5052886E+02  0.7816164E-02  0.1300439E+00
        -11   -1    0    0    0    0  0.00000000000E+00  0.00000000000E+00  0.45593999997E+02  0.45594000000E+02  0.51100000000E-03 0.  1.
         11   -1    0    0    0    0 -0.00000000000E+00 -0.00000000000E+00 -0.45593999997E+02  0.45594000000E+02  0.51100000000E-03 0. -1.
    9900012    2    1    2    0    0  0.37444881109E+02 -0.79507704650E+00  0.15824482418E+02  0.50528861881E+02  0.30000006172E+02 0.  0.
         12    1    1    2    0    0 -0.37444881109E+02  0.79507704650E+00 -0.15824482418E+02  0.40659138119E+02  0.00000000000E+00 0. -1.
         11    1    3    3    0    0  0.65552660035E+01  0.77586420970E+01  0.58126445525E+01  0.11702772173E+02  0.51100000000E-03 0. -1.
        -11    1    3    3    0    0 -0.27099293644E+01  0.39772233305E+00  0.85002751687E+00  0.28678297116E+01  0.51100000000E-03 0.  1.
        -12    1    3    3    0    0  0.33599544470E+02 -0.89514414766E+01  0.91618103491E+01  0.35958259997E+02  0.00000000000E+00 0.  1.
</event>
<event>
 7    1  0.5642630E-013  0.5052886E+02  0.7816164E-02  0.1300439E+00
        -11   -1    0    0    0    0  0.00000000000E+00  0.00000000000E+00  0.45593999997E+02  0.45594000000E+02  0.51100000000E-03 0.  1.
         11   -1    0    0    0    0 -0.00000000000E+00 -0.00000000000E+00 -0.45593999997E+02  0.45594000000E+02  0.51100000000E-03 0. -1.
    9900012    2    1    2    0    0 -0.23468311612E+02  0.26745305060E+01  0.33094573316E+02  0.50528861466E+02  0.30000004913E+02 0.  0.
         12    1    1    2    0    0  0.23468311612E+02 -0.26745305060E+01 -0.33094573316E+02  0.40659138534E+02  0.00000000000E+00 0. -1.
         11    1    3    3    0    0 -0.15313192876E+01  0.13702311529E+01 -0.22336533324E+01  0.30350748991E+01  0.51100000000E-03 0. -1.
        -11    1    3    3    0    0  0.23011846273E+01  0.65234904421E+01  0.85949828265E+01  0.11032910236E+02  0.51100000000E-03 0.  1.
        -12    1    3    3    0    0 -0.24238176951E+02 -0.52191910890E+01  0.26733243822E+02  0.36460876331E+02  0.00000000000E+00 0.  1.
</event>
<event>
 7    1  0.5642630E-013  0.5052885E+02  0.7816164E-02  0.1300439E+00
        -11   -1    0    0    0    0  0.00000000000E+00  0.00000000000E+00  0.45593999997E+02  0.45594000000E+02  0.51100000000E-03 0.  1.
         11   -1    0    0    0    0 -0.00000000000E+00 -0.00000000000E+00 -0.45593999997E+02  0.45594000000E+02  0.51100000000E-03 0. -1.
    9900012    2    1    2    0    0 -0.15321310147E+02  0.29336284789E+02  0.23617929043E+02  0.50528847007E+02  0.29999960963E+02 0.  0.
         12    1    1    2    0    0  0.15321310147E+02 -0.29336284789E+02 -0.23617929043E+02  0.40659152993E+02  0.00000000000E+00 0. -1.
         11    1    3    3    0    0 -0.10091701452E+02  0.17501804064E+01  0.70816518698E+00  0.10266794429E+02  0.51100000000E-03 0. -1.
        -11    1    3    3    0    0 -0.56812251649E+01  0.13717977754E+01  0.85855125663E+01  0.10386008608E+02  0.51100000000E-03 0.  1.
         12    1    3    3    0    0  0.45161647017E+00  0.26214306607E+02  0.14324251289E+02  0.29876043970E+02  0.00000000000E+00 0. -1.
</event>
<event>
 7    1  0.5642630E-013  0.5052886E+02  0.7816164E-02  0.1300439E+00
        -11   -1    0    0    0    0  0.00000000000E+00  0.00000000000E+00  0.45593999997E+02  0.45594000000E+02  0.51100000000E-03 0. -1.
         11   -1    0    0    0    0 -0.00000000000E+00 -0.00000000000E+00 -0.45593999997E+02  0.45594000000E+02  0.51100000000E-03 0.  1.
    9900012    2    1    2    0    0  0.18115745164E+02  0.20760197477E+01 -0.36341105375E+02  0.50528855632E+02  0.29999987180E+02 0.  0.
         12    1    1    2    0    0 -0.18115745164E+02 -0.20760197477E+01  0.36341105375E+02  0.40659144368E+02  0.00000000000E+00 0. -1.
         11    1    3    3    0    0 -0.33912528026E+01 -0.47344737685E+01 -0.25161362729E+01  0.63440349495E+01  0.51100000000E-03 0. -1.
        -11    1    3    3    0    0  0.21113905559E+01 -0.36690884145E+01 -0.54904636951E+00  0.42686803640E+01  0.51100000000E-03 0.  1.
        -12    1    3    3    0    0  0.19395607411E+02  0.10479581931E+02 -0.33275922732E+02  0.39916140319E+02  0.00000000000E+00 0.  1.
</event>
<event>
 7    1  0.5642630E-013  0.5052886E+02  0.7816164E-02  0.1300439E+00
        -11   -1    0    0    0    0  0.00000000000E+00  0.00000000000E+00  0.45593999997E+02  0.45594000000E+02  0.51100000000E-03 0.  1.
         11   -1    0    0    0    0 -0.00000000000E+00 -0.00000000000E+00 -0.45593999997E+02  0.45594000000E+02  0.51100000000E-03 0. -1.
    9900012    2    1    2    0    0 -0.56559011798E+01  0.35020580308E+02  0.19867944097E+02  0.50528862455E+02  0.30000007919E+02 0.  0.
         12    1    1    2    0    0  0.56559011798E+01 -0.35020580308E+02 -0.19867944097E+02  0.40659137545E+02  0.00000000000E+00 0. -1.
         11    1    3    3    0    0  0.10090665060E+02  0.89832387900E+01  0.79381170043E+01  0.15669518255E+02  0.51100000000E-03 0. -1.
        -11    1    3    3    0    0  0.33585677269E+00  0.75455824972E+01  0.59975267847E+01  0.96446328488E+01  0.51100000000E-03 0.  1.
        -12    1    3    3    0    0 -0.16082423012E+02  0.18491759020E+02  0.59323003083E+01  0.25214711352E+02  0.00000000000E+00 0.  1.
</event>
<event>
 7    1  0.5642630E-013  0.5052886E+02  0.7816164E-02  0.1300439E+00
        -11   -1    0    0    0    0  0.00000000000E+00  0.00000000000E+00  0.45593999997E+02  0.45594000000E+02  0.51100000000E-03 0.  1.
         11   -1    0    0    0    0 -0.00000000000E+00 -0.00000000000E+00 -0.45593999997E+02  0.45594000000E+02  0.51100000000E-03 0. -1.
    9900012    2    1    2    0    0  0.34739207070E+01  0.38546664016E+02  0.12460041326E+02  0.50528855128E+02  0.29999985648E+02 0.  0.
         12    1    1    2    0    0 -0.34739207070E+01 -0.38546664016E+02 -0.12460041326E+02  0.40659144872E+02  0.00000000000E+00 0. -1.
         11    1    3    3    0    0  0.20683703473E+01  0.14598013945E+02  0.57575974705E+01  0.15828142530E+02  0.51100000000E-03 0. -1.
        -11    1    3    3    0    0  0.10151221912E+01  0.24300039526E+02 -0.34236349017E+01  0.24561019324E+02  0.51100000000E-03 0.  1.
         12    1    3    3    0    0  0.39042816852E+00 -0.35138945562E+00  0.10126078757E+02  0.10139693274E+02  0.00000000000E+00 0. -1.
</event>
<event>
 7    1  0.5642630E-013  0.5052889E+02  0.7816164E-02  0.1300439E+00
        -11   -1    0    0    0    0  0.00000000000E+00  0.00000000000E+00  0.45593999997E+02  0.45594000000E+02  0.51100000000E-03 0.  1.
         11   -1    0    0    0    0 -0.00000000000E+00 -0.00000000000E+00 -0.45593999997E+02  0.45594000000E+02  0.51100000000E-03 0. -1.
    9900012    2    1    2    0    0 -0.22956676929E+02 -0.11509911337E+02  0.31522629795E+02  0.50528889534E+02  0.30000090228E+02 0.  0.
         12    1    1    2    0    0  0.22956676929E+02  0.11509911337E+02 -0.31522629795E+02  0.40659110466E+02  0.00000000000E+00 0. -1.
         11    1    3    3    0    0 -0.18610998070E+02 -0.33481513860E+01  0.27376187881E+02  0.33272135941E+02  0.51100000000E-03 0. -1.
        -11    1    3    3    0    0 -0.41445265752E+01  0.22918068675E+01  0.48484893631E+01  0.67777082127E+01  0.51100000000E-03 0.  1.
         12    1    3    3    0    0 -0.20115228379E+00 -0.10453566819E+02 -0.70204744876E+00  0.10479045381E+02  0.00000000000E+00 0. -1.
</event>
<event>
 7    1  0.5642630E-013  0.5052886E+02  0.7816164E-02  0.1300439E+00
        -11   -1    0    0    0    0  0.00000000000E+00  0.00000000000E+00  0.45593999997E+02  0.45594000000E+02  0.51100000000E-03 0.  1.
         11   -1    0    0    0    0 -0.00000000000E+00 -0.00000000000E+00 -0.45593999997E+02  0.45594000000E+02  0.51100000000E-03 0. -1.
    9900012    2    1    2    0    0 -0.31255709064E+02  0.79723877547E+01  0.24752520369E+02  0.50528861049E+02  0.30000003644E+02 0.  0.
         12    1    1    2    0    0  0.31255709064E+02 -0.79723877547E+01 -0.24752520369E+02  0.40659138951E+02  0.00000000000E+00 0. -1.
         11    1    3    3    0    0 -0.64718483937E+01  0.21412875964E+01  0.18726790740E-01  0.68169117022E+01  0.51100000000E-03 0. -1.
        -11    1    3    3    0    0 -0.17212709849E+02  0.83663978540E+01  0.15605994411E+01  0.19201808880E+02  0.51100000000E-03 0.  1.
        -12    1    3    3    0    0 -0.75711508217E+01 -0.25352976957E+01  0.23173194137E+02  0.24510140467E+02  0.00000000000E+00 0.  1.
</event>
<event>
 7    1  0.5642630E-013  0.5052886E+02  0.7816164E-02  0.1300439E+00
        -11   -1    0    0    0    0  0.00000000000E+00  0.00000000000E+00  0.45593999997E+02  0.45594000000E+02  0.51100000000E-03 0.  1.
         11   -1    0    0    0    0 -0.00000000000E+00 -0.00000000000E+00 -0.45593999997E+02  0.45594000000E+02  0.51100000000E-03 0. -1.
    9900012    2    1    2    0    0  0.17646958711E+02 -0.21726160105E+00  0.36629265493E+02  0.50528862713E+02  0.30000008703E+02 0.  0.
         12    1    1    2    0    0 -0.17646958711E+02  0.21726160105E+00 -0.36629265493E+02  0.40659137287E+02  0.00000000000E+00 0. -1.
         11    1    3    3    0    0  0.75816260029E+01 -0.19852582462E+01 -0.11703913928E+01  0.79241478675E+01  0.51100000000E-03 0. -1.
        -11    1    3    3    0    0  0.62418601698E+01 -0.12443160423E+01  0.22917125552E+01  0.67646941903E+01  0.51100000000E-03 0.  1.
        -12    1    3    3    0    0  0.38234725382E+01  0.30123126875E+01  0.35507944331E+02  0.35840020655E+02  0.00000000000E+00 0.  1.
</event>
<event>
 7    1  0.5642630E-013  0.5052886E+02  0.7816164E-02  0.1300439E+00
        -11   -1    0    0    0    0  0.00000000000E+00  0.00000000000E+00  0.45593999997E+02  0.45594000000E+02  0.51100000000E-03 0.  1.
         11   -1    0    0    0    0 -0.00000000000E+00 -0.00000000000E+00 -0.45593999997E+02  0.45594000000E+02  0.51100000000E-03 0. -1.
    9900012    2    1    2    0    0 -0.24082810821E+02 -0.92472541750E+01  0.31427248685E+02  0.50528862691E+02  0.30000008636E+02 0.  0.
         12    1    1    2    0    0  0.24082810821E+02  0.92472541750E+01 -0.31427248685E+02  0.40659137309E+02  0.00000000000E+00 0. -1.
         11    1    3    3    0    0 -0.26790208188E+01 -0.93846942700E+01  0.11271122273E+02  0.14909320462E+02  0.51100000000E-03 0.  1.
        -11    1    3    3    0    0 -0.12173783326E+02  0.19157195711E+01 -0.11051987827E+01  0.12373053243E+02  0.51100000000E-03 0. -1.
         12    1    3    3    0    0 -0.92300066756E+01 -0.17782794762E+01  0.21261325195E+02  0.23246488986E+02  0.00000000000E+00 0. -1.
</event>
<event>
 7    1  0.5642630E-013  0.5052886E+02  0.7816164E-02  0.1300439E+00
        -11   -1    0    0    0    0  0.00000000000E+00  0.00000000000E+00  0.45593999997E+02  0.45594000000E+02  0.51100000000E-03 0.  1.
         11   -1    0    0    0    0 -0.00000000000E+00 -0.00000000000E+00 -0.45593999997E+02  0.45594000000E+02  0.51100000000E-03 0. -1.
    9900012    2    1    2    0    0 -0.13619804582E+02  0.87104229931E+01  0.37306770295E+02  0.50528860124E+02  0.30000000833E+02 0.  0.
         12    1    1    2    0    0  0.13619804582E+02 -0.87104229931E+01 -0.37306770295E+02  0.40659139876E+02  0.00000000000E+00 0. -1.
         11    1    3    3    0    0 -0.77305055528E+01  0.17998418296E+01 -0.72757109755E+00  0.79705399238E+01  0.51100000000E-03 0. -1.
        -11    1    3    3    0    0 -0.55500607315E+01 -0.41046198511E+01  0.80030386965E+01  0.10568808205E+02  0.51100000000E-03 0.  1.
        -12    1    3    3    0    0 -0.33923829784E+00  0.11015201015E+02  0.30031302697E+02  0.31989511995E+02  0.00000000000E+00 0.  1.
</event>
<event>
 7    1  0.5642630E-013  0.5052882E+02  0.7816164E-02  0.1300439E+00
        -11   -1    0    0    0    0  0.00000000000E+00  0.00000000000E+00  0.45593999997E+02  0.45594000000E+02  0.51100000000E-03 0. -1.
         11   -1    0    0    0    0 -0.00000000000E+00 -0.00000000000E+00 -0.45593999997E+02  0.45594000000E+02  0.51100000000E-03 0.  1.
    9900012    2    1    2    0    0 -0.17771146368E+02 -0.35284131267E+02 -0.96117488133E+01  0.50528815579E+02  0.29999865434E+02 0.  0.
         12    1    1    2    0    0  0.17771146368E+02  0.35284131267E+02  0.96117488133E+01  0.40659184421E+02  0.00000000000E+00 0. -1.
         11    1    3    3    0    0 -0.39803275276E+01 -0.10415303206E+02 -0.95983853795E+01  0.14712258503E+02  0.51100000000E-03 0. -1.
        -11    1    3    3    0    0  0.12090605389E+00  0.38689798957E+01 -0.35113822225E+00  0.38867624084E+01  0.51100000000E-03 0.  1.
         12    1    3    3    0    0 -0.13911724894E+02 -0.28737807957E+02  0.33777478847E+00  0.31929794668E+02  0.00000000000E+00 0. -1.
</event>
<event>
 7    1  0.5642630E-013  0.5052885E+02  0.7816164E-02  0.1300439E+00
        -11   -1    0    0    0    0  0.00000000000E+00  0.00000000000E+00  0.45593999997E+02  0.45594000000E+02  0.51100000000E-03 0. -1.
         11   -1    0    0    0    0 -0.00000000000E+00 -0.00000000000E+00 -0.45593999997E+02  0.45594000000E+02  0.51100000000E-03 0.  1.
    9900012    2    1    2    0    0  0.11160285608E+02  0.13117703367E+02 -0.36831236747E+02  0.50528854451E+02  0.29999983589E+02 0.  0.
         12    1    1    2    0    0 -0.11160285608E+02 -0.13117703367E+02  0.36831236747E+02  0.40659145549E+02  0.00000000000E+00 0. -1.
         11    1    3    3    0    0 -0.29597529111E-01  0.56882866813E+01  0.12412725613E+01  0.58222194407E+01  0.51100000000E-03 0. -1.
        -11    1    3    3    0    0  0.14099492208E+02  0.47717544538E+01 -0.14407358840E+02  0.20715629609E+02  0.51100000000E-03 0.  1.
        -12    1    3    3    0    0 -0.29096090710E+01  0.26576622320E+01 -0.23665150468E+02  0.23991005402E+02  0.00000000000E+00 0.  1.
</event>
<event>
 7    1  0.5642630E-013  0.5052886E+02  0.7816164E-02  0.1300439E+00
        -11   -1    0    0    0    0  0.00000000000E+00  0.00000000000E+00  0.45593999997E+02  0.45594000000E+02  0.51100000000E-03 0.  1.
         11   -1    0    0    0    0 -0.00000000000E+00 -0.00000000000E+00 -0.45593999997E+02  0.45594000000E+02  0.51100000000E-03 0. -1.
    9900012    2    1    2    0    0  0.91896052391E+01 -0.87872105192E+01  0.38619969386E+02  0.50528856520E+02  0.29999989878E+02 0.  0.
         12    1    1    2    0    0 -0.91896052391E+01  0.87872105192E+01 -0.38619969386E+02  0.40659143480E+02  0.00000000000E+00 0. -1.
         11    1    3    3    0    0  0.10257228932E+02 -0.33156843323E+01  0.14459106243E+02  0.18035250527E+02  0.51100000000E-03 0. -1.
        -11    1    3    3    0    0  0.69373243650E+01 -0.10010072184E+02  0.10846412100E+02  0.16308668559E+02  0.51100000000E-03 0.  1.
        -12    1    3    3    0    0 -0.80049480578E+01  0.45385459970E+01  0.13314451043E+02  0.16184937434E+02  0.00000000000E+00 0.  1.
</event>
<event>
 7    1  0.5642630E-013  0.5052885E+02  0.7816164E-02  0.1300439E+00
        -11   -1    0    0    0    0  0.00000000000E+00  0.00000000000E+00  0.45593999997E+02  0.45594000000E+02  0.51100000000E-03 0.  1.
         11   -1    0    0    0    0 -0.00000000000E+00 -0.00000000000E+00 -0.45593999997E+02  0.45594000000E+02  0.51100000000E-03 0. -1.
    9900012    2    1    2    0    0 -0.35782653632E+02 -0.12516622515E+02  0.14700406569E+02  0.50528854738E+02  0.29999984462E+02 0.  0.
         12    1    1    2    0    0  0.35782653632E+02  0.12516622515E+02 -0.14700406569E+02  0.40659145262E+02  0.00000000000E+00 0. -1.
         11    1    3    3    0    0 -0.95042081440E+00 -0.80844375544E+01 -0.71206375657E+00  0.81711973021E+01  0.51100000000E-03 0. -1.
        -11    1    3    3    0    0 -0.12414036813E+02 -0.38038459950E+01  0.15118759898E+02  0.19928734418E+02  0.51100000000E-03 0.  1.
         12    1    3    3    0    0 -0.22418196004E+02 -0.62833896524E+00  0.29371042732E+00  0.22428923018E+02  0.00000000000E+00 0. -1.
</event>
<event>
 7    1  0.5642630E-013  0.5052885E+02  0.7816164E-02  0.1300439E+00
        -11   -1    0    0    0    0  0.00000000000E+00  0.00000000000E+00  0.45593999997E+02  0.45594000000E+02  0.51100000000E-03 0.  1.
         11   -1    0    0    0    0 -0.00000000000E+00 -0.00000000000E+00 -0.45593999997E+02  0.45594000000E+02  0.51100000000E-03 0. -1.
    9900012    2    1    2    0    0 -0.23644114834E+02 -0.14146858307E+02  0.29899638691E+02  0.50528853918E+02  0.29999981970E+02 0.  0.
         12    1    1    2    0    0  0.23644114834E+02  0.14146858307E+02 -0.29899638691E+02  0.40659146082E+02  0.00000000000E+00 0. -1.
         11    1    3    3    0    0 -0.10431121210E+02  0.21128879281E+01  0.42481127784E+01  0.11459452323E+02  0.51100000000E-03 0. -1.
        -11    1    3    3    0    0 -0.82647744496E+01 -0.92323777850E+01  0.40265282379E+00  0.12397799233E+02  0.51100000000E-03 0.  1.
        -12    1    3    3    0    0 -0.49482191742E+01 -0.70273684503E+01  0.25248873089E+02  0.26671602362E+02  0.00000000000E+00 0.  1.
</event>
<event>
 7    1  0.5642630E-013  0.5052887E+02  0.7816164E-02  0.1300439E+00
        -11   -1    0    0    0    0  0.00000000000E+00  0.00000000000E+00  0.45593999997E+02  0.45594000000E+02  0.51100000000E-03 0. -1.
         11   -1    0    0    0    0 -0.00000000000E+00 -0.00000000000E+00 -0.45593999997E+02  0.45594000000E+02  0.51100000000E-03 0.  1.
    9900012    2    1    2    0    0  0.17374599060E+02 -0.54878732492E+00 -0.36755773011E+02  0.50528871754E+02  0.30000036184E+02 0.  0.
         12    1    1    2    0    0 -0.17374599060E+02  0.54878732492E+00  0.36755773011E+02  0.40659128246E+02  0.00000000000E+00 0. -1.
         11    1    3    3    0    0  0.60549364806E+01 -0.10102499688E+02 -0.22314758538E+02  0.25232344413E+02  0.51100000000E-03 0. -1.
        -11    1    3    3    0    0  0.74993625446E+01 -0.26527058361E+01 -0.49441438204E+01  0.93659940853E+01  0.51100000000E-03 0.  1.
        -12    1    3    3    0    0  0.38203000352E+01  0.12206418199E+02 -0.94968706532E+01  0.15930533256E+02  0.00000000000E+00 0.  1.
</event>
<event>
 7    1  0.5642630E-013  0.5052886E+02  0.7816164E-02  0.1300439E+00
        -11   -1    0    0    0    0  0.00000000000E+00  0.00000000000E+00  0.45593999997E+02  0.45594000000E+02  0.51100000000E-03 0.  1.
         11   -1    0    0    0    0 -0.00000000000E+00 -0.00000000000E+00 -0.45593999997E+02  0.45594000000E+02  0.51100000000E-03 0. -1.
    9900012    2    1    2    0    0  0.31614330187E+02  0.20687000409E+02  0.15024906052E+02  0.50528860056E+02  0.30000000627E+02 0.  0.
         12    1    1    2    0    0 -0.31614330187E+02 -0.20687000409E+02 -0.15024906052E+02  0.40659139944E+02  0.00000000000E+00 0. -1.
         11    1    3    3    0    0  0.20064633118E+02  0.50716576625E+01  0.34134584317E+01  0.20975292902E+02  0.51100000000E-03 0. -1.
        -11    1    3    3    0    0  0.12910893645E+02  0.86794862734E+01  0.15092176185E+02  0.21674834231E+02  0.51100000000E-03 0.  1.
         12    1    3    3    0    0 -0.13611965758E+01  0.69358564731E+01 -0.34807285646E+01  0.78787329231E+01  0.00000000000E+00 0. -1.
</event>
<event>
 7    1  0.5642630E-013  0.5052888E+02  0.7816164E-02  0.1300439E+00
        -11   -1    0    0    0    0  0.00000000000E+00  0.00000000000E+00  0.45593999997E+02  0.45594000000E+02  0.51100000000E-03 0.  1.
         11   -1    0    0    0    0 -0.00000000000E+00 -0.00000000000E+00 -0.45593999997E+02  0.45594000000E+02  0.51100000000E-03 0. -1.
    9900012    2    1    2    0    0 -0.30172449452E+02  0.21002718432E+02  0.17368738641E+02  0.50528880858E+02  0.30000063855E+02 0.  0.
         12    1    1    2    0    0  0.30172449452E+02 -0.21002718432E+02 -0.17368738641E+02  0.40659119142E+02  0.00000000000E+00 0. -1.
         11    1    3    3    0    0  0.24597515615E+01  0.28873774212E+00 -0.18034986795E+00  0.24831982530E+01  0.51100000000E-03 0. -1.
        -11    1    3    3    0    0 -0.12826715937E+02  0.14066204788E+02  0.19265395651E+02  0.27083910883E+02  0.51100000000E-03 0.  1.
        -12    1    3    3    0    0 -0.19805485076E+02  0.66477759014E+01 -0.17163071412E+01  0.20961771722E+02  0.00000000000E+00 0.  1.
</event>
<event>
 7    1  0.5642630E-013  0.5052886E+02  0.7816164E-02  0.1300439E+00
        -11   -1    0    0    0    0  0.00000000000E+00  0.00000000000E+00  0.45593999997E+02  0.45594000000E+02  0.51100000000E-03 0.  1.
         11   -1    0    0    0    0 -0.00000000000E+00 -0.00000000000E+00 -0.45593999997E+02  0.45594000000E+02  0.51100000000E-03 0. -1.
    9900012    2    1    2    0    0  0.18840107390E+02  0.25493568717E+02  0.25461623102E+02  0.50528856583E+02  0.29999990070E+02 0.  0.
         12    1    1    2    0    0 -0.18840107390E+02 -0.25493568717E+02 -0.25461623102E+02  0.40659143417E+02  0.00000000000E+00 0. -1.
         11    1    3    3    0    0 -0.31116681994E+01  0.78737887924E+01 -0.68214328603E+00  0.84937829413E+01  0.51100000000E-03 0. -1.
        -11    1    3    3    0    0  0.59603299530E+01  0.73895597081E+01 -0.28128680467E+00  0.94979075778E+01  0.51100000000E-03 0.  1.
         12    1    3    3    0    0  0.15991445636E+02  0.10230220217E+02  0.26425053193E+02  0.32537166064E+02  0.00000000000E+00 0. -1.
</event>
<event>
 7    1  0.5642630E-013  0.5052885E+02  0.7816164E-02  0.1300439E+00
        -11   -1    0    0    0    0  0.00000000000E+00  0.00000000000E+00  0.45593999997E+02  0.45594000000E+02  0.51100000000E-03 0.  1.
         11   -1    0    0    0    0 -0.00000000000E+00 -0.00000000000E+00 -0.45593999997E+02  0.45594000000E+02  0.51100000000E-03 0. -1.
    9900012    2    1    2    0    0  0.17475411878E+02 -0.32724495741E+02  0.16639825461E+02  0.50528850560E+02  0.29999971762E+02 0.  0.
         12    1    1    2    0    0 -0.17475411878E+02  0.32724495741E+02 -0.16639825461E+02  0.40659149440E+02  0.00000000000E+00 0. -1.
         11    1    3    3    0    0  0.17449051982E+02 -0.16977634606E+02 -0.21782120638E+01  0.24442874216E+02  0.51100000000E-03 0. -1.
        -11    1    3    3    0    0  0.31672195947E+01 -0.11403580440E+02  0.88854550089E+01  0.14799467484E+02  0.51100000000E-03 0.  1.
        -12    1    3    3    0    0 -0.31408596985E+01 -0.43432806952E+01  0.99325825155E+01  0.11286508861E+02  0.00000000000E+00 0.  1.
</event>
<event>
 7    1  0.5642630E-013  0.5052886E+02  0.7816164E-02  0.1300439E+00
        -11   -1    0    0    0    0  0.00000000000E+00  0.00000000000E+00  0.45593999997E+02  0.45594000000E+02  0.51100000000E-03 0.  1.
         11   -1    0    0    0    0 -0.00000000000E+00 -0.00000000000E+00 -0.45593999997E+02  0.45594000000E+02  0.51100000000E-03 0. -1.
    9900012    2    1    2    0    0 -0.91669383321E+01  0.86665532413E+01  0.38652605527E+02  0.50528858131E+02  0.29999994775E+02 0.  0.
         12    1    1    2    0    0  0.91669383321E+01 -0.86665532413E+01 -0.38652605527E+02  0.40659141869E+02  0.00000000000E+00 0. -1.
         11    1    3    3    0    0 -0.43018587469E+01 -0.33620831452E+01  0.17801473732E+01  0.57426924595E+01  0.51100000000E-03 0. -1.
        -11    1    3    3    0    0 -0.52607472707E+01 -0.53440736366E+01  0.71771688799E+01  0.10380093365E+02  0.51100000000E-03 0.  1.
         12    1    3    3    0    0  0.39566768543E+00  0.17372710023E+02  0.29695289274E+02  0.34406072306E+02  0.00000000000E+00 0. -1.
</event>
<event>
 7    1  0.5642630E-013  0.5052885E+02  0.7816164E-02  0.1300439E+00
        -11   -1    0    0    0    0  0.00000000000E+00  0.00000000000E+00  0.45593999997E+02  0.45594000000E+02  0.51100000000E-03 0. -1.
         11   -1    0    0    0    0 -0.00000000000E+00 -0.00000000000E+00 -0.45593999997E+02  0.45594000000E+02  0.51100000000E-03 0.  1.
    9900012    2    1    2    0    0 -0.17080884807E+02 -0.28575431442E+02 -0.23342118568E+02  0.50528850880E+02  0.29999972735E+02 0.  0.
         12    1    1    2    0    0  0.17080884807E+02  0.28575431442E+02  0.23342118568E+02  0.40659149120E+02  0.00000000000E+00 0. -1.
         11    1    3    3    0    0 -0.27428100559E+01 -0.62588980963E+01 -0.37813899823E+01  0.78099758541E+01  0.51100000000E-03 0. -1.
        -11    1    3    3    0    0 -0.19071015356E+02 -0.59854674874E+01 -0.57084695721E+01  0.20787401782E+02  0.51100000000E-03 0.  1.
         12    1    3    3    0    0  0.47329406044E+01 -0.16331065859E+02 -0.13852259014E+02  0.21931473243E+02  0.00000000000E+00 0. -1.
</event>
<event>
 7    1  0.5642630E-013  0.5052887E+02  0.7816164E-02  0.1300439E+00
        -11   -1    0    0    0    0  0.00000000000E+00  0.00000000000E+00  0.45593999997E+02  0.45594000000E+02  0.51100000000E-03 0.  1.
         11   -1    0    0    0    0 -0.00000000000E+00 -0.00000000000E+00 -0.45593999997E+02  0.45594000000E+02  0.51100000000E-03 0. -1.
    9900012    2    1    2    0    0 -0.14428921658E+02  0.37999188682E+02  0.10163060119E+01  0.50528868202E+02  0.30000025385E+02 0.  0.
         12    1    1    2    0    0  0.14428921658E+02 -0.37999188682E+02 -0.10163060119E+01  0.40659131798E+02  0.00000000000E+00 0. -1.
         11    1    3    3    0    0 -0.98679289255E+01  0.12631569004E+02 -0.69283468054E+01  0.17462375168E+02  0.51100000000E-03 0.  1.
        -11    1    3    3    0    0  0.47515088193E+01 -0.27662892860E+00  0.49692760875E+00  0.47854254705E+01  0.51100000000E-03 0. -1.
         12    1    3    3    0    0 -0.93125015515E+01  0.25644248606E+02  0.74477252085E+01  0.28281067563E+02  0.00000000000E+00 0. -1.
</event>
<event>
 7    1  0.5642630E-013  0.5052886E+02  0.7816164E-02  0.1300439E+00
        -11   -1    0    0    0    0  0.00000000000E+00  0.00000000000E+00  0.45593999997E+02  0.45594000000E+02  0.51100000000E-03 0.  1.
         11   -1    0    0    0    0 -0.00000000000E+00 -0.00000000000E+00 -0.45593999997E+02  0.45594000000E+02  0.51100000000E-03 0. -1.
    9900012    2    1    2    0    0  0.73954234589E+01  0.33301461090E+02  0.22124334720E+02  0.50528858523E+02  0.29999995966E+02 0.  0.
         12    1    1    2    0    0 -0.73954234589E+01 -0.33301461090E+02 -0.22124334720E+02  0.40659141477E+02  0.00000000000E+00 0. -1.
         11    1    3    3    0    0  0.75061933620E+01  0.86784812253E+01  0.19394396089E+01  0.11637027173E+02  0.51100000000E-03 0. -1.
        -11    1    3    3    0    0  0.78030225548E+01  0.19148706814E+02  0.56067242564E+01  0.21424180049E+02  0.51100000000E-03 0.  1.
        -12    1    3    3    0    0 -0.79137924579E+01  0.54742730510E+01  0.14578170855E+02  0.17467651301E+02  0.00000000000E+00 0.  1.
</event>
<event>
 7    1  0.5642630E-013  0.5052884E+02  0.7816164E-02  0.1300439E+00
        -11   -1    0    0    0    0  0.00000000000E+00  0.00000000000E+00  0.45593999997E+02  0.45594000000E+02  0.51100000000E-03 0. -1.
         11   -1    0    0    0    0 -0.00000000000E+00 -0.00000000000E+00 -0.45593999997E+02  0.45594000000E+02  0.51100000000E-03 0.  1.
    9900012    2    1    2    0    0 -0.33962966998E+02  0.14863257981E+02 -0.16696328041E+02  0.50528844387E+02  0.29999952999E+02 0.  0.
         12    1    1    2    0    0  0.33962966998E+02 -0.14863257981E+02  0.16696328041E+02  0.40659155613E+02  0.00000000000E+00 0. -1.
         11    1    3    3    0    0 -0.27908099024E+00 -0.48707445774E+01 -0.24402232105E+01  0.54549728244E+01  0.51100000000E-03 0. -1.
        -11    1    3    3    0    0 -0.81113386939E+01 -0.28378825215E+01 -0.38156630593E+01  0.94024825156E+01  0.51100000000E-03 0.  1.
        -12    1    3    3    0    0 -0.25572547314E+02  0.22571885079E+02 -0.10440441771E+02  0.35671389047E+02  0.00000000000E+00 0.  1.
</event>
<event>
 7    1  0.5642630E-013  0.5052888E+02  0.7816164E-02  0.1300439E+00
        -11   -1    0    0    0    0  0.00000000000E+00  0.00000000000E+00  0.45593999997E+02  0.45594000000E+02  0.51100000000E-03 0.  1.
         11   -1    0    0    0    0 -0.00000000000E+00 -0.00000000000E+00 -0.45593999997E+02  0.45594000000E+02  0.51100000000E-03 0. -1.
    9900012    2    1    2    0    0 -0.13001378714E+02 -0.21107768874E+02  0.32227166088E+02  0.50528880612E+02  0.30000063109E+02 0.  0.
         12    1    1    2    0    0  0.13001378714E+02  0.21107768874E+02 -0.32227166088E+02  0.40659119388E+02  0.00000000000E+00 0. -1.
         11    1    3    3    0    0 -0.39966268205E+01 -0.58478048286E+01 -0.83442976172E+00  0.71320488322E+01  0.51100000000E-03 0. -1.
        -11    1    3    3    0    0  0.28695570391E+01 -0.15918260059E+02  0.17853963114E+02  0.24091271449E+02  0.51100000000E-03 0.  1.
         12    1    3    3    0    0 -0.11874308933E+02  0.65829601317E+00  0.15207632736E+02  0.19305560331E+02  0.00000000000E+00 0. -1.
</event>
<event>
 7    1  0.5642630E-013  0.5052884E+02  0.7816164E-02  0.1300439E+00
        -11   -1    0    0    0    0  0.00000000000E+00  0.00000000000E+00  0.45593999997E+02  0.45594000000E+02  0.51100000000E-03 0.  1.
         11   -1    0    0    0    0 -0.00000000000E+00 -0.00000000000E+00 -0.45593999997E+02  0.45594000000E+02  0.51100000000E-03 0. -1.
    9900012    2    1    2    0    0 -0.18052700576E+02 -0.28804659439E+02  0.22306022580E+02  0.50528843014E+02  0.29999948825E+02 0.  0.
         12    1    1    2    0    0  0.18052700576E+02  0.28804659439E+02 -0.22306022580E+02  0.40659156986E+02  0.00000000000E+00 0. -1.
         11    1    3    3    0    0 -0.77622535675E-01 -0.46799738792E+00 -0.10506797353E+01  0.11528117714E+01  0.51100000000E-03 0. -1.
        -11    1    3    3    0    0 -0.40366572990E+01  0.96077948017E+00 -0.48514766863E+01  0.63839271344E+01  0.51100000000E-03 0.  1.
        -12    1    3    3    0    0 -0.13938420742E+02 -0.29297441531E+02  0.28208179002E+02  0.42992104108E+02  0.00000000000E+00 0.  1.
</event>
<event>
 7    1  0.5642630E-013  0.5052888E+02  0.7816164E-02  0.1300439E+00
        -11   -1    0    0    0    0  0.00000000000E+00  0.00000000000E+00  0.45593999997E+02  0.45594000000E+02  0.51100000000E-03 0.  1.
         11   -1    0    0    0    0 -0.00000000000E+00 -0.00000000000E+00 -0.45593999997E+02  0.45594000000E+02  0.51100000000E-03 0. -1.
    9900012    2    1    2    0    0  0.35652158035E+02 -0.19465106915E+02 -0.17880471382E+01  0.50528882052E+02  0.30000067484E+02 0.  0.
         12    1    1    2    0    0 -0.35652158035E+02  0.19465106915E+02  0.17880471382E+01  0.40659117948E+02  0.00000000000E+00 0. -1.
         11    1    3    3    0    0  0.18410598054E+02 -0.77196180863E+01 -0.24622787644E+01  0.20114806514E+02  0.51100000000E-03 0. -1.
        -11    1    3    3    0    0  0.18365470075E+02  0.17958611326E+00  0.13592939951E+01  0.18416580103E+02  0.51100000000E-03 0.  1.
         12    1    3    3    0    0 -0.11239100944E+01 -0.11925074942E+02 -0.68506236888E+00  0.11997495435E+02  0.00000000000E+00 0. -1.
</event>
<event>
 7    1  0.5642630E-013  0.5052886E+02  0.7816164E-02  0.1300439E+00
        -11   -1    0    0    0    0  0.00000000000E+00  0.00000000000E+00  0.45593999997E+02  0.45594000000E+02  0.51100000000E-03 0.  1.
         11   -1    0    0    0    0 -0.00000000000E+00 -0.00000000000E+00 -0.45593999997E+02  0.45594000000E+02  0.51100000000E-03 0. -1.
    9900012    2    1    2    0    0 -0.16824600309E+02  0.35749830086E+02 -0.95941890467E+01  0.50528856007E+02  0.29999988320E+02 0.  0.
         12    1    1    2    0    0  0.16824600309E+02 -0.35749830086E+02  0.95941890467E+01  0.40659143993E+02  0.00000000000E+00 0. -1.
         11    1    3    3    0    0 -0.41327643629E+00 -0.10923525536E+01 -0.29114047817E+01  0.31369267728E+01  0.51100000000E-03 0. -1.
        -11    1    3    3    0    0  0.21762524022E+01  0.91902065826E+00  0.47970760253E+01  0.53472060127E+01  0.51100000000E-03 0.  1.
        -12    1    3    3    0    0 -0.18587576275E+02  0.35923161981E+02 -0.11479860290E+02  0.42044723222E+02  0.00000000000E+00 0.  1.
</event>
<event>
 7    1  0.5642630E-013  0.5052900E+02  0.7816164E-02  0.1300438E+00
        -11   -1    0    0    0    0  0.00000000000E+00  0.00000000000E+00  0.45593999997E+02  0.45594000000E+02  0.51100000000E-03 0.  1.
         11   -1    0    0    0    0 -0.00000000000E+00 -0.00000000000E+00 -0.45593999997E+02  0.45594000000E+02  0.51100000000E-03 0. -1.
    9900012    2    1    2    0    0 -0.21363847229E+02  0.24434992947E+02  0.24488189815E+02  0.50528999899E+02  0.30000425691E+02 0.  0.
         12    1    1    2    0    0  0.21363847229E+02 -0.24434992947E+02 -0.24488189815E+02  0.40659000101E+02  0.00000000000E+00 0. -1.
         11    1    3    3    0    0 -0.99638419004E+01  0.12129467950E+01  0.88189404832E+01  0.13361253566E+02  0.51100000000E-03 0. -1.
        -11    1    3    3    0    0 -0.13523743421E+02  0.75227525620E+01  0.14622580236E+02  0.21290920488E+02  0.51100000000E-03 0.  1.
        -12    1    3    3    0    0  0.21237380921E+01  0.15699293590E+02  0.10466690961E+01  0.15876825845E+02  0.00000000000E+00 0.  1.
</event>
<event>
 7    1  0.5642630E-013  0.5052885E+02  0.7816164E-02  0.1300439E+00
        -11   -1    0    0    0    0  0.00000000000E+00  0.00000000000E+00  0.45593999997E+02  0.45594000000E+02  0.51100000000E-03 0. -1.
         11   -1    0    0    0    0 -0.00000000000E+00 -0.00000000000E+00 -0.45593999997E+02  0.45594000000E+02  0.51100000000E-03 0.  1.
    9900012    2    1    2    0    0 -0.18270093360E+02 -0.35951384381E+02 -0.51834212218E+01  0.50528853355E+02  0.29999980259E+02 0.  0.
         12    1    1    2    0    0  0.18270093360E+02  0.35951384381E+02  0.51834212218E+01  0.40659146645E+02  0.00000000000E+00 0. -1.
         11    1    3    3    0    0  0.30378712331E+01  0.86288204786E+00  0.10696128909E-01  0.31580598040E+01  0.51100000000E-03 0. -1.
        -11    1    3    3    0    0  0.11157017706E+01 -0.78321542628E+01  0.49705538297E+01  0.93431170640E+01  0.51100000000E-03 0.  1.
        -12    1    3    3    0    0 -0.22423666364E+02 -0.28982112166E+02 -0.10164671180E+02  0.38027676487E+02  0.00000000000E+00 0.  1.
</event>
<event>
 7    1  0.5642630E-013  0.5052887E+02  0.7816164E-02  0.1300439E+00
        -11   -1    0    0    0    0  0.00000000000E+00  0.00000000000E+00  0.45593999997E+02  0.45594000000E+02  0.51100000000E-03 0.  1.
         11   -1    0    0    0    0 -0.00000000000E+00 -0.00000000000E+00 -0.45593999997E+02  0.45594000000E+02  0.51100000000E-03 0. -1.
    9900012    2    1    2    0    0 -0.69486742873E+01  0.30564423940E+02  0.25897809713E+02  0.50528872697E+02  0.30000039050E+02 0.  0.
         12    1    1    2    0    0  0.69486742873E+01 -0.30564423940E+02 -0.25897809713E+02  0.40659127303E+02  0.00000000000E+00 0. -1.
         11    1    3    3    0    0 -0.11008551881E+01  0.15490534052E+02  0.29648490917E+01  0.15810087215E+02  0.51100000000E-03 0. -1.
        -11    1    3    3    0    0 -0.10766988962E+02  0.11919044171E+02  0.65882764403E+01  0.17360790650E+02  0.51100000000E-03 0.  1.
         12    1    3    3    0    0  0.49191698630E+01  0.31548457168E+01  0.16344684181E+02  0.17357994832E+02  0.00000000000E+00 0. -1.
</event>
<event>
 7    1  0.5642630E-013  0.5052888E+02  0.7816164E-02  0.1300439E+00
        -11   -1    0    0    0    0  0.00000000000E+00  0.00000000000E+00  0.45593999997E+02  0.45594000000E+02  0.51100000000E-03 0. -1.
         11   -1    0    0    0    0 -0.00000000000E+00 -0.00000000000E+00 -0.45593999997E+02  0.45594000000E+02  0.51100000000E-03 0.  1.
    9900012    2    1    2    0    0 -0.15784099958E+02  0.32853253876E+02 -0.18019146944E+02  0.50528883454E+02  0.30000071747E+02 0.  0.
         12    1    1    2    0    0  0.15784099958E+02 -0.32853253876E+02  0.18019146944E+02  0.40659116546E+02  0.00000000000E+00 0. -1.
         11    1    3    3    0    0 -0.36927135693E+01  0.19983826941E+01  0.62623152260E+01  0.75396458238E+01  0.51100000000E-03 0.  1.
        -11    1    3    3    0    0  0.16500879724E+01  0.22347971174E+00 -0.23794469463E+01  0.29042213294E+01  0.51100000000E-03 0. -1.
        -12    1    3    3    0    0 -0.13741474361E+02  0.30631391470E+02 -0.21902015223E+02  0.40085016301E+02  0.00000000000E+00 0.  1.
</event>
<event>
 7    1  0.5642630E-013  0.5052883E+02  0.7816164E-02  0.1300439E+00
        -11   -1    0    0    0    0  0.00000000000E+00  0.00000000000E+00  0.45593999997E+02  0.45594000000E+02  0.51100000000E-03 0.  1.
         11   -1    0    0    0    0 -0.00000000000E+00 -0.00000000000E+00 -0.45593999997E+02  0.45594000000E+02  0.51100000000E-03 0. -1.
    9900012    2    1    2    0    0 -0.33990344702E+02 -0.10028324977E+02  0.19931312538E+02  0.50528830624E+02  0.29999911166E+02 0.  0.
         12    1    1    2    0    0  0.33990344702E+02  0.10028324977E+02 -0.19931312538E+02  0.40659169376E+02  0.00000000000E+00 0. -1.
         11    1    3    3    0    0 -0.80779402845E+01 -0.47162518490E+01 -0.12336120704E+01  0.94349324187E+01  0.51100000000E-03 0. -1.
        -11    1    3    3    0    0 -0.23836430582E+02 -0.10333661626E+02  0.85372526515E+01  0.27346748775E+02  0.51100000000E-03 0.  1.
        -12    1    3    3    0    0 -0.20759738357E+01  0.50215884976E+01  0.12627671957E+02  0.13747149431E+02  0.00000000000E+00 0.  1.
</event>
<event>
 7    1  0.5642630E-013  0.5052886E+02  0.7816164E-02  0.1300439E+00
        -11   -1    0    0    0    0  0.00000000000E+00  0.00000000000E+00  0.45593999997E+02  0.45594000000E+02  0.51100000000E-03 0.  1.
         11   -1    0    0    0    0 -0.00000000000E+00 -0.00000000000E+00 -0.45593999997E+02  0.45594000000E+02  0.51100000000E-03 0. -1.
    9900012    2    1    2    0    0  0.19359059807E+02 -0.26824303009E+02  0.23639997742E+02  0.50528856849E+02  0.29999990878E+02 0.  0.
         12    1    1    2    0    0 -0.19359059807E+02  0.26824303009E+02 -0.23639997742E+02  0.40659143151E+02  0.00000000000E+00 0. -1.
         11    1    3    3    0    0 -0.13905502613E+01 -0.95825693326E+01 -0.47568802817E+00  0.96946141957E+01  0.51100000000E-03 0.  1.
        -11    1    3    3    0    0  0.14548022076E+01  0.39050395264E+01  0.18093115609E+01  0.45430597346E+01  0.51100000000E-03 0. -1.
        -12    1    3    3    0    0  0.19294807860E+02 -0.21146773203E+02  0.22306374210E+02  0.36291182919E+02  0.00000000000E+00 0.  1.
</event>
<event>
 7    1  0.5642630E-013  0.5052886E+02  0.7816164E-02  0.1300439E+00
        -11   -1    0    0    0    0  0.00000000000E+00  0.00000000000E+00  0.45593999997E+02  0.45594000000E+02  0.51100000000E-03 0. -1.
         11   -1    0    0    0    0 -0.00000000000E+00 -0.00000000000E+00 -0.45593999997E+02  0.45594000000E+02  0.51100000000E-03 0.  1.
    9900012    2    1    2    0    0 -0.80175381850E+01 -0.31183949829E+02 -0.24828327365E+02  0.50528862217E+02  0.30000007196E+02 0.  0.
         12    1    1    2    0    0  0.80175381850E+01  0.31183949829E+02  0.24828327365E+02  0.40659137783E+02  0.00000000000E+00 0. -1.
         11    1    3    3    0    0  0.13349255451E+01 -0.15744039922E+02 -0.20082481320E+02  0.25553138271E+02  0.51100000000E-03 0. -1.
        -11    1    3    3    0    0 -0.49457618662E+01 -0.14417673864E+02 -0.98557024167E+01  0.18151163888E+02  0.51100000000E-03 0.  1.
         12    1    3    3    0    0 -0.44067018639E+01 -0.10222360429E+01  0.51098563720E+01  0.68245600582E+01  0.00000000000E+00 0. -1.
</event>
<event>
 7    1  0.5642630E-013  0.5052877E+02  0.7816164E-02  0.1300439E+00
        -11   -1    0    0    0    0  0.00000000000E+00  0.00000000000E+00  0.45593999997E+02  0.45594000000E+02  0.51100000000E-03 0.  1.
         11   -1    0    0    0    0 -0.00000000000E+00 -0.00000000000E+00 -0.45593999997E+02  0.45594000000E+02  0.51100000000E-03 0. -1.
    9900012    2    1    2    0    0  0.19266885420E+02  0.77004904291E+01  0.34966590984E+02  0.50528770892E+02  0.29999729601E+02 0.  0.
         12    1    1    2    0    0 -0.19266885420E+02 -0.77004904291E+01 -0.34966590984E+02  0.40659229108E+02  0.00000000000E+00 0. -1.
         11    1    3    3    0    0  0.20276803006E+01  0.84668872148E+00 -0.11401513150E+01  0.24755432686E+01  0.51100000000E-03 0. -1.
        -11    1    3    3    0    0  0.10647973479E+02  0.56077048727E+01  0.74122535132E+00  0.12057160048E+02  0.51100000000E-03 0.  1.
         12    1    3    3    0    0  0.65912316401E+01  0.12460968349E+01  0.35365516948E+02  0.35996067575E+02  0.00000000000E+00 0. -1.
</event>
<event>
 7    1  0.5642630E-013  0.5052886E+02  0.7816164E-02  0.1300439E+00
        -11   -1    0    0    0    0  0.00000000000E+00  0.00000000000E+00  0.45593999997E+02  0.45594000000E+02  0.51100000000E-03 0.  1.
         11   -1    0    0    0    0 -0.00000000000E+00 -0.00000000000E+00 -0.45593999997E+02  0.45594000000E+02  0.51100000000E-03 0. -1.
    9900012    2    1    2    0    0 -0.18832929820E+02  0.17752705281E+02  0.31358061171E+02  0.50528858459E+02  0.29999995773E+02 0.  0.
         12    1    1    2    0    0  0.18832929820E+02 -0.17752705281E+02 -0.31358061171E+02  0.40659141541E+02  0.00000000000E+00 0. -1.
         11    1    3    3    0    0 -0.12991260671E+02  0.14004804638E+02  0.10672987546E+02  0.21881957641E+02  0.51100000000E-03 0. -1.
        -11    1    3    3    0    0 -0.26400388820E+01  0.11306009997E+02  0.12158920609E+02  0.16811752377E+02  0.51100000000E-03 0.  1.
        -12    1    3    3    0    0 -0.32016302672E+01 -0.75581093539E+01  0.85261530160E+01  0.11835148441E+02  0.00000000000E+00 0.  1.
</event>
<event>
 7    1  0.5642630E-013  0.5052887E+02  0.7816164E-02  0.1300439E+00
        -11   -1    0    0    0    0  0.00000000000E+00  0.00000000000E+00  0.45593999997E+02  0.45594000000E+02  0.51100000000E-03 0.  1.
         11   -1    0    0    0    0 -0.00000000000E+00 -0.00000000000E+00 -0.45593999997E+02  0.45594000000E+02  0.51100000000E-03 0. -1.
    9900012    2    1    2    0    0  0.25105556924E+01  0.23566800628E+02  0.33037371506E+02  0.50528869442E+02  0.30000029155E+02 0.  0.
         12    1    1    2    0    0 -0.25105556924E+01 -0.23566800628E+02 -0.33037371506E+02  0.40659130558E+02  0.00000000000E+00 0. -1.
         11    1    3    3    0    0  0.31319458818E+01  0.51658379178E+01 -0.50888351618E+01  0.78988106677E+01  0.51100000000E-03 0. -1.
        -11    1    3    3    0    0  0.17665739279E+01  0.49316615744E+01  0.82741299605E+01  0.97930228322E+01  0.51100000000E-03 0.  1.
        -12    1    3    3    0    0 -0.23879641173E+01  0.13469301136E+02  0.29852076707E+02  0.32837035942E+02  0.00000000000E+00 0.  1.
</event>
<event>
 7    1  0.5642630E-013  0.5052889E+02  0.7816164E-02  0.1300439E+00
        -11   -1    0    0    0    0  0.00000000000E+00  0.00000000000E+00  0.45593999997E+02  0.45594000000E+02  0.51100000000E-03 0. -1.
         11   -1    0    0    0    0 -0.00000000000E+00 -0.00000000000E+00 -0.45593999997E+02  0.45594000000E+02  0.51100000000E-03 0.  1.
    9900012    2    1    2    0    0 -0.91679173812E+01  0.80008002283E+00 -0.39603943620E+02  0.50528890474E+02  0.30000093085E+02 0.  0.
         12    1    1    2    0    0  0.91679173812E+01 -0.80008002283E+00  0.39603943620E+02  0.40659109526E+02  0.00000000000E+00 0. -1.
         11    1    3    3    0    0 -0.10627231033E+02 -0.51627158196E+00 -0.14293866252E+02  0.17819068115E+02  0.51100000000E-03 0. -1.
        -11    1    3    3    0    0 -0.42157924817E+01  0.33396267752E+01  0.12110347703E+01  0.55129500925E+01  0.51100000000E-03 0.  1.
        -12    1    3    3    0    0  0.56751061340E+01 -0.20232751705E+01 -0.26521112138E+02  0.27196872267E+02  0.00000000000E+00 0.  1.
</event>
<event>
 7    1  0.5642630E-013  0.5052888E+02  0.7816164E-02  0.1300439E+00
        -11   -1    0    0    0    0  0.00000000000E+00  0.00000000000E+00  0.45593999997E+02  0.45594000000E+02  0.51100000000E-03 0. -1.
         11   -1    0    0    0    0 -0.00000000000E+00 -0.00000000000E+00 -0.45593999997E+02  0.45594000000E+02  0.51100000000E-03 0.  1.
    9900012    2    1    2    0    0 -0.28428882025E+02  0.22877491180E+02 -0.17932735064E+02  0.50528881432E+02  0.30000065600E+02 0.  0.
         12    1    1    2    0    0  0.28428882025E+02 -0.22877491180E+02  0.17932735064E+02  0.40659118568E+02  0.00000000000E+00 0. -1.
         11    1    3    3    0    0 -0.10422860926E+02  0.35443395910E+01  0.58597436025E+00  0.11024597010E+02  0.51100000000E-03 0. -1.
        -11    1    3    3    0    0 -0.17825519381E+02  0.11845871205E+02 -0.21584422862E+01  0.21511222169E+02  0.51100000000E-03 0.  1.
        -12    1    3    3    0    0 -0.18050171732E+00  0.74872803834E+01 -0.16360267138E+02  0.17993062253E+02  0.00000000000E+00 0.  1.
</event>
<event>
 7    1  0.5642630E-013  0.5052886E+02  0.7816164E-02  0.1300439E+00
        -11   -1    0    0    0    0  0.00000000000E+00  0.00000000000E+00  0.45593999997E+02  0.45594000000E+02  0.51100000000E-03 0.  1.
         11   -1    0    0    0    0 -0.00000000000E+00 -0.00000000000E+00 -0.45593999997E+02  0.45594000000E+02  0.51100000000E-03 0. -1.
    9900012    2    1    2    0    0 -0.17103108908E+02  0.29679379996E+02  0.21903959484E+02  0.50528863606E+02  0.30000011416E+02 0.  0.
         12    1    1    2    0    0  0.17103108908E+02 -0.29679379996E+02 -0.21903959484E+02  0.40659136394E+02  0.00000000000E+00 0. -1.
         11    1    3    3    0    0 -0.73350998158E+01  0.85452699664E+01  0.76953766005E+01  0.13639800196E+02  0.51100000000E-03 0.  1.
        -11    1    3    3    0    0 -0.14307183993E+02  0.21592893324E+02  0.17502821702E+02  0.31261754968E+02  0.51100000000E-03 0. -1.
         12    1    3    3    0    0  0.45391749016E+01 -0.45878329419E+00 -0.32942388186E+01  0.56273084412E+01  0.00000000000E+00 0. -1.
</event>
<event>
 7    1  0.5642630E-013  0.5052881E+02  0.7816164E-02  0.1300439E+00
        -11   -1    0    0    0    0  0.00000000000E+00  0.00000000000E+00  0.45593999997E+02  0.45594000000E+02  0.51100000000E-03 0.  1.
         11   -1    0    0    0    0 -0.00000000000E+00 -0.00000000000E+00 -0.45593999997E+02  0.45594000000E+02  0.51100000000E-03 0. -1.
    9900012    2    1    2    0    0  0.39794487610E+02 -0.26693361994E+01  0.79021177563E+01  0.50528805900E+02  0.29999836012E+02 0.  0.
         12    1    1    2    0    0 -0.39794487610E+02  0.26693361994E+01 -0.79021177563E+01  0.40659194100E+02  0.00000000000E+00 0. -1.
         11    1    3    3    0    0  0.10536132384E+02  0.26409330040E+01  0.77277411690E+01  0.13330513740E+02  0.51100000000E-03 0. -1.
        -11    1    3    3    0    0  0.10705753303E+02  0.86195217488E+01  0.21616443866E+01  0.13913375423E+02  0.51100000000E-03 0.  1.
         12    1    3    3    0    0  0.18552601923E+02 -0.13929790952E+02 -0.19872677994E+01  0.23284916736E+02  0.00000000000E+00 0. -1.
</event>
<event>
 7    1  0.5642630E-013  0.5052885E+02  0.7816164E-02  0.1300439E+00
        -11   -1    0    0    0    0  0.00000000000E+00  0.00000000000E+00  0.45593999997E+02  0.45594000000E+02  0.51100000000E-03 0. -1.
         11   -1    0    0    0    0 -0.00000000000E+00 -0.00000000000E+00 -0.45593999997E+02  0.45594000000E+02  0.51100000000E-03 0.  1.
    9900012    2    1    2    0    0 -0.20981580817E+02 -0.34264922359E+02 -0.62333512021E+01  0.50528852136E+02  0.29999976551E+02 0.  0.
         12    1    1    2    0    0  0.20981580817E+02  0.34264922359E+02  0.62333512021E+01  0.40659147864E+02  0.00000000000E+00 0. -1.
         11    1    3    3    0    0  0.47726375675E+01 -0.17008085885E+02 -0.33899939425E+01  0.17987359840E+02  0.51100000000E-03 0. -1.
        -11    1    3    3    0    0  0.43610753673E+00 -0.33215317562E+00  0.98210373246E+00  0.11247415339E+01  0.51100000000E-03 0.  1.
        -12    1    3    3    0    0 -0.26190325921E+02 -0.16924683299E+02 -0.38254609920E+01  0.31416750762E+02  0.00000000000E+00 0.  1.
</event>
<event>
 7    1  0.5642630E-013  0.5052886E+02  0.7816164E-02  0.1300439E+00
        -11   -1    0    0    0    0  0.00000000000E+00  0.00000000000E+00  0.45593999997E+02  0.45594000000E+02  0.51100000000E-03 0.  1.
         11   -1    0    0    0    0 -0.00000000000E+00 -0.00000000000E+00 -0.45593999997E+02  0.45594000000E+02  0.51100000000E-03 0. -1.
    9900012    2    1    2    0    0 -0.32062134286E+02  0.60448515637E+01 -0.24262001382E+02  0.50528863308E+02  0.30000010512E+02 0.  0.
         12    1    1    2    0    0  0.32062134286E+02 -0.60448515637E+01  0.24262001382E+02  0.40659136692E+02  0.00000000000E+00 0. -1.
         11    1    3    3    0    0 -0.93136693773E+01  0.16674356567E+00  0.11093301216E+01  0.93809836513E+01  0.51100000000E-03 0. -1.
        -11    1    3    3    0    0 -0.21168161812E+02  0.97287131427E+01 -0.10228262965E+02  0.25443197469E+02  0.51100000000E-03 0.  1.
         12    1    3    3    0    0 -0.15803030975E+01 -0.38506051447E+01 -0.15143068539E+02  0.15704682188E+02  0.00000000000E+00 0. -1.
</event>
<event>
 7    1  0.5642630E-013  0.5052886E+02  0.7816164E-02  0.1300439E+00
        -11   -1    0    0    0    0  0.00000000000E+00  0.00000000000E+00  0.45593999997E+02  0.45594000000E+02  0.51100000000E-03 0.  1.
         11   -1    0    0    0    0 -0.00000000000E+00 -0.00000000000E+00 -0.45593999997E+02  0.45594000000E+02  0.51100000000E-03 0. -1.
    9900012    2    1    2    0    0  0.16610244648E+02 -0.23184978144E+02  0.28977960553E+02  0.50528860356E+02  0.30000001538E+02 0.  0.
         12    1    1    2    0    0 -0.16610244648E+02  0.23184978144E+02 -0.28977960553E+02  0.40659139644E+02  0.00000000000E+00 0. -1.
         11    1    3    3    0    0  0.84955149051E+01 -0.80558031511E+01  0.13688095022E+02  0.18012042735E+02  0.51100000000E-03 0.  1.
        -11    1    3    3    0    0  0.98538293664E+01 -0.19919688580E+02  0.79950429055E+01  0.23618057872E+02  0.51100000000E-03 0. -1.
         12    1    3    3    0    0 -0.17390996238E+01  0.47905135872E+01  0.72948226251E+01  0.88987597485E+01  0.00000000000E+00 0. -1.
</event>
<event>
 7    1  0.5642630E-013  0.5052886E+02  0.7816164E-02  0.1300439E+00
        -11   -1    0    0    0    0  0.00000000000E+00  0.00000000000E+00  0.45593999997E+02  0.45594000000E+02  0.51100000000E-03 0. -1.
         11   -1    0    0    0    0 -0.00000000000E+00 -0.00000000000E+00 -0.45593999997E+02  0.45594000000E+02  0.51100000000E-03 0.  1.
    9900012    2    1    2    0    0  0.30173830737E+02 -0.15748993098E+02 -0.22241280151E+02  0.50528863417E+02  0.30000010841E+02 0.  0.
         12    1    1    2    0    0 -0.30173830737E+02  0.15748993098E+02  0.22241280151E+02  0.40659136583E+02  0.00000000000E+00 0. -1.
         11    1    3    3    0    0  0.16116852303E+02 -0.99790524090E+01 -0.45792310865E+01  0.19501378739E+02  0.51100000000E-03 0. -1.
        -11    1    3    3    0    0 -0.65436825900E+00 -0.94542409635E+01 -0.30185504499E+01  0.99459799464E+01  0.51100000000E-03 0.  1.
        -12    1    3    3    0    0  0.14711346693E+02  0.36843002748E+01 -0.14643498614E+02  0.21081504731E+02  0.00000000000E+00 0.  1.
</event>
<event>
 7    1  0.5642630E-013  0.5052890E+02  0.7816164E-02  0.1300439E+00
        -11   -1    0    0    0    0  0.00000000000E+00  0.00000000000E+00  0.45593999997E+02  0.45594000000E+02  0.51100000000E-03 0. -1.
         11   -1    0    0    0    0 -0.00000000000E+00 -0.00000000000E+00 -0.45593999997E+02  0.45594000000E+02  0.51100000000E-03 0.  1.
    9900012    2    1    2    0    0 -0.21956239994E+01  0.23652556559E+02 -0.32998459269E+02  0.50528898797E+02  0.30000118383E+02 0.  0.
         12    1    1    2    0    0  0.21956239994E+01 -0.23652556559E+02  0.32998459269E+02  0.40659101203E+02  0.00000000000E+00 0. -1.
         11    1    3    3    0    0  0.80054900536E+01  0.65025629719E+01 -0.11486268377E+02  0.15437148626E+02  0.51100000000E-03 0. -1.
        -11    1    3    3    0    0 -0.96609101164E+01  0.16467111782E+02 -0.25022996663E+02  0.31474582078E+02  0.51100000000E-03 0.  1.
         12    1    3    3    0    0 -0.54020393656E+00  0.68288180517E+00  0.35108057711E+01  0.36171680933E+01  0.00000000000E+00 0. -1.
</event>
<event>
 7    1  0.5642630E-013  0.5052886E+02  0.7816164E-02  0.1300439E+00
        -11   -1    0    0    0    0  0.00000000000E+00  0.00000000000E+00  0.45593999997E+02  0.45594000000E+02  0.51100000000E-03 0.  1.
         11   -1    0    0    0    0 -0.00000000000E+00 -0.00000000000E+00 -0.45593999997E+02  0.45594000000E+02  0.51100000000E-03 0. -1.
    9900012    2    1    2    0    0  0.11318184297E+02  0.21059417916E+02  0.32887155463E+02  0.50528863595E+02  0.30000011385E+02 0.  0.
         12    1    1    2    0    0 -0.11318184297E+02 -0.21059417916E+02 -0.32887155463E+02  0.40659136405E+02  0.00000000000E+00 0. -1.
         11    1    3    3    0    0  0.57810577878E+01  0.13810929802E+02  0.16916664282E+02  0.22590616234E+02  0.51100000000E-03 0.  1.
        -11    1    3    3    0    0  0.12280391567E+02  0.22593408591E+01  0.36057524696E+01  0.12996695322E+02  0.51100000000E-03 0. -1.
         12    1    3    3    0    0 -0.67432650577E+01  0.49891472551E+01  0.12364738711E+02  0.14941552040E+02  0.00000000000E+00 0. -1.
</event>
<event>
 7    1  0.5642630E-013  0.5052877E+02  0.7816164E-02  0.1300439E+00
        -11   -1    0    0    0    0  0.00000000000E+00  0.00000000000E+00  0.45593999997E+02  0.45594000000E+02  0.51100000000E-03 0.  1.
         11   -1    0    0    0    0 -0.00000000000E+00 -0.00000000000E+00 -0.45593999997E+02  0.45594000000E+02  0.51100000000E-03 0. -1.
    9900012    2    1    2    0    0  0.20095771759E+02 -0.92601535841E+01  0.34111327465E+02  0.50528767980E+02  0.29999720751E+02 0.  0.
         12    1    1    2    0    0 -0.20095771759E+02  0.92601535841E+01 -0.34111327465E+02  0.40659232020E+02  0.00000000000E+00 0. -1.
         11    1    3    3    0    0 -0.11404957826E+00 -0.32130328542E+01 -0.30297170585E+01  0.44176660290E+01  0.51100000000E-03 0. -1.
        -11    1    3    3    0    0  0.15638778958E+02 -0.10761163665E+02  0.19174031009E+02  0.26981799719E+02  0.51100000000E-03 0.  1.
         12    1    3    3    0    0  0.45710423799E+01  0.47140429350E+01  0.17967013515E+02  0.19129302232E+02  0.00000000000E+00 0. -1.
</event>
<event>
 7    1  0.5642630E-013  0.5052887E+02  0.7816164E-02  0.1300439E+00
        -11   -1    0    0    0    0  0.00000000000E+00  0.00000000000E+00  0.45593999997E+02  0.45594000000E+02  0.51100000000E-03 0.  1.
         11   -1    0    0    0    0 -0.00000000000E+00 -0.00000000000E+00 -0.45593999997E+02  0.45594000000E+02  0.51100000000E-03 0. -1.
    9900012    2    1    2    0    0  0.45847678160E+01 -0.23424666226E+02  0.32915498261E+02  0.50528866837E+02  0.30000021238E+02 0.  0.
         12    1    1    2    0    0 -0.45847678160E+01  0.23424666226E+02 -0.32915498261E+02  0.40659133163E+02  0.00000000000E+00 0. -1.
         11    1    3    3    0    0 -0.45080761186E+01 -0.82038611035E+01  0.36464992707E+01  0.10046046212E+02  0.51100000000E-03 0. -1.
        -11    1    3    3    0    0  0.42710716858E+01 -0.18909836655E+02  0.28347065454E+02  0.34342103834E+02  0.51100000000E-03 0.  1.
         12    1    3    3    0    0  0.48217722488E+01  0.36890315319E+01  0.92193353683E+00  0.61407167911E+01  0.00000000000E+00 0. -1.
</event>
<event>
 7    1  0.5642630E-013  0.5052887E+02  0.7816164E-02  0.1300439E+00
        -11   -1    0    0    0    0  0.00000000000E+00  0.00000000000E+00  0.45593999997E+02  0.45594000000E+02  0.51100000000E-03 0.  1.
         11   -1    0    0    0    0 -0.00000000000E+00 -0.00000000000E+00 -0.45593999997E+02  0.45594000000E+02  0.51100000000E-03 0. -1.
    9900012    2    1    2    0    0  0.61754903676E+01  0.27230890601E+02  0.29555153271E+02  0.50528866105E+02  0.30000019013E+02 0.  0.
         12    1    1    2    0    0 -0.61754903676E+01 -0.27230890601E+02 -0.29555153271E+02  0.40659133895E+02  0.00000000000E+00 0. -1.
         11    1    3    3    0    0  0.41197613574E+01 -0.30215594865E+01  0.53632632932E+01  0.74072159943E+01  0.51100000000E-03 0. -1.
        -11    1    3    3    0    0  0.37470098586E+01  0.16165879503E+01 -0.17547927314E+01  0.44421545756E+01  0.51100000000E-03 0.  1.
         12    1    3    3    0    0 -0.16912808485E+01  0.28635862138E+02  0.25946682709E+02  0.38679495535E+02  0.00000000000E+00 0. -1.
</event>
<event>
 7    1  0.5642630E-013  0.5052886E+02  0.7816164E-02  0.1300439E+00
        -11   -1    0    0    0    0  0.00000000000E+00  0.00000000000E+00  0.45593999997E+02  0.45594000000E+02  0.51100000000E-03 0.  1.
         11   -1    0    0    0    0 -0.00000000000E+00 -0.00000000000E+00 -0.45593999997E+02  0.45594000000E+02  0.51100000000E-03 0. -1.
    9900012    2    1    2    0    0  0.38119715529E+02 -0.14142692114E+02 -0.19286895275E+00  0.50528860183E+02  0.30000001012E+02 0.  0.
         12    1    1    2    0    0 -0.38119715529E+02  0.14142692114E+02  0.19286895275E+00  0.40659139817E+02  0.00000000000E+00 0. -1.
         11    1    3    3    0    0  0.84197644431E+01 -0.68747387694E+01  0.28047720642E+01  0.11225917023E+02  0.51100000000E-03 0. -1.
        -11    1    3    3    0    0  0.24140453563E+02  0.47349797561E+01  0.29927578238E+01  0.24781810490E+02  0.51100000000E-03 0.  1.
         12    1    3    3    0    0  0.55594975224E+01 -0.12002933101E+02 -0.59903988407E+01  0.14521132669E+02  0.00000000000E+00 0. -1.
</event>
<event>
 7    1  0.5642630E-013  0.5052879E+02  0.7816164E-02  0.1300439E+00
        -11   -1    0    0    0    0  0.00000000000E+00  0.00000000000E+00  0.45593999997E+02  0.45594000000E+02  0.51100000000E-03 0. -1.
         11   -1    0    0    0    0 -0.00000000000E+00 -0.00000000000E+00 -0.45593999997E+02  0.45594000000E+02  0.51100000000E-03 0.  1.
    9900012    2    1    2    0    0  0.16569721589E+02 -0.83923361445E+01 -0.36168834454E+02  0.50528787449E+02  0.29999779929E+02 0.  0.
         12    1    1    2    0    0 -0.16569721589E+02  0.83923361445E+01  0.36168834454E+02  0.40659212551E+02  0.00000000000E+00 0. -1.
         11    1    3    3    0    0  0.10032047777E+02  0.36820607406E+01 -0.70180327548E+00  0.10709438921E+02  0.51100000000E-03 0. -1.
        -11    1    3    3    0    0  0.35881387223E+01 -0.10766969132E+02 -0.13589845258E+02  0.17705543149E+02  0.51100000000E-03 0.  1.
        -12    1    3    3    0    0  0.29495350901E+01 -0.13074277528E+01 -0.21877185920E+02  0.22113805379E+02  0.00000000000E+00 0.  1.
</event>
<event>
 7    1  0.5642630E-013  0.5052886E+02  0.7816164E-02  0.1300439E+00
        -11   -1    0    0    0    0  0.00000000000E+00  0.00000000000E+00  0.45593999997E+02  0.45594000000E+02  0.51100000000E-03 0.  1.
         11   -1    0    0    0    0 -0.00000000000E+00 -0.00000000000E+00 -0.45593999997E+02  0.45594000000E+02  0.51100000000E-03 0. -1.
    9900012    2    1    2    0    0  0.23117818318E+02  0.31978940865E+02  0.98019936191E+01  0.50528864968E+02  0.30000015557E+02 0.  0.
         12    1    1    2    0    0 -0.23117818318E+02 -0.31978940865E+02 -0.98019936191E+01  0.40659135032E+02  0.00000000000E+00 0. -1.
         11    1    3    3    0    0 -0.40862828230E+00  0.44693255061E+01 -0.43179900766E+01  0.62279118583E+01  0.51100000000E-03 0. -1.
        -11    1    3    3    0    0  0.61463840711E+01  0.23309294168E+02  0.84098805957E+01  0.25530909182E+02  0.51100000000E-03 0.  1.
        -12    1    3    3    0    0  0.17380062530E+02  0.42003211908E+01  0.57101031000E+01  0.18770043928E+02  0.00000000000E+00 0.  1.
</event>
<event>
 7    1  0.5642630E-013  0.5052888E+02  0.7816164E-02  0.1300439E+00
        -11   -1    0    0    0    0  0.00000000000E+00  0.00000000000E+00  0.45593999997E+02  0.45594000000E+02  0.51100000000E-03 0.  1.
         11   -1    0    0    0    0 -0.00000000000E+00 -0.00000000000E+00 -0.45593999997E+02  0.45594000000E+02  0.51100000000E-03 0. -1.
    9900012    2    1    2    0    0 -0.81235451254E+01  0.29466126178E+02  0.26812679703E+02  0.50528875929E+02  0.30000048875E+02 0.  0.
         12    1    1    2    0    0  0.81235451254E+01 -0.29466126178E+02 -0.26812679703E+02  0.40659124071E+02  0.00000000000E+00 0. -1.
         11    1    3    3    0    0 -0.91969998243E+01  0.55816945390E+01  0.20854441580E+02  0.23465887018E+02  0.51100000000E-03 0. -1.
        -11    1    3    3    0    0 -0.14607831846E+01 -0.69205562154E+00  0.87729094929E+00  0.18391487614E+01  0.51100000000E-03 0.  1.
        -12    1    3    3    0    0  0.25342378836E+01  0.24576487260E+02  0.50809471745E+01  0.25223840150E+02  0.00000000000E+00 0.  1.
</event>
<event>
 7    1  0.5642630E-013  0.5052884E+02  0.7816164E-02  0.1300439E+00
        -11   -1    0    0    0    0  0.00000000000E+00  0.00000000000E+00  0.45593999997E+02  0.45594000000E+02  0.51100000000E-03 0. -1.
         11   -1    0    0    0    0 -0.00000000000E+00 -0.00000000000E+00 -0.45593999997E+02  0.45594000000E+02  0.51100000000E-03 0.  1.
    9900012    2    1    2    0    0  0.22601703556E+02 -0.26665408041E+02 -0.20767431376E+02  0.50528841185E+02  0.29999943265E+02 0.  0.
         12    1    1    2    0    0 -0.22601703556E+02  0.26665408041E+02  0.20767431376E+02  0.40659158815E+02  0.00000000000E+00 0. -1.
         11    1    3    3    0    0  0.55724946389E+01 -0.12467855164E+02 -0.81614869223E+01  0.15909430472E+02  0.51100000000E-03 0. -1.
        -11    1    3    3    0    0  0.22840909201E+02 -0.12768272368E+02 -0.11247448726E+02  0.28482293017E+02  0.51100000000E-03 0.  1.
         12    1    3    3    0    0 -0.58117002846E+01 -0.14292805095E+01 -0.13584957272E+01  0.61371176959E+01  0.00000000000E+00 0. -1.
</event>
<event>
 7    1  0.5642630E-013  0.5052886E+02  0.7816164E-02  0.1300439E+00
        -11   -1    0    0    0    0  0.00000000000E+00  0.00000000000E+00  0.45593999997E+02  0.45594000000E+02  0.51100000000E-03 0.  1.
         11   -1    0    0    0    0 -0.00000000000E+00 -0.00000000000E+00 -0.45593999997E+02  0.45594000000E+02  0.51100000000E-03 0. -1.
    9900012    2    1    2    0    0 -0.82611166867E+01 -0.29901286610E+02  0.26283702846E+02  0.50528855578E+02  0.29999987014E+02 0.  0.
         12    1    1    2    0    0  0.82611166867E+01  0.29901286610E+02 -0.26283702846E+02  0.40659144422E+02  0.00000000000E+00 0. -1.
         11    1    3    3    0    0 -0.20238681838E+00 -0.15492975828E+02  0.87402359390E+01  0.17789462751E+02  0.51100000000E-03 0. -1.
        -11    1    3    3    0    0 -0.67776366715E+01 -0.16665519816E+02  0.33370805692E+01  0.18297869182E+02  0.51100000000E-03 0.  1.
         12    1    3    3    0    0 -0.12810931969E+01  0.22572090348E+01  0.14206386338E+02  0.14441523645E+02  0.00000000000E+00 0. -1.
</event>
<event>
 7    1  0.5642630E-013  0.5052877E+02  0.7816164E-02  0.1300439E+00
        -11   -1    0    0    0    0  0.00000000000E+00  0.00000000000E+00  0.45593999997E+02  0.45594000000E+02  0.51100000000E-03 0.  1.
         11   -1    0    0    0    0 -0.00000000000E+00 -0.00000000000E+00 -0.45593999997E+02  0.45594000000E+02  0.51100000000E-03 0. -1.
    9900012    2    1    2    0    0  0.22433460228E+02  0.90504211560E+00  0.33898290549E+02  0.50528765610E+02  0.29999713548E+02 0.  0.
         12    1    1    2    0    0 -0.22433460228E+02 -0.90504211560E+00 -0.33898290549E+02  0.40659234390E+02  0.00000000000E+00 0. -1.
         11    1    3    3    0    0  0.28300952499E+02 -0.17848051642E+01  0.19862290417E+02  0.34621381005E+02  0.51100000000E-03 0.  1.
        -11    1    3    3    0    0 -0.14825888634E+01  0.23322450415E+01  0.78045217182E+01  0.82793717263E+01  0.51100000000E-03 0. -1.
        -12    1    3    3    0    0 -0.43849034080E+01  0.35760223831E+00  0.62314784140E+01  0.76280128790E+01  0.00000000000E+00 0.  1.
</event>
<event>
 7    1  0.5642630E-013  0.5052886E+02  0.7816164E-02  0.1300439E+00
        -11   -1    0    0    0    0  0.00000000000E+00  0.00000000000E+00  0.45593999997E+02  0.45594000000E+02  0.51100000000E-03 0.  1.
         11   -1    0    0    0    0 -0.00000000000E+00 -0.00000000000E+00 -0.45593999997E+02  0.45594000000E+02  0.51100000000E-03 0. -1.
    9900012    2    1    2    0    0  0.10214157202E+01  0.88438526279E+01  0.39672515305E+02  0.50528862159E+02  0.30000007017E+02 0.  0.
         12    1    1    2    0    0 -0.10214157202E+01 -0.88438526279E+01 -0.39672515305E+02  0.40659137841E+02  0.00000000000E+00 0. -1.
         11    1    3    3    0    0  0.48574146895E+01 -0.19071493826E+01  0.34955893530E+01  0.62809904808E+01  0.51100000000E-03 0. -1.
        -11    1    3    3    0    0  0.81532042768E+01  0.79774741379E+01  0.94083722362E+01  0.14786220004E+02  0.51100000000E-03 0.  1.
         12    1    3    3    0    0 -0.11989203246E+02  0.27735278726E+01  0.26768553716E+02  0.29461651674E+02  0.00000000000E+00 0. -1.
</event>
<event>
 7    1  0.5642630E-013  0.5052886E+02  0.7816164E-02  0.1300439E+00
        -11   -1    0    0    0    0  0.00000000000E+00  0.00000000000E+00  0.45593999997E+02  0.45594000000E+02  0.51100000000E-03 0.  1.
         11   -1    0    0    0    0 -0.00000000000E+00 -0.00000000000E+00 -0.45593999997E+02  0.45594000000E+02  0.51100000000E-03 0. -1.
    9900012    2    1    2    0    0 -0.38456810495E+01  0.32309012519E+02  0.24382458875E+02  0.50528857689E+02  0.29999993431E+02 0.  0.
         12    1    1    2    0    0  0.38456810495E+01 -0.32309012519E+02 -0.24382458875E+02  0.40659142311E+02  0.00000000000E+00 0. -1.
         11    1    3    3    0    0 -0.57309238749E+01  0.21881745835E+02  0.24360918122E+02  0.33243174055E+02  0.51100000000E-03 0. -1.
        -11    1    3    3    0    0 -0.46250581608E+01  0.24055151131E+01  0.36188517950E+01  0.63461606129E+01  0.51100000000E-03 0.  1.
         12    1    3    3    0    0  0.65103009862E+01  0.80217515706E+01 -0.35973110419E+01  0.10939523021E+02  0.00000000000E+00 0. -1.
</event>
<event>
 7    1  0.5642630E-013  0.5052886E+02  0.7816164E-02  0.1300439E+00
        -11   -1    0    0    0    0  0.00000000000E+00  0.00000000000E+00  0.45593999997E+02  0.45594000000E+02  0.51100000000E-03 0.  1.
         11   -1    0    0    0    0 -0.00000000000E+00 -0.00000000000E+00 -0.45593999997E+02  0.45594000000E+02  0.51100000000E-03 0. -1.
    9900012    2    1    2    0    0 -0.29183158434E+02  0.19772724044E+02  0.20261985338E+02  0.50528863239E+02  0.30000010301E+02 0.  0.
         12    1    1    2    0    0  0.29183158434E+02 -0.19772724044E+02 -0.20261985338E+02  0.40659136761E+02  0.00000000000E+00 0. -1.
         11    1    3    3    0    0 -0.18844577071E+01  0.42922577756E+01 -0.22360221339E+01  0.51936935707E+01  0.51100000000E-03 0. -1.
        -11    1    3    3    0    0  0.33562265051E+01  0.41237333584E+01 -0.53674363108E+00  0.53439243212E+01  0.51100000000E-03 0.  1.
         12    1    3    3    0    0 -0.30654927232E+02  0.11356732910E+02  0.23034751103E+02  0.39991245347E+02  0.00000000000E+00 0. -1.
</event>
<event>
 7    1  0.5642630E-013  0.5052886E+02  0.7816164E-02  0.1300439E+00
        -11   -1    0    0    0    0  0.00000000000E+00  0.00000000000E+00  0.45593999997E+02  0.45594000000E+02  0.51100000000E-03 0. -1.
         11   -1    0    0    0    0 -0.00000000000E+00 -0.00000000000E+00 -0.45593999997E+02  0.45594000000E+02  0.51100000000E-03 0.  1.
    9900012    2    1    2    0    0  0.36769850514E+02 -0.11384869967E+02 -0.13096884433E+02  0.50528861386E+02  0.30000004669E+02 0.  0.
         12    1    1    2    0    0 -0.36769850514E+02  0.11384869967E+02  0.13096884433E+02  0.40659138614E+02  0.00000000000E+00 0. -1.
         11    1    3    3    0    0  0.19722894146E+02 -0.54038954346E+01  0.67152627447E+01  0.21524158365E+02  0.51100000000E-03 0. -1.
        -11    1    3    3    0    0 -0.51600458570E+00 -0.16499715022E+01  0.50568747765E+00  0.18012181370E+01  0.51100000000E-03 0.  1.
        -12    1    3    3    0    0  0.17562960954E+02 -0.43310030303E+01 -0.20317834656E+02  0.27203484884E+02  0.00000000000E+00 0.  1.
</event>
<event>
 7    1  0.5642630E-013  0.5052885E+02  0.7816164E-02  0.1300439E+00
        -11   -1    0    0    0    0  0.00000000000E+00  0.00000000000E+00  0.45593999997E+02  0.45594000000E+02  0.51100000000E-03 0. -1.
         11   -1    0    0    0    0 -0.00000000000E+00 -0.00000000000E+00 -0.45593999997E+02  0.45594000000E+02  0.51100000000E-03 0.  1.
    9900012    2    1    2    0    0  0.28374839222E+02 -0.21620582045E+02 -0.19508590250E+02  0.50528853890E+02  0.29999981884E+02 0.  0.
         12    1    1    2    0    0 -0.28374839222E+02  0.21620582045E+02  0.19508590250E+02  0.40659146110E+02  0.00000000000E+00 0. -1.
         11    1    3    3    0    0  0.24045527481E+01 -0.34915678134E+00 -0.37636731328E+00  0.24587470370E+01  0.51100000000E-03 0. -1.
        -11    1    3    3    0    0  0.30667805912E+02 -0.22551731482E+02 -0.20186854534E+02  0.43088327985E+02  0.51100000000E-03 0.  1.
         12    1    3    3    0    0 -0.46975194380E+01  0.12803062187E+01  0.10546315966E+01  0.49817788679E+01  0.00000000000E+00 0. -1.
</event>
<event>
 7    1  0.5642630E-013  0.5052886E+02  0.7816164E-02  0.1300439E+00
        -11   -1    0    0    0    0  0.00000000000E+00  0.00000000000E+00  0.45593999997E+02  0.45594000000E+02  0.51100000000E-03 0.  1.
         11   -1    0    0    0    0 -0.00000000000E+00 -0.00000000000E+00 -0.45593999997E+02  0.45594000000E+02  0.51100000000E-03 0. -1.
    9900012    2    1    2    0    0 -0.11040823526E+02  0.37445258812E+02  0.11363041026E+02  0.50528857203E+02  0.29999991955E+02 0.  0.
         12    1    1    2    0    0  0.11040823526E+02 -0.37445258812E+02 -0.11363041026E+02  0.40659142797E+02  0.00000000000E+00 0. -1.
         11    1    3    3    0    0 -0.96821996611E+01  0.10156285699E+02 -0.68554477999E+01  0.15617051395E+02  0.51100000000E-03 0. -1.
        -11    1    3    3    0    0 -0.57578509696E+01  0.17214137927E+02  0.77682864979E+01  0.19744003336E+02  0.51100000000E-03 0.  1.
        -12    1    3    3    0    0  0.43992271045E+01  0.10074835185E+02  0.10450202328E+02  0.15167802472E+02  0.00000000000E+00 0.  1.
</event>
<event>
 7    1  0.5642630E-013  0.5052883E+02  0.7816164E-02  0.1300439E+00
        -11   -1    0    0    0    0  0.00000000000E+00  0.00000000000E+00  0.45593999997E+02  0.45594000000E+02  0.51100000000E-03 0.  1.
         11   -1    0    0    0    0 -0.00000000000E+00 -0.00000000000E+00 -0.45593999997E+02  0.45594000000E+02  0.51100000000E-03 0. -1.
    9900012    2    1    2    0    0  0.19545283411E+02 -0.23209996856E+02  0.27063737722E+02  0.50528831819E+02  0.29999914797E+02 0.  0.
         12    1    1    2    0    0 -0.19545283411E+02  0.23209996856E+02 -0.27063737722E+02  0.40659168181E+02  0.00000000000E+00 0. -1.
         11    1    3    3    0    0 -0.17096257878E+00  0.37196408423E+01 -0.50120397844E+00  0.37571481057E+01  0.51100000000E-03 0. -1.
        -11    1    3    3    0    0 -0.22997265362E+00 -0.26113011993E+01  0.10833636384E+02  0.11146275563E+02  0.51100000000E-03 0.  1.
        -12    1    3    3    0    0  0.19946218643E+02 -0.24318336499E+02  0.16731305317E+02  0.35625408150E+02  0.00000000000E+00 0.  1.
</event>
<event>
 7    1  0.5642630E-013  0.5052891E+02  0.7816164E-02  0.1300439E+00
        -11   -1    0    0    0    0  0.00000000000E+00  0.00000000000E+00  0.45593999997E+02  0.45594000000E+02  0.51100000000E-03 0.  1.
         11   -1    0    0    0    0 -0.00000000000E+00 -0.00000000000E+00 -0.45593999997E+02  0.45594000000E+02  0.51100000000E-03 0. -1.
    9900012    2    1    2    0    0 -0.23073186179E+02 -0.22196617281E+02  0.25061925882E+02  0.50528906699E+02  0.30000142401E+02 0.  0.
         12    1    1    2    0    0  0.23073186179E+02  0.22196617281E+02 -0.25061925882E+02  0.40659093301E+02  0.00000000000E+00 0. -1.
         11    1    3    3    0    0 -0.16277464020E+02 -0.11780075432E+02  0.12824211247E+02  0.23836660976E+02  0.51100000000E-03 0.  1.
        -11    1    3    3    0    0  0.13923839998E+00  0.55480116053E+01  0.24543487742E+00  0.55551830433E+01  0.51100000000E-03 0. -1.
         12    1    3    3    0    0 -0.69349605594E+01 -0.15964553454E+02  0.11992279758E+02  0.21137062680E+02  0.00000000000E+00 0. -1.
</event>
<event>
 7    1  0.5642630E-013  0.5052886E+02  0.7816164E-02  0.1300439E+00
        -11   -1    0    0    0    0  0.00000000000E+00  0.00000000000E+00  0.45593999997E+02  0.45594000000E+02  0.51100000000E-03 0.  1.
         11   -1    0    0    0    0 -0.00000000000E+00 -0.00000000000E+00 -0.45593999997E+02  0.45594000000E+02  0.51100000000E-03 0. -1.
    9900012    2    1    2    0    0  0.34508880897E+02  0.10011549045E+02 -0.19028176233E+02  0.50528862456E+02  0.30000007921E+02 0.  0.
         12    1    1    2    0    0 -0.34508880897E+02 -0.10011549045E+02  0.19028176233E+02  0.40659137544E+02  0.00000000000E+00 0. -1.
         11    1    3    3    0    0  0.16010988056E+02 -0.89793706529E+00  0.70773504871E-01  0.16036303772E+02  0.51100000000E-03 0. -1.
        -11    1    3    3    0    0  0.16689003313E+02  0.50812654943E+01 -0.35691190628E+01  0.17806760002E+02  0.51100000000E-03 0.  1.
         12    1    3    3    0    0  0.18088895279E+01  0.58282206164E+01 -0.15529830675E+02  0.16685798683E+02  0.00000000000E+00 0. -1.
</event>
<event>
 7    1  0.5642630E-013  0.5052886E+02  0.7816164E-02  0.1300439E+00
        -11   -1    0    0    0    0  0.00000000000E+00  0.00000000000E+00  0.45593999997E+02  0.45594000000E+02  0.51100000000E-03 0.  1.
         11   -1    0    0    0    0 -0.00000000000E+00 -0.00000000000E+00 -0.45593999997E+02  0.45594000000E+02  0.51100000000E-03 0. -1.
    9900012    2    1    2    0    0  0.32949617929E+01  0.93770980236E+01  0.39425609338E+02  0.50528863115E+02  0.30000009923E+02 0.  0.
         12    1    1    2    0    0 -0.32949617929E+01 -0.93770980236E+01 -0.39425609338E+02  0.40659136885E+02  0.00000000000E+00 0. -1.
         11    1    3    3    0    0 -0.15872413995E+01  0.31668014216E+00 -0.28241634563E+01  0.32550761991E+01  0.51100000000E-03 0. -1.
        -11    1    3    3    0    0 -0.34202049877E+01  0.11938229135E+02  0.25077481024E+02  0.27983909159E+02  0.51100000000E-03 0.  1.
         12    1    3    3    0    0  0.83024081801E+01 -0.28778112539E+01  0.17172291771E+02  0.19289877756E+02  0.00000000000E+00 0. -1.
</event>
<event>
 7    1  0.5642630E-013  0.5052887E+02  0.7816164E-02  0.1300439E+00
        -11   -1    0    0    0    0  0.00000000000E+00  0.00000000000E+00  0.45593999997E+02  0.45594000000E+02  0.51100000000E-03 0.  1.
         11   -1    0    0    0    0 -0.00000000000E+00 -0.00000000000E+00 -0.45593999997E+02  0.45594000000E+02  0.51100000000E-03 0. -1.
    9900012    2    1    2    0    0  0.21063942958E+02 -0.31171182287E+02  0.15421810580E+02  0.50528873845E+02  0.30000042539E+02 0.  0.
         12    1    1    2    0    0 -0.21063942958E+02  0.31171182287E+02 -0.15421810580E+02  0.40659126155E+02  0.00000000000E+00 0. -1.
         11    1    3    3    0    0  0.23932702850E+00  0.25108524168E+01  0.23758130840E+01  0.34649885075E+01  0.51100000000E-03 0. -1.
        -11    1    3    3    0    0  0.41855213877E+01 -0.25337782414E+02  0.12196953011E+02  0.28430396936E+02  0.51100000000E-03 0.  1.
         12    1    3    3    0    0  0.16639094542E+02 -0.83442522899E+01  0.84904448508E+00  0.18633488401E+02  0.00000000000E+00 0. -1.
</event>
<event>
 7    1  0.5642630E-013  0.5052886E+02  0.7816164E-02  0.1300439E+00
        -11   -1    0    0    0    0  0.00000000000E+00  0.00000000000E+00  0.45593999997E+02  0.45594000000E+02  0.51100000000E-03 0. -1.
         11   -1    0    0    0    0 -0.00000000000E+00 -0.00000000000E+00 -0.45593999997E+02  0.45594000000E+02  0.51100000000E-03 0.  1.
    9900012    2    1    2    0    0  0.16299728032E+02  0.17569760117E+02  0.32844903771E+02  0.50528864394E+02  0.30000013813E+02 0.  0.
         12    1    1    2    0    0 -0.16299728032E+02 -0.17569760117E+02 -0.32844903771E+02  0.40659135606E+02  0.00000000000E+00 0. -1.
         11    1    3    3    0    0 -0.74092651757E+01  0.66455017008E+00  0.82294701717E+01  0.11093377166E+02  0.51100000000E-03 0. -1.
        -11    1    3    3    0    0  0.98916198228E+01  0.13207856652E+01  0.82129909437E+01  0.12924466643E+02  0.51100000000E-03 0.  1.
        -12    1    3    3    0    0  0.13817373385E+02  0.15584424281E+02  0.16402442655E+02  0.26511020586E+02  0.00000000000E+00 0.  1.
</event>
<event>
 7    1  0.5642630E-013  0.5052886E+02  0.7816164E-02  0.1300439E+00
        -11   -1    0    0    0    0  0.00000000000E+00  0.00000000000E+00  0.45593999997E+02  0.45594000000E+02  0.51100000000E-03 0. -1.
         11   -1    0    0    0    0 -0.00000000000E+00 -0.00000000000E+00 -0.45593999997E+02  0.45594000000E+02  0.51100000000E-03 0.  1.
    9900012    2    1    2    0    0 -0.33003648828E+02  0.16457330439E+02 -0.17119610935E+02  0.50528860317E+02  0.30000001421E+02 0.  0.
         12    1    1    2    0    0  0.33003648828E+02 -0.16457330439E+02  0.17119610935E+02  0.40659139683E+02  0.00000000000E+00 0. -1.
         11    1    3    3    0    0 -0.61110482989E+01 -0.21654234011E+01 -0.56101303786E+01  0.85736534187E+01  0.51100000000E-03 0. -1.
        -11    1    3    3    0    0 -0.89037180181E+01 -0.53163703115E+01 -0.22475767389E+01  0.10610918400E+02  0.51100000000E-03 0.  1.
         12    1    3    3    0    0 -0.17988882511E+02  0.23939124152E+02 -0.92619038172E+01  0.31344288499E+02  0.00000000000E+00 0. -1.
</event>
<event>
 7    1  0.5642630E-013  0.5052884E+02  0.7816164E-02  0.1300439E+00
        -11   -1    0    0    0    0  0.00000000000E+00  0.00000000000E+00  0.45593999997E+02  0.45594000000E+02  0.51100000000E-03 0.  1.
         11   -1    0    0    0    0 -0.00000000000E+00 -0.00000000000E+00 -0.45593999997E+02  0.45594000000E+02  0.51100000000E-03 0. -1.
    9900012    2    1    2    0    0  0.56953536501E+01 -0.32705788801E+02  0.23474694436E+02  0.50528844166E+02  0.29999952326E+02 0.  0.
         12    1    1    2    0    0 -0.56953536501E+01  0.32705788801E+02 -0.23474694436E+02  0.40659155834E+02  0.00000000000E+00 0. -1.
         11    1    3    3    0    0 -0.78671616978E+01 -0.83466878588E+01  0.31721499116E+01  0.11900502793E+02  0.51100000000E-03 0.  1.
        -11    1    3    3    0    0 -0.20454816250E+01  0.11366619597E+01  0.38518263615E+01  0.45069459803E+01  0.51100000000E-03 0. -1.
        -12    1    3    3    0    0  0.15607996973E+02 -0.25495762902E+02  0.16450718163E+02  0.34121395393E+02  0.00000000000E+00 0.  1.
</event>
<event>
 7    1  0.5642630E-013  0.5052887E+02  0.7816164E-02  0.1300439E+00
        -11   -1    0    0    0    0  0.00000000000E+00  0.00000000000E+00  0.45593999997E+02  0.45594000000E+02  0.51100000000E-03 0.  1.
         11   -1    0    0    0    0 -0.00000000000E+00 -0.00000000000E+00 -0.45593999997E+02  0.45594000000E+02  0.51100000000E-03 0. -1.
    9900012    2    1    2    0    0 -0.34112914617E+02  0.18269518008E+02  0.12477915884E+02  0.50528872897E+02  0.30000039658E+02 0.  0.
         12    1    1    2    0    0  0.34112914617E+02 -0.18269518008E+02 -0.12477915884E+02  0.40659127103E+02  0.00000000000E+00 0. -1.
         11    1    3    3    0    0 -0.30076780334E+01 -0.20447154869E+01  0.88235342832E+01  0.95436757114E+01  0.51100000000E-03 0. -1.
        -11    1    3    3    0    0 -0.74098496573E+01 -0.14951365791E+01  0.44486117677E+01  0.87710576474E+01  0.51100000000E-03 0.  1.
         12    1    3    3    0    0 -0.23695386927E+02  0.21809370074E+02 -0.79423016673E+00  0.32214139538E+02  0.00000000000E+00 0. -1.
</event>
<event>
 7    1  0.5642630E-013  0.5052886E+02  0.7816164E-02  0.1300439E+00
        -11   -1    0    0    0    0  0.00000000000E+00  0.00000000000E+00  0.45593999997E+02  0.45594000000E+02  0.51100000000E-03 0. -1.
         11   -1    0    0    0    0 -0.00000000000E+00 -0.00000000000E+00 -0.45593999997E+02  0.45594000000E+02  0.51100000000E-03 0.  1.
    9900012    2    1    2    0    0  0.16259805248E+02  0.80793339752E+01 -0.36380062360E+02  0.50528857836E+02  0.29999993879E+02 0.  0.
         12    1    1    2    0    0 -0.16259805248E+02 -0.80793339752E+01  0.36380062360E+02  0.40659142164E+02  0.00000000000E+00 0. -1.
         11    1    3    3    0    0  0.28027442465E+00 -0.63723175015E+01 -0.11344730646E+01  0.64785811323E+01  0.51100000000E-03 0. -1.
        -11    1    3    3    0    0  0.14470531678E+01 -0.31680758455E+01 -0.60682489581E+01  0.69967358898E+01  0.51100000000E-03 0.  1.
         12    1    3    3    0    0  0.14532477656E+02  0.17619727322E+02 -0.29177340337E+02  0.37053540814E+02  0.00000000000E+00 0. -1.
</event>
<event>
 7    1  0.5642630E-013  0.5052886E+02  0.7816164E-02  0.1300439E+00
        -11   -1    0    0    0    0  0.00000000000E+00  0.00000000000E+00  0.45593999997E+02  0.45594000000E+02  0.51100000000E-03 0.  1.
         11   -1    0    0    0    0 -0.00000000000E+00 -0.00000000000E+00 -0.45593999997E+02  0.45594000000E+02  0.51100000000E-03 0. -1.
    9900012    2    1    2    0    0  0.35687042224E+02  0.18713913865E+01  0.19393269063E+02  0.50528856215E+02  0.29999988951E+02 0.  0.
         12    1    1    2    0    0 -0.35687042224E+02 -0.18713913865E+01 -0.19393269063E+02  0.40659143785E+02  0.00000000000E+00 0. -1.
         11    1    3    3    0    0  0.23643412806E+02  0.47461244807E+01  0.12075827946E+02  0.26969654939E+02  0.51100000000E-03 0. -1.
        -11    1    3    3    0    0  0.26735345738E-02  0.33471826028E+01  0.92792375321E+01  0.98644760612E+01  0.51100000000E-03 0.  1.
         12    1    3    3    0    0  0.12040955883E+02 -0.62219156970E+01 -0.19617964156E+01  0.13694725214E+02  0.00000000000E+00 0. -1.
</event>
<event>
 7    1  0.5642630E-013  0.5052886E+02  0.7816164E-02  0.1300439E+00
        -11   -1    0    0    0    0  0.00000000000E+00  0.00000000000E+00  0.45593999997E+02  0.45594000000E+02  0.51100000000E-03 0.  1.
         11   -1    0    0    0    0 -0.00000000000E+00 -0.00000000000E+00 -0.45593999997E+02  0.45594000000E+02  0.51100000000E-03 0. -1.
    9900012    2    1    2    0    0  0.22074459195E+02  0.91831671097E+01  0.32886975855E+02  0.50528862185E+02  0.30000007099E+02 0.  0.
         12    1    1    2    0    0 -0.22074459195E+02 -0.91831671097E+01 -0.32886975855E+02  0.40659137815E+02  0.00000000000E+00 0. -1.
         11    1    3    3    0    0 -0.34215629343E+01 -0.21101246033E+01 -0.22396556826E+01  0.46017145274E+01  0.51100000000E-03 0. -1.
        -11    1    3    3    0    0  0.12330363342E+02  0.15980331059E+01  0.10032153566E+02  0.15976097001E+02  0.51100000000E-03 0.  1.
        -12    1    3    3    0    0  0.13165658787E+02  0.96952586070E+01  0.25094477972E+02  0.29951050657E+02  0.00000000000E+00 0.  1.
</event>
<event>
 7    1  0.5642630E-013  0.5052886E+02  0.7816164E-02  0.1300439E+00
        -11   -1    0    0    0    0  0.00000000000E+00  0.00000000000E+00  0.45593999997E+02  0.45594000000E+02  0.51100000000E-03 0. -1.
         11   -1    0    0    0    0 -0.00000000000E+00 -0.00000000000E+00 -0.45593999997E+02  0.45594000000E+02  0.51100000000E-03 0.  1.
    9900012    2    1    2    0    0 -0.31805337007E+02 -0.28120537624E+01 -0.25172970712E+02  0.50528861261E+02  0.30000004290E+02 0.  0.
         12    1    1    2    0    0  0.31805337007E+02  0.28120537624E+01  0.25172970712E+02  0.40659138739E+02  0.00000000000E+00 0. -1.
         11    1    3    3    0    0 -0.14311770629E+02  0.84978988361E+00  0.23602104187E+01  0.14529952335E+02  0.51100000000E-03 0. -1.
        -11    1    3    3    0    0  0.13695536610E+01  0.88984209219E+00  0.66979650978E+00  0.17652546006E+01  0.51100000000E-03 0.  1.
         12    1    3    3    0    0 -0.18863120039E+02 -0.45516857382E+01 -0.28202977641E+02  0.34233654326E+02  0.00000000000E+00 0. -1.
</event>
<event>
 7    1  0.5642630E-013  0.5052886E+02  0.7816164E-02  0.1300439E+00
        -11   -1    0    0    0    0  0.00000000000E+00  0.00000000000E+00  0.45593999997E+02  0.45594000000E+02  0.51100000000E-03 0.  1.
         11   -1    0    0    0    0 -0.00000000000E+00 -0.00000000000E+00 -0.45593999997E+02  0.45594000000E+02  0.51100000000E-03 0. -1.
    9900012    2    1    2    0    0  0.36552680792E+02 -0.67934936518E+01  0.16459516072E+02  0.50528859596E+02  0.29999999227E+02 0.  0.
         12    1    1    2    0    0 -0.36552680792E+02  0.67934936518E+01 -0.16459516072E+02  0.40659140404E+02  0.00000000000E+00 0. -1.
         11    1    3    3    0    0  0.10383929963E+02  0.57303443349E+01  0.42618221804E+01  0.12602617832E+02  0.51100000000E-03 0. -1.
        -11    1    3    3    0    0 -0.11260569739E+01  0.35794976597E+01  0.33323903208E+01  0.50185289992E+01  0.51100000000E-03 0.  1.
        -12    1    3    3    0    0  0.27294807803E+02 -0.16103335646E+02  0.88653035706E+01  0.32907712764E+02  0.00000000000E+00 0.  1.
</event>
<event>
 7    1  0.5642630E-013  0.5052886E+02  0.7816164E-02  0.1300439E+00
        -11   -1    0    0    0    0  0.00000000000E+00  0.00000000000E+00  0.45593999997E+02  0.45594000000E+02  0.51100000000E-03 0.  1.
         11   -1    0    0    0    0 -0.00000000000E+00 -0.00000000000E+00 -0.45593999997E+02  0.45594000000E+02  0.51100000000E-03 0. -1.
    9900012    2    1    2    0    0  0.28728353834E+02 -0.19299255200E+02  0.21339780718E+02  0.50528858269E+02  0.29999995193E+02 0.  0.
         12    1    1    2    0    0 -0.28728353834E+02  0.19299255200E+02 -0.21339780718E+02  0.40659141731E+02  0.00000000000E+00 0. -1.
         11    1    3    3    0    0 -0.85571607476E+00  0.36378049824E+01 -0.20191928537E+01  0.42477070440E+01  0.51100000000E-03 0. -1.
        -11    1    3    3    0    0  0.93918564503E+00 -0.34835570991E+01 -0.12307366355E+01  0.38120798347E+01  0.51100000000E-03 0.  1.
        -12    1    3    3    0    0  0.28644884263E+02 -0.19453503083E+02  0.24589710207E+02  0.42469071390E+02  0.00000000000E+00 0.  1.
</event>
<event>
 7    1  0.5642630E-013  0.5052886E+02  0.7816164E-02  0.1300439E+00
        -11   -1    0    0    0    0  0.00000000000E+00  0.00000000000E+00  0.45593999997E+02  0.45594000000E+02  0.51100000000E-03 0.  1.
         11   -1    0    0    0    0 -0.00000000000E+00 -0.00000000000E+00 -0.45593999997E+02  0.45594000000E+02  0.51100000000E-03 0. -1.
    9900012    2    1    2    0    0 -0.12341817605E+02 -0.27226399228E+02  0.27560261958E+02  0.50528864300E+02  0.30000013526E+02 0.  0.
         12    1    1    2    0    0  0.12341817605E+02  0.27226399228E+02 -0.27560261958E+02  0.40659135700E+02  0.00000000000E+00 0. -1.
         11    1    3    3    0    0  0.76854825197E+00  0.13983031554E+01 -0.23206639941E+00  0.16123812219E+01  0.51100000000E-03 0. -1.
        -11    1    3    3    0    0  0.94871571088E+00  0.23096290985E+00 -0.37733316282E+01  0.38976194277E+01  0.51100000000E-03 0.  1.
        -12    1    3    3    0    0 -0.14059081568E+02 -0.28855665293E+02  0.31565659985E+02  0.45018863650E+02  0.00000000000E+00 0.  1.
</event>
<event>
 7    1  0.5642630E-013  0.5052889E+02  0.7816164E-02  0.1300439E+00
        -11   -1    0    0    0    0  0.00000000000E+00  0.00000000000E+00  0.45593999997E+02  0.45594000000E+02  0.51100000000E-03 0.  1.
         11   -1    0    0    0    0 -0.00000000000E+00 -0.00000000000E+00 -0.45593999997E+02  0.45594000000E+02  0.51100000000E-03 0. -1.
    9900012    2    1    2    0    0 -0.28796971792E+02  0.19283412786E+02  0.21261403461E+02  0.50528894376E+02  0.30000104944E+02 0.  0.
         12    1    1    2    0    0  0.28796971792E+02 -0.19283412786E+02 -0.21261403461E+02  0.40659105624E+02  0.00000000000E+00 0. -1.
         11    1    3    3    0    0  0.32654238634E+01 -0.21913795088E+01  0.14611323492E+01  0.41952407753E+01  0.51100000000E-03 0. -1.
        -11    1    3    3    0    0 -0.17654866218E+02  0.73395549251E+01  0.17675923637E+02  0.26038464708E+02  0.51100000000E-03 0.  1.
         12    1    3    3    0    0 -0.14407529437E+02  0.14135237369E+02  0.21243474748E+01  0.20295188892E+02  0.00000000000E+00 0. -1.
</event>
<event>
 7    1  0.5642630E-013  0.5052887E+02  0.7816164E-02  0.1300439E+00
        -11   -1    0    0    0    0  0.00000000000E+00  0.00000000000E+00  0.45593999997E+02  0.45594000000E+02  0.51100000000E-03 0.  1.
         11   -1    0    0    0    0 -0.00000000000E+00 -0.00000000000E+00 -0.45593999997E+02  0.45594000000E+02  0.51100000000E-03 0. -1.
    9900012    2    1    2    0    0 -0.31382576802E+02 -0.68226009580E+00  0.25842465177E+02  0.50528872956E+02  0.30000039837E+02 0.  0.
         12    1    1    2    0    0  0.31382576802E+02  0.68226009580E+00 -0.25842465177E+02  0.40659127044E+02  0.00000000000E+00 0. -1.
         11    1    3    3    0    0 -0.43947397625E+01  0.67648747281E+01  0.54486190640E+01  0.97347171316E+01  0.51100000000E-03 0. -1.
        -11    1    3    3    0    0 -0.23811703753E+01  0.45303545745E+01  0.10522830527E+02  0.11701454931E+02  0.51100000000E-03 0.  1.
         12    1    3    3    0    0 -0.24606666664E+02 -0.11977489398E+02  0.98710155858E+01  0.29092700894E+02  0.00000000000E+00 0. -1.
</event>
<event>
 7    1  0.5642630E-013  0.5052886E+02  0.7816164E-02  0.1300439E+00
        -11   -1    0    0    0    0  0.00000000000E+00  0.00000000000E+00  0.45593999997E+02  0.45594000000E+02  0.51100000000E-03 0. -1.
         11   -1    0    0    0    0 -0.00000000000E+00 -0.00000000000E+00 -0.45593999997E+02  0.45594000000E+02  0.51100000000E-03 0.  1.
    9900012    2    1    2    0    0  0.10949761130E+02 -0.33243822206E+02  0.20690983269E+02  0.50528858687E+02  0.29999996465E+02 0.  0.
         12    1    1    2    0    0 -0.10949761130E+02  0.33243822206E+02 -0.20690983269E+02  0.40659141313E+02  0.00000000000E+00 0. -1.
         11    1    3    3    0    0  0.10977677033E+02 -0.15342210473E+02  0.91606486191E+01  0.20971654647E+02  0.51100000000E-03 0. -1.
        -11    1    3    3    0    0  0.84116146993E+01 -0.16203360784E+02  0.55732121408E+01  0.19088343469E+02  0.51100000000E-03 0.  1.
         12    1    3    3    0    0 -0.84395306028E+01 -0.16982509489E+01  0.59571225087E+01  0.10468860571E+02  0.00000000000E+00 0. -1.
</event>
<event>
 7    1  0.5642630E-013  0.5052886E+02  0.7816164E-02  0.1300439E+00
        -11   -1    0    0    0    0  0.00000000000E+00  0.00000000000E+00  0.45593999997E+02  0.45594000000E+02  0.51100000000E-03 0.  1.
         11   -1    0    0    0    0 -0.00000000000E+00 -0.00000000000E+00 -0.45593999997E+02  0.45594000000E+02  0.51100000000E-03 0. -1.
    9900012    2    1    2    0    0 -0.12714754646E+02 -0.62024994535E+01  0.38118626740E+02  0.50528859703E+02  0.29999999552E+02 0.  0.
         12    1    1    2    0    0  0.12714754646E+02  0.62024994535E+01 -0.38118626740E+02  0.40659140297E+02  0.00000000000E+00 0. -1.
         11    1    3    3    0    0 -0.70359698636E+01 -0.75420956734E+01  0.84621977952E+01  0.13341546794E+02  0.51100000000E-03 0. -1.
        -11    1    3    3    0    0  0.24340415917E+01  0.69623804579E+01  0.25379898439E+02  0.26429879779E+02  0.51100000000E-03 0.  1.
         12    1    3    3    0    0 -0.81128263741E+01 -0.56227842380E+01  0.42765305058E+01  0.10757433129E+02  0.00000000000E+00 0. -1.
</event>
<event>
 7    1  0.5642630E-013  0.5052885E+02  0.7816164E-02  0.1300439E+00
        -11   -1    0    0    0    0  0.00000000000E+00  0.00000000000E+00  0.45593999997E+02  0.45594000000E+02  0.51100000000E-03 0.  1.
         11   -1    0    0    0    0 -0.00000000000E+00 -0.00000000000E+00 -0.45593999997E+02  0.45594000000E+02  0.51100000000E-03 0. -1.
    9900012    2    1    2    0    0 -0.38041559610E+02  0.11528105581E+02 -0.85503911087E+01  0.50528847722E+02  0.29999963136E+02 0.  0.
         12    1    1    2    0    0  0.38041559610E+02 -0.11528105581E+02  0.85503911087E+01  0.40659152278E+02  0.00000000000E+00 0. -1.
         11    1    3    3    0    0 -0.13153035216E+02  0.10593308536E+01  0.67911942407E+01  0.14840648124E+02  0.51100000000E-03 0. -1.
        -11    1    3    3    0    0 -0.25721187653E+02  0.93651643342E+01 -0.84330040048E+01  0.28642649216E+02  0.51100000000E-03 0.  1.
         12    1    3    3    0    0  0.83266325887E+00  0.11036103927E+01 -0.69085813446E+01  0.70455503828E+01  0.00000000000E+00 0. -1.
</event>
<event>
 7    1  0.5642630E-013  0.5052887E+02  0.7816164E-02  0.1300439E+00
        -11   -1    0    0    0    0  0.00000000000E+00  0.00000000000E+00  0.45593999997E+02  0.45594000000E+02  0.51100000000E-03 0.  1.
         11   -1    0    0    0    0 -0.00000000000E+00 -0.00000000000E+00 -0.45593999997E+02  0.45594000000E+02  0.51100000000E-03 0. -1.
    9900012    2    1    2    0    0  0.33769283894E+02  0.87031833669E+00  0.22628367193E+02  0.50528868301E+02  0.30000025687E+02 0.  0.
         12    1    1    2    0    0 -0.33769283894E+02 -0.87031833669E+00 -0.22628367193E+02  0.40659131699E+02  0.00000000000E+00 0. -1.
         11    1    3    3    0    0  0.30823468527E+01  0.85998079460E+00  0.14162828745E+02  0.14519853560E+02  0.51100000000E-03 0. -1.
        -11    1    3    3    0    0  0.36908440885E+01 -0.73713371906E+00  0.81763561396E+01  0.90010275074E+01  0.51100000000E-03 0.  1.
        -12    1    3    3    0    0  0.26996092953E+02  0.74747126115E+00  0.28918230894E+00  0.27007987233E+02  0.00000000000E+00 0.  1.
</event>
<event>
 7    1  0.5642630E-013  0.5052887E+02  0.7816164E-02  0.1300439E+00
        -11   -1    0    0    0    0  0.00000000000E+00  0.00000000000E+00  0.45593999997E+02  0.45594000000E+02  0.51100000000E-03 0. -1.
         11   -1    0    0    0    0 -0.00000000000E+00 -0.00000000000E+00 -0.45593999997E+02  0.45594000000E+02  0.51100000000E-03 0.  1.
    9900012    2    1    2    0    0  0.34290857260E+02 -0.19191108056E+02 -0.10440470973E+02  0.50528868748E+02  0.30000027046E+02 0.  0.
         12    1    1    2    0    0 -0.34290857260E+02  0.19191108056E+02  0.10440470973E+02  0.40659131252E+02  0.00000000000E+00 0. -1.
         11    1    3    3    0    0  0.12181082332E+02 -0.21124812975E+01 -0.11503737050E+02  0.16887193680E+02  0.51100000000E-03 0. -1.
        -11    1    3    3    0    0  0.25958452487E+01  0.29779673756E+01 -0.35131940491E+01  0.52867035980E+01  0.51100000000E-03 0.  1.
         12    1    3    3    0    0  0.19513929679E+02 -0.20056594134E+02  0.45764601258E+01  0.28354971470E+02  0.00000000000E+00 0. -1.
</event>
<event>
 7    1  0.5642630E-013  0.5052886E+02  0.7816164E-02  0.1300439E+00
        -11   -1    0    0    0    0  0.00000000000E+00  0.00000000000E+00  0.45593999997E+02  0.45594000000E+02  0.51100000000E-03 0.  1.
         11   -1    0    0    0    0 -0.00000000000E+00 -0.00000000000E+00 -0.45593999997E+02  0.45594000000E+02  0.51100000000E-03 0. -1.
    9900012    2    1    2    0    0 -0.12264686499E+01 -0.65592008859E+01  0.40107834819E+02  0.50528858894E+02  0.29999997096E+02 0.  0.
         12    1    1    2    0    0  0.12264686499E+01  0.65592008859E+01 -0.40107834819E+02  0.40659141106E+02  0.00000000000E+00 0. -1.
         11    1    3    3    0    0 -0.10238450766E+02 -0.74379496982E+00  0.12403699605E+02  0.16100648099E+02  0.51100000000E-03 0. -1.
        -11    1    3    3    0    0 -0.47001148637E+01 -0.10065088967E+01  0.12522106120E+02  0.13412952018E+02  0.51100000000E-03 0.  1.
        -12    1    3    3    0    0  0.13712096979E+02 -0.48088970194E+01  0.15182029094E+02  0.21015258778E+02  0.00000000000E+00 0.  1.
</event>
<event>
 7    1  0.5642630E-013  0.5052888E+02  0.7816164E-02  0.1300439E+00
        -11   -1    0    0    0    0  0.00000000000E+00  0.00000000000E+00  0.45593999997E+02  0.45594000000E+02  0.51100000000E-03 0.  1.
         11   -1    0    0    0    0 -0.00000000000E+00 -0.00000000000E+00 -0.45593999997E+02  0.45594000000E+02  0.51100000000E-03 0. -1.
    9900012    2    1    2    0    0 -0.22693827702E+02  0.20099526404E+02  0.27095446865E+02  0.50528880257E+02  0.30000062031E+02 0.  0.
         12    1    1    2    0    0  0.22693827702E+02 -0.20099526404E+02 -0.27095446865E+02  0.40659119743E+02  0.00000000000E+00 0. -1.
         11    1    3    3    0    0 -0.71502371837E+01  0.21475414942E+01 -0.46153480752E+00  0.74800294714E+01  0.51100000000E-03 0. -1.
        -11    1    3    3    0    0 -0.13269809281E+02  0.27465516977E+01  0.26939669277E+01  0.13816252844E+02  0.51100000000E-03 0.  1.
         12    1    3    3    0    0 -0.22737812380E+01  0.15205433212E+02  0.24863014745E+02  0.29232597943E+02  0.00000000000E+00 0. -1.
</event>
<event>
 7    1  0.5642630E-013  0.5052885E+02  0.7816164E-02  0.1300439E+00
        -11   -1    0    0    0    0  0.00000000000E+00  0.00000000000E+00  0.45593999997E+02  0.45594000000E+02  0.51100000000E-03 0.  1.
         11   -1    0    0    0    0 -0.00000000000E+00 -0.00000000000E+00 -0.45593999997E+02  0.45594000000E+02  0.51100000000E-03 0. -1.
    9900012    2    1    2    0    0 -0.21378689945E+02 -0.50979700801E+01  0.34207140442E+02  0.50528854167E+02  0.29999982726E+02 0.  0.
         12    1    1    2    0    0  0.21378689945E+02  0.50979700801E+01 -0.34207140442E+02  0.40659145833E+02  0.00000000000E+00 0. -1.
         11    1    3    3    0    0 -0.88173258882E+00 -0.38675432669E+01  0.16826693208E+02  0.17287942268E+02  0.51100000000E-03 0. -1.
        -11    1    3    3    0    0  0.33053229256E+01 -0.25920890064E+01  0.10093247716E+01  0.43200488209E+01  0.51100000000E-03 0.  1.
        -12    1    3    3    0    0 -0.23802280281E+02  0.13616621932E+01  0.16371122462E+02  0.28920863078E+02  0.00000000000E+00 0.  1.
</event>
<event>
 7    1  0.5642630E-013  0.5052886E+02  0.7816164E-02  0.1300439E+00
        -11   -1    0    0    0    0  0.00000000000E+00  0.00000000000E+00  0.45593999997E+02  0.45594000000E+02  0.51100000000E-03 0.  1.
         11   -1    0    0    0    0 -0.00000000000E+00 -0.00000000000E+00 -0.45593999997E+02  0.45594000000E+02  0.51100000000E-03 0. -1.
    9900012    2    1    2    0    0 -0.28558939804E+01 -0.26767640955E+02  0.30471349347E+02  0.50528857562E+02  0.29999993045E+02 0.  0.
         12    1    1    2    0    0  0.28558939804E+01  0.26767640955E+02 -0.30471349347E+02  0.40659142438E+02  0.00000000000E+00 0. -1.
         11    1    3    3    0    0 -0.10667562176E+01  0.23164213064E+01  0.71435654576E+01  0.75851370591E+01  0.51100000000E-03 0. -1.
        -11    1    3    3    0    0 -0.77251548146E+00  0.18284080919E+01 -0.21104912116E+01  0.28972451976E+01  0.51100000000E-03 0.  1.
        -12    1    3    3    0    0 -0.10166222813E+01 -0.30912470354E+02  0.25438275101E+02  0.40046475305E+02  0.00000000000E+00 0.  1.
</event>
<event>
 7    1  0.5642630E-013  0.5052886E+02  0.7816164E-02  0.1300439E+00
        -11   -1    0    0    0    0  0.00000000000E+00  0.00000000000E+00  0.45593999997E+02  0.45594000000E+02  0.51100000000E-03 0. -1.
         11   -1    0    0    0    0 -0.00000000000E+00 -0.00000000000E+00 -0.45593999997E+02  0.45594000000E+02  0.51100000000E-03 0.  1.
    9900012    2    1    2    0    0 -0.18428477372E+02 -0.28076658478E+02 -0.22918518948E+02  0.50528855391E+02  0.29999986448E+02 0.  0.
         12    1    1    2    0    0  0.18428477372E+02  0.28076658478E+02  0.22918518948E+02  0.40659144609E+02  0.00000000000E+00 0. -1.
         11    1    3    3    0    0 -0.12644612622E+02 -0.93941117175E+01 -0.31049916419E+01  0.16055420788E+02  0.51100000000E-03 0. -1.
        -11    1    3    3    0    0 -0.12570480587E+02 -0.10472578159E+02 -0.69607050694E+01  0.17780418746E+02  0.51100000000E-03 0.  1.
        -12    1    3    3    0    0  0.67866158369E+01 -0.82099686021E+01 -0.12852822236E+02  0.16693015857E+02  0.00000000000E+00 0.  1.
</event>
<event>
 7    1  0.5642630E-013  0.5052886E+02  0.7816164E-02  0.1300439E+00
        -11   -1    0    0    0    0  0.00000000000E+00  0.00000000000E+00  0.45593999997E+02  0.45594000000E+02  0.51100000000E-03 0.  1.
         11   -1    0    0    0    0 -0.00000000000E+00 -0.00000000000E+00 -0.45593999997E+02  0.45594000000E+02  0.51100000000E-03 0. -1.
    9900012    2    1    2    0    0 -0.15349873715E+02  0.29753314236E+02  0.23071358014E+02  0.50528857219E+02  0.29999992002E+02 0.  0.
         12    1    1    2    0    0  0.15349873715E+02 -0.29753314236E+02 -0.23071358014E+02  0.40659142781E+02  0.00000000000E+00 0. -1.
         11    1    3    3    0    0 -0.52867652759E+01  0.21464140925E+01 -0.75274659840E+00  0.57553113070E+01  0.51100000000E-03 0.  1.
        -11    1    3    3    0    0  0.37064491571E+01  0.18972021109E+00 -0.23940419076E+01  0.44164687284E+01  0.51100000000E-03 0. -1.
        -12    1    3    3    0    0 -0.13769557596E+02  0.27417179932E+02  0.26218146520E+02  0.40357077183E+02  0.00000000000E+00 0.  1.
</event>
<event>
 7    1  0.5642630E-013  0.5052886E+02  0.7816164E-02  0.1300439E+00
        -11   -1    0    0    0    0  0.00000000000E+00  0.00000000000E+00  0.45593999997E+02  0.45594000000E+02  0.51100000000E-03 0.  1.
         11   -1    0    0    0    0 -0.00000000000E+00 -0.00000000000E+00 -0.45593999997E+02  0.45594000000E+02  0.51100000000E-03 0. -1.
    9900012    2    1    2    0    0  0.14815771101E+02  0.21714131357E+02  0.31018628372E+02  0.50528857363E+02  0.29999992442E+02 0.  0.
         12    1    1    2    0    0 -0.14815771101E+02 -0.21714131357E+02 -0.31018628372E+02  0.40659142637E+02  0.00000000000E+00 0. -1.
         11    1    3    3    0    0  0.97970025264E+01 -0.30905149317E+01  0.63890046106E+01  0.12097599812E+02  0.51100000000E-03 0. -1.
        -11    1    3    3    0    0  0.47656371838E+01  0.14548512788E+02  0.46972319031E+01  0.16013572678E+02  0.51100000000E-03 0.  1.
        -12    1    3    3    0    0  0.25313139035E+00  0.10256133501E+02  0.19932391858E+02  0.22417684873E+02  0.00000000000E+00 0.  1.
</event>
<event>
 7    1  0.5642630E-013  0.5052886E+02  0.7816164E-02  0.1300439E+00
        -11   -1    0    0    0    0  0.00000000000E+00  0.00000000000E+00  0.45593999997E+02  0.45594000000E+02  0.51100000000E-03 0.  1.
         11   -1    0    0    0    0 -0.00000000000E+00 -0.00000000000E+00 -0.45593999997E+02  0.45594000000E+02  0.51100000000E-03 0. -1.
    9900012    2    1    2    0    0 -0.17329559709E+02 -0.22565322381E+02  0.29045790182E+02  0.50528863989E+02  0.30000012580E+02 0.  0.
         12    1    1    2    0    0  0.17329559709E+02  0.22565322381E+02 -0.29045790182E+02  0.40659136011E+02  0.00000000000E+00 0. -1.
         11    1    3    3    0    0 -0.82832453036E+01 -0.97180226170E+01  0.23935103039E+02  0.27128237578E+02  0.51100000000E-03 0. -1.
        -11    1    3    3    0    0  0.74052329921E+00 -0.66272291859E+01  0.89717110555E+01  0.11178557195E+02  0.51100000000E-03 0.  1.
         12    1    3    3    0    0 -0.97868377050E+01 -0.62200705783E+01 -0.38610239122E+01  0.12222069216E+02  0.00000000000E+00 0. -1.
</event>
<event>
 7    1  0.5642630E-013  0.5052886E+02  0.7816164E-02  0.1300439E+00
        -11   -1    0    0    0    0  0.00000000000E+00  0.00000000000E+00  0.45593999997E+02  0.45594000000E+02  0.51100000000E-03 0.  1.
         11   -1    0    0    0    0 -0.00000000000E+00 -0.00000000000E+00 -0.45593999997E+02  0.45594000000E+02  0.51100000000E-03 0. -1.
    9900012    2    1    2    0    0 -0.18510717877E+02 -0.15003131571E+02  0.32945793266E+02  0.50528856782E+02  0.29999990675E+02 0.  0.
         12    1    1    2    0    0  0.18510717877E+02  0.15003131571E+02 -0.32945793266E+02  0.40659143218E+02  0.00000000000E+00 0. -1.
         11    1    3    3    0    0 -0.25771422241E+01  0.53210078495E+01  0.15734274058E+02  0.16808395729E+02  0.51100000000E-03 0. -1.
        -11    1    3    3    0    0 -0.45191443388E+01 -0.36616950011E+01  0.11245348764E+02  0.12660511243E+02  0.51100000000E-03 0.  1.
         12    1    3    3    0    0 -0.11414431314E+02 -0.16662444419E+02  0.59661704440E+01  0.21059949811E+02  0.00000000000E+00 0. -1.
</event>
<event>
 7    1  0.5642630E-013  0.5052887E+02  0.7816164E-02  0.1300439E+00
        -11   -1    0    0    0    0  0.00000000000E+00  0.00000000000E+00  0.45593999997E+02  0.45594000000E+02  0.51100000000E-03 0.  1.
         11   -1    0    0    0    0 -0.00000000000E+00 -0.00000000000E+00 -0.45593999997E+02  0.45594000000E+02  0.51100000000E-03 0. -1.
    9900012    2    1    2    0    0  0.33179670165E+02 -0.18487962815E+02  0.14507572931E+02  0.50528868754E+02  0.30000027064E+02 0.  0.
         12    1    1    2    0    0 -0.33179670165E+02  0.18487962815E+02 -0.14507572931E+02  0.40659131246E+02  0.00000000000E+00 0. -1.
         11    1    3    3    0    0  0.10492482066E+02 -0.11181311089E+02 -0.24818883300E+01  0.15532986433E+02  0.51100000000E-03 0. -1.
        -11    1    3    3    0    0 -0.19443508463E+00 -0.44327538023E+01  0.99331572194E+01  0.10879095729E+02  0.51100000000E-03 0.  1.
        -12    1    3    3    0    0  0.22881623184E+02 -0.28738979239E+01  0.70563040421E+01  0.24116786592E+02  0.00000000000E+00 0.  1.
</event>
<event>
 7    1  0.5642630E-013  0.5052886E+02  0.7816164E-02  0.1300439E+00
        -11   -1    0    0    0    0  0.00000000000E+00  0.00000000000E+00  0.45593999997E+02  0.45594000000E+02  0.51100000000E-03 0. -1.
         11   -1    0    0    0    0 -0.00000000000E+00 -0.00000000000E+00 -0.45593999997E+02  0.45594000000E+02  0.51100000000E-03 0.  1.
    9900012    2    1    2    0    0  0.24688382382E+02  0.29427214428E+02 -0.13329970375E+02  0.50528864694E+02  0.30000014724E+02 0.  0.
         12    1    1    2    0    0 -0.24688382382E+02 -0.29427214428E+02  0.13329970375E+02  0.40659135306E+02  0.00000000000E+00 0. -1.
         11    1    3    3    0    0  0.23459897634E+02  0.13948712105E+02 -0.18883152840E+02  0.33188956414E+02  0.51100000000E-03 0.  1.
        -11    1    3    3    0    0 -0.48955956853E+00 -0.20291606298E+00  0.61058013025E+00  0.80848738786E+00  0.51100000000E-03 0. -1.
         12    1    3    3    0    0  0.17180443161E+01  0.15681418386E+02  0.49426023352E+01  0.16531420892E+02  0.00000000000E+00 0. -1.
</event>
<event>
 7    1  0.5642630E-013  0.5052885E+02  0.7816164E-02  0.1300439E+00
        -11   -1    0    0    0    0  0.00000000000E+00  0.00000000000E+00  0.45593999997E+02  0.45594000000E+02  0.51100000000E-03 0. -1.
         11   -1    0    0    0    0 -0.00000000000E+00 -0.00000000000E+00 -0.45593999997E+02  0.45594000000E+02  0.51100000000E-03 0.  1.
    9900012    2    1    2    0    0  0.73427127908E+01  0.38207835704E+02 -0.11807294802E+02  0.50528851572E+02  0.29999974839E+02 0.  0.
         12    1    1    2    0    0 -0.73427127908E+01 -0.38207835704E+02  0.11807294802E+02  0.40659148428E+02  0.00000000000E+00 0. -1.
         11    1    3    3    0    0 -0.51818960744E+01 -0.26915462259E+01 -0.52353769844E+00  0.58626410426E+01  0.51100000000E-03 0. -1.
        -11    1    3    3    0    0 -0.94270181883E-01  0.67201012883E+01 -0.89758169992E+00  0.67804351897E+01  0.51100000000E-03 0.  1.
         12    1    3    3    0    0  0.12618879047E+02  0.34179280642E+02 -0.10386175403E+02  0.37885775340E+02  0.00000000000E+00 0. -1.
</event>
<event>
 7    1  0.5642630E-013  0.5052886E+02  0.7816164E-02  0.1300439E+00
        -11   -1    0    0    0    0  0.00000000000E+00  0.00000000000E+00  0.45593999997E+02  0.45594000000E+02  0.51100000000E-03 0.  1.
         11   -1    0    0    0    0 -0.00000000000E+00 -0.00000000000E+00 -0.45593999997E+02  0.45594000000E+02  0.51100000000E-03 0. -1.
    9900012    2    1    2    0    0 -0.26423579435E+02  0.30888164517E+02  0.93900954927E+00  0.50528855933E+02  0.29999988092E+02 0.  0.
         12    1    1    2    0    0  0.26423579435E+02 -0.30888164517E+02 -0.93900954927E+00  0.40659144067E+02  0.00000000000E+00 0. -1.
         11    1    3    3    0    0 -0.16027188051E+01  0.45009875460E+01 -0.78098480637E+00  0.48412326929E+01  0.51100000000E-03 0. -1.
        -11    1    3    3    0    0 -0.25363017657E+02  0.88439554888E+01 -0.41522020941E+01  0.27179753418E+02  0.51100000000E-03 0.  1.
        -12    1    3    3    0    0  0.54215702709E+00  0.17543221482E+02  0.58721964497E+01  0.18507869822E+02  0.00000000000E+00 0.  1.
</event>
<event>
 7    1  0.5642630E-013  0.5052886E+02  0.7816164E-02  0.1300439E+00
        -11   -1    0    0    0    0  0.00000000000E+00  0.00000000000E+00  0.45593999997E+02  0.45594000000E+02  0.51100000000E-03 0. -1.
         11   -1    0    0    0    0 -0.00000000000E+00 -0.00000000000E+00 -0.45593999997E+02  0.45594000000E+02  0.51100000000E-03 0.  1.
    9900012    2    1    2    0    0  0.14390628764E+01  0.18446160245E+02 -0.36205440184E+02  0.50528860453E+02  0.30000001834E+02 0.  0.
         12    1    1    2    0    0 -0.14390628764E+01 -0.18446160245E+02  0.36205440184E+02  0.40659139547E+02  0.00000000000E+00 0. -1.
         11    1    3    3    0    0 -0.18687463556E+01 -0.42212739344E+01 -0.68444084404E+00  0.46668861247E+01  0.51100000000E-03 0. -1.
        -11    1    3    3    0    0  0.67451926548E+01  0.11413675826E+02 -0.30131869401E+02  0.32919586474E+02  0.51100000000E-03 0.  1.
        -12    1    3    3    0    0 -0.34373834228E+01  0.11253758353E+02 -0.53891299398E+01  0.12942387854E+02  0.00000000000E+00 0.  1.
</event>
<event>
 7    1  0.5642630E-013  0.5052886E+02  0.7816164E-02  0.1300439E+00
        -11   -1    0    0    0    0  0.00000000000E+00  0.00000000000E+00  0.45593999997E+02  0.45594000000E+02  0.51100000000E-03 0.  1.
         11   -1    0    0    0    0 -0.00000000000E+00 -0.00000000000E+00 -0.45593999997E+02  0.45594000000E+02  0.51100000000E-03 0. -1.
    9900012    2    1    2    0    0 -0.74236221076E+01 -0.21083011855E+02  0.33964134329E+02  0.50528856197E+02  0.29999988897E+02 0.  0.
         12    1    1    2    0    0  0.74236221076E+01  0.21083011855E+02 -0.33964134329E+02  0.40659143803E+02  0.00000000000E+00 0. -1.
         11    1    3    3    0    0  0.52616655262E+01  0.90609687267E+00  0.58368274788E+01  0.79104166092E+01  0.51100000000E-03 0. -1.
        -11    1    3    3    0    0  0.30817440294E+01 -0.44613686968E+00  0.96798357151E+01  0.10168353067E+02  0.51100000000E-03 0.  1.
        -12    1    3    3    0    0 -0.15767031663E+02 -0.21542971858E+02  0.18447471135E+02  0.32450086521E+02  0.00000000000E+00 0.  1.
</event>
<event>
 7    1  0.5642630E-013  0.5052887E+02  0.7816164E-02  0.1300439E+00
        -11   -1    0    0    0    0  0.00000000000E+00  0.00000000000E+00  0.45593999997E+02  0.45594000000E+02  0.51100000000E-03 0.  1.
         11   -1    0    0    0    0 -0.00000000000E+00 -0.00000000000E+00 -0.45593999997E+02  0.45594000000E+02  0.51100000000E-03 0. -1.
    9900012    2    1    2    0    0 -0.19670011054E+02  0.10765272941E+02  0.33917027516E+02  0.50528865824E+02  0.30000018160E+02 0.  0.
         12    1    1    2    0    0  0.19670011054E+02 -0.10765272941E+02 -0.33917027516E+02  0.40659134176E+02  0.00000000000E+00 0. -1.
         11    1    3    3    0    0 -0.17572372769E+02 -0.54950648819E+01  0.19363704201E+02  0.26719600735E+02  0.51100000000E-03 0.  1.
        -11    1    3    3    0    0  0.26931065495E+00 -0.26600043588E+00 -0.95211480904E+00  0.10246010597E+01  0.51100000000E-03 0. -1.
        -12    1    3    3    0    0 -0.23669489399E+01  0.16526338258E+02  0.15505438124E+02  0.22784664029E+02  0.00000000000E+00 0.  1.
</event>
<event>
 7    1  0.5642630E-013  0.5052886E+02  0.7816164E-02  0.1300439E+00
        -11   -1    0    0    0    0  0.00000000000E+00  0.00000000000E+00  0.45593999997E+02  0.45594000000E+02  0.51100000000E-03 0.  1.
         11   -1    0    0    0    0 -0.00000000000E+00 -0.00000000000E+00 -0.45593999997E+02  0.45594000000E+02  0.51100000000E-03 0. -1.
    9900012    2    1    2    0    0  0.20995569116E+02  0.28192511199E+02  0.20433654628E+02  0.50528857711E+02  0.29999993498E+02 0.  0.
         12    1    1    2    0    0 -0.20995569116E+02 -0.28192511199E+02 -0.20433654628E+02  0.40659142289E+02  0.00000000000E+00 0. -1.
         11    1    3    3    0    0  0.18380084718E+02  0.78762459418E+01  0.39546136004E+01  0.20383859629E+02  0.51100000000E-03 0.  1.
        -11    1    3    3    0    0  0.76816754746E+01  0.12814825276E+02  0.55127833357E+01  0.15925409424E+02  0.51100000000E-03 0. -1.
         12    1    3    3    0    0 -0.50661910769E+01  0.75014399814E+01  0.10966257692E+02  0.14219588658E+02  0.00000000000E+00 0. -1.
</event>
<event>
 7    1  0.5642630E-013  0.5052886E+02  0.7816164E-02  0.1300439E+00
        -11   -1    0    0    0    0  0.00000000000E+00  0.00000000000E+00  0.45593999997E+02  0.45594000000E+02  0.51100000000E-03 0.  1.
         11   -1    0    0    0    0 -0.00000000000E+00 -0.00000000000E+00 -0.45593999997E+02  0.45594000000E+02  0.51100000000E-03 0. -1.
    9900012    2    1    2    0    0  0.25196838612E+02  0.15025546371E+02  0.28151700007E+02  0.50528856710E+02  0.29999990455E+02 0.  0.
         12    1    1    2    0    0 -0.25196838612E+02 -0.15025546371E+02 -0.28151700007E+02  0.40659143290E+02  0.00000000000E+00 0. -1.
         11    1    3    3    0    0  0.18598567473E+02  0.56200681728E+01  0.47355397052E+01  0.19997930265E+02  0.51100000000E-03 0. -1.
        -11    1    3    3    0    0  0.26010572798E+01  0.46144988321E+00 -0.19861341552E+01  0.33050210455E+01  0.51100000000E-03 0.  1.
        -12    1    3    3    0    0  0.39972138597E+01  0.89440283150E+01  0.25402294457E+02  0.27225905400E+02  0.00000000000E+00 0.  1.
</event>
<event>
 7    1  0.5642630E-013  0.5052886E+02  0.7816164E-02  0.1300439E+00
        -11   -1    0    0    0    0  0.00000000000E+00  0.00000000000E+00  0.45593999997E+02  0.45594000000E+02  0.51100000000E-03 0. -1.
         11   -1    0    0    0    0 -0.00000000000E+00 -0.00000000000E+00 -0.45593999997E+02  0.45594000000E+02  0.51100000000E-03 0.  1.
    9900012    2    1    2    0    0  0.26977963715E+02  0.19088516145E+02 -0.23685088395E+02  0.50528863424E+02  0.30000010864E+02 0.  0.
         12    1    1    2    0    0 -0.26977963715E+02 -0.19088516145E+02  0.23685088395E+02  0.40659136576E+02  0.00000000000E+00 0. -1.
         11    1    3    3    0    0 -0.27952052456E+01  0.77665484825E+01 -0.79171503933E+00  0.82921203960E+01  0.51100000000E-03 0. -1.
        -11    1    3    3    0    0 -0.95698644129E+00 -0.10644894265E+01  0.66918888202E+00  0.15801186059E+01  0.51100000000E-03 0.  1.
        -12    1    3    3    0    0  0.30730155401E+02  0.12386457089E+02 -0.23562562237E+02  0.40656624422E+02  0.00000000000E+00 0.  1.
</event>
<event>
 7    1  0.5642630E-013  0.5052886E+02  0.7816164E-02  0.1300439E+00
        -11   -1    0    0    0    0  0.00000000000E+00  0.00000000000E+00  0.45593999997E+02  0.45594000000E+02  0.51100000000E-03 0.  1.
         11   -1    0    0    0    0 -0.00000000000E+00 -0.00000000000E+00 -0.45593999997E+02  0.45594000000E+02  0.51100000000E-03 0. -1.
    9900012    2    1    2    0    0  0.10987255841E+02 -0.37989220831E+02  0.94479932769E+01  0.50528864898E+02  0.30000015344E+02 0.  0.
         12    1    1    2    0    0 -0.10987255841E+02  0.37989220831E+02 -0.94479932769E+01  0.40659135102E+02  0.00000000000E+00 0. -1.
         11    1    3    3    0    0  0.86321899308E+01 -0.10016453376E+02 -0.32614574739E+01  0.13619146315E+02  0.51100000000E-03 0. -1.
        -11    1    3    3    0    0  0.10944008474E+02 -0.17493244787E+02  0.10596684483E+02  0.23196436299E+02  0.51100000000E-03 0.  1.
        -12    1    3    3    0    0 -0.85889425638E+01 -0.10479522668E+02  0.21127662683E+01  0.13713282284E+02  0.00000000000E+00 0.  1.
</event>
<event>
 7    1  0.5642630E-013  0.5052887E+02  0.7816164E-02  0.1300439E+00
        -11   -1    0    0    0    0  0.00000000000E+00  0.00000000000E+00  0.45593999997E+02  0.45594000000E+02  0.51100000000E-03 0. -1.
         11   -1    0    0    0    0 -0.00000000000E+00 -0.00000000000E+00 -0.45593999997E+02  0.45594000000E+02  0.51100000000E-03 0.  1.
    9900012    2    1    2    0    0 -0.29436303386E+02 -0.21636715540E+02  0.17847170351E+02  0.50528869341E+02  0.30000028848E+02 0.  0.
         12    1    1    2    0    0  0.29436303386E+02  0.21636715540E+02 -0.17847170351E+02  0.40659130659E+02  0.00000000000E+00 0. -1.
         11    1    3    3    0    0 -0.18403390414E+01  0.38383643282E+01  0.62515302628E+01  0.75631686079E+01  0.51100000000E-03 0. -1.
        -11    1    3    3    0    0 -0.17657572964E+02 -0.10226942307E+02  0.13796990913E+02  0.24632035857E+02  0.51100000000E-03 0.  1.
         12    1    3    3    0    0 -0.99383913814E+01 -0.15248137561E+02 -0.22013508255E+01  0.18333664876E+02  0.00000000000E+00 0. -1.
</event>
<event>
 7    1  0.5642630E-013  0.5052886E+02  0.7816164E-02  0.1300439E+00
        -11   -1    0    0    0    0  0.00000000000E+00  0.00000000000E+00  0.45593999997E+02  0.45594000000E+02  0.51100000000E-03 0.  1.
         11   -1    0    0    0    0 -0.00000000000E+00 -0.00000000000E+00 -0.45593999997E+02  0.45594000000E+02  0.51100000000E-03 0. -1.
    9900012    2    1    2    0    0 -0.33057674125E+02  0.21904023524E+02  0.89760793354E+01  0.50528855084E+02  0.29999985512E+02 0.  0.
         12    1    1    2    0    0  0.33057674125E+02 -0.21904023524E+02 -0.89760793354E+01  0.40659144916E+02  0.00000000000E+00 0. -1.
         11    1    3    3    0    0 -0.56741540029E+01  0.71276835635E+01 -0.50317024598E+01  0.10407589852E+02  0.51100000000E-03 0. -1.
        -11    1    3    3    0    0  0.10007083543E+01  0.56331675605E+01 -0.22606722233E+01  0.61517991789E+01  0.51100000000E-03 0.  1.
        -12    1    3    3    0    0 -0.28384228476E+02  0.91431724000E+01  0.16268454019E+02  0.33969466052E+02  0.00000000000E+00 0.  1.
</event>
<event>
 7    1  0.5642630E-013  0.5052886E+02  0.7816164E-02  0.1300439E+00
        -11   -1    0    0    0    0  0.00000000000E+00  0.00000000000E+00  0.45593999997E+02  0.45594000000E+02  0.51100000000E-03 0.  1.
         11   -1    0    0    0    0 -0.00000000000E+00 -0.00000000000E+00 -0.45593999997E+02  0.45594000000E+02  0.51100000000E-03 0. -1.
    9900012    2    1    2    0    0 -0.19252263747E+02  0.10991024222E+02  0.34083913531E+02  0.50528862842E+02  0.30000009095E+02 0.  0.
         12    1    1    2    0    0  0.19252263747E+02 -0.10991024222E+02 -0.34083913531E+02  0.40659137158E+02  0.00000000000E+00 0. -1.
         11    1    3    3    0    0 -0.33427651738E+01 -0.75257395025E+01  0.13825140826E+02  0.16091779056E+02  0.51100000000E-03 0. -1.
        -11    1    3    3    0    0 -0.70133379690E+01  0.42248100862E-01  0.75899231871E+01  0.10334197048E+02  0.51100000000E-03 0.  1.
        -12    1    3    3    0    0 -0.88961606045E+01  0.18474515624E+02  0.12668849518E+02  0.24102886739E+02  0.00000000000E+00 0.  1.
</event>
<event>
 7    1  0.5642630E-013  0.5052886E+02  0.7816164E-02  0.1300439E+00
        -11   -1    0    0    0    0  0.00000000000E+00  0.00000000000E+00  0.45593999997E+02  0.45594000000E+02  0.51100000000E-03 0.  1.
         11   -1    0    0    0    0 -0.00000000000E+00 -0.00000000000E+00 -0.45593999997E+02  0.45594000000E+02  0.51100000000E-03 0. -1.
    9900012    2    1    2    0    0  0.47502634381E+01  0.29580684439E+02  0.27487878688E+02  0.50528863642E+02  0.30000011526E+02 0.  0.
         12    1    1    2    0    0 -0.47502634381E+01 -0.29580684439E+02 -0.27487878688E+02  0.40659136358E+02  0.00000000000E+00 0. -1.
         11    1    3    3    0    0  0.62253169324E+01  0.11394400618E+02  0.49141479475E+01  0.13882931487E+02  0.51100000000E-03 0. -1.
        -11    1    3    3    0    0 -0.66778185255E+00  0.13326621370E+02 -0.20064976859E+00  0.13344850330E+02  0.51100000000E-03 0.  1.
         12    1    3    3    0    0 -0.80727164172E+00  0.48596624510E+01  0.22774380509E+02  0.23301081825E+02  0.00000000000E+00 0. -1.
</event>
<event>
 7    1  0.5642630E-013  0.5052888E+02  0.7816164E-02  0.1300439E+00
        -11   -1    0    0    0    0  0.00000000000E+00  0.00000000000E+00  0.45593999997E+02  0.45594000000E+02  0.51100000000E-03 0. -1.
         11   -1    0    0    0    0 -0.00000000000E+00 -0.00000000000E+00 -0.45593999997E+02  0.45594000000E+02  0.51100000000E-03 0.  1.
    9900012    2    1    2    0    0  0.83536620237E+01 -0.19253100488E+02 -0.34823822864E+02  0.50528878188E+02  0.30000055741E+02 0.  0.
         12    1    1    2    0    0 -0.83536620237E+01  0.19253100488E+02  0.34823822864E+02  0.40659121812E+02  0.00000000000E+00 0. -1.
         11    1    3    3    0    0  0.38494863140E+00 -0.78912075304E+01 -0.14833351111E+01  0.80386332824E+01  0.51100000000E-03 0. -1.
        -11    1    3    3    0    0  0.96466880703E+00 -0.42622864245E+01  0.26720729368E+01  0.51222695666E+01  0.51100000000E-03 0.  1.
        -12    1    3    3    0    0  0.70040445853E+01 -0.70996065334E+01 -0.36012560690E+02  0.37367975339E+02  0.00000000000E+00 0.  1.
</event>
<event>
 7    1  0.5642630E-013  0.5052886E+02  0.7816164E-02  0.1300439E+00
        -11   -1    0    0    0    0  0.00000000000E+00  0.00000000000E+00  0.45593999997E+02  0.45594000000E+02  0.51100000000E-03 0. -1.
         11   -1    0    0    0    0 -0.00000000000E+00 -0.00000000000E+00 -0.45593999997E+02  0.45594000000E+02  0.51100000000E-03 0.  1.
    9900012    2    1    2    0    0 -0.80881735271E+01  0.23656204677E+02 -0.32064485017E+02  0.50528858713E+02  0.29999996545E+02 0.  0.
         12    1    1    2    0    0  0.80881735271E+01 -0.23656204677E+02  0.32064485017E+02  0.40659141287E+02  0.00000000000E+00 0. -1.
         11    1    3    3    0    0 -0.14734204258E+02  0.20268164771E+02 -0.31540117798E+02  0.40282431770E+02  0.51100000000E-03 0. -1.
        -11    1    3    3    0    0 -0.81869323913E+00  0.19147724514E+01 -0.15125642908E+01  0.25738032472E+01  0.51100000000E-03 0.  1.
        -12    1    3    3    0    0  0.74647239696E+01  0.14732674543E+01  0.98819707137E+00  0.76726236964E+01  0.00000000000E+00 0.  1.
</event>
<event>
 7    1  0.5642630E-013  0.5052885E+02  0.7816164E-02  0.1300439E+00
        -11   -1    0    0    0    0  0.00000000000E+00  0.00000000000E+00  0.45593999997E+02  0.45594000000E+02  0.51100000000E-03 0.  1.
         11   -1    0    0    0    0 -0.00000000000E+00 -0.00000000000E+00 -0.45593999997E+02  0.45594000000E+02  0.51100000000E-03 0. -1.
    9900012    2    1    2    0    0  0.31737212731E+02  0.20092344019E+02  0.15563209770E+02  0.50528850249E+02  0.29999970818E+02 0.  0.
         12    1    1    2    0    0 -0.31737212731E+02 -0.20092344019E+02 -0.15563209770E+02  0.40659149751E+02  0.00000000000E+00 0. -1.
         11    1    3    3    0    0  0.14182565355E+02  0.94570894330E+01 -0.24502527215E+01  0.17221656112E+02  0.51100000000E-03 0.  1.
        -11    1    3    3    0    0  0.40469775797E+01  0.11652984144E+01 -0.39934214613E+01  0.58037369990E+01  0.51100000000E-03 0. -1.
         12    1    3    3    0    0  0.13507669796E+02  0.94699561712E+01  0.22006883953E+02  0.27503457138E+02  0.00000000000E+00 0. -1.
</event>
<event>
 7    1  0.5642630E-013  0.5052886E+02  0.7816164E-02  0.1300439E+00
        -11   -1    0    0    0    0  0.00000000000E+00  0.00000000000E+00  0.45593999997E+02  0.45594000000E+02  0.51100000000E-03 0.  1.
         11   -1    0    0    0    0 -0.00000000000E+00 -0.00000000000E+00 -0.45593999997E+02  0.45594000000E+02  0.51100000000E-03 0. -1.
    9900012    2    1    2    0    0  0.32361627861E+01 -0.39673107371E+02  0.82908075014E+01  0.50528859735E+02  0.29999999652E+02 0.  0.
         12    1    1    2    0    0 -0.32361627861E+01  0.39673107371E+02 -0.82908075014E+01  0.40659140265E+02  0.00000000000E+00 0. -1.
         11    1    3    3    0    0 -0.54908996837E+01 -0.22439179122E+02  0.40766950971E+01  0.23458179431E+02  0.51100000000E-03 0. -1.
        -11    1    3    3    0    0  0.16903561899E+01 -0.17580536113E+02 -0.18721764108E+01  0.17760563022E+02  0.51100000000E-03 0.  1.
        -12    1    3    3    0    0  0.70367062799E+01  0.34660786481E+00  0.60862888151E+01  0.93101172830E+01  0.00000000000E+00 0.  1.
</event>
<event>
 7    1  0.5642630E-013  0.5052885E+02  0.7816164E-02  0.1300439E+00
        -11   -1    0    0    0    0  0.00000000000E+00  0.00000000000E+00  0.45593999997E+02  0.45594000000E+02  0.51100000000E-03 0.  1.
         11   -1    0    0    0    0 -0.00000000000E+00 -0.00000000000E+00 -0.45593999997E+02  0.45594000000E+02  0.51100000000E-03 0. -1.
    9900012    2    1    2    0    0 -0.12963894599E+02 -0.19332106411E+01  0.38488521225E+02  0.50528854256E+02  0.29999982995E+02 0.  0.
         12    1    1    2    0    0  0.12963894599E+02  0.19332106411E+01 -0.38488521225E+02  0.40659145744E+02  0.00000000000E+00 0. -1.
         11    1    3    3    0    0 -0.10149097023E+02  0.37057601310E+01  0.15944681079E+02  0.19260573291E+02  0.51100000000E-03 0. -1.
        -11    1    3    3    0    0 -0.24183009854E+01  0.63753634270E+01  0.16415653790E+02  0.17775464216E+02  0.51100000000E-03 0.  1.
         12    1    3    3    0    0 -0.39649659067E+00 -0.12014334199E+02  0.61281863567E+01  0.13492816749E+02  0.00000000000E+00 0. -1.
</event>
<event>
 7    1  0.5642630E-013  0.5052886E+02  0.7816164E-02  0.1300439E+00
        -11   -1    0    0    0    0  0.00000000000E+00  0.00000000000E+00  0.45593999997E+02  0.45594000000E+02  0.51100000000E-03 0.  1.
         11   -1    0    0    0    0 -0.00000000000E+00 -0.00000000000E+00 -0.45593999997E+02  0.45594000000E+02  0.51100000000E-03 0. -1.
    9900012    2    1    2    0    0  0.14693759190E+02 -0.37498197569E+02  0.55807079603E+01  0.50528859805E+02  0.29999999863E+02 0.  0.
         12    1    1    2    0    0 -0.14693759190E+02  0.37498197569E+02 -0.55807079603E+01  0.40659140195E+02  0.00000000000E+00 0. -1.
         11    1    3    3    0    0  0.11944616386E+02 -0.92295260913E+01 -0.77251219547E+01  0.16956872411E+02  0.51100000000E-03 0.  1.
        -11    1    3    3    0    0  0.24634818551E+00 -0.56245399882E+01 -0.21667988950E+01  0.60325082031E+01  0.51100000000E-03 0. -1.
         12    1    3    3    0    0  0.25027946178E+01 -0.22644131490E+02  0.15472628810E+02  0.27539479191E+02  0.00000000000E+00 0. -1.
</event>
<event>
 7    1  0.5642630E-013  0.5052886E+02  0.7816164E-02  0.1300439E+00
        -11   -1    0    0    0    0  0.00000000000E+00  0.00000000000E+00  0.45593999997E+02  0.45594000000E+02  0.51100000000E-03 0. -1.
         11   -1    0    0    0    0 -0.00000000000E+00 -0.00000000000E+00 -0.45593999997E+02  0.45594000000E+02  0.51100000000E-03 0.  1.
    9900012    2    1    2    0    0  0.13370392540E+02  0.11165047999E+02 -0.36738806742E+02  0.50528860630E+02  0.30000002370E+02 0.  0.
         12    1    1    2    0    0 -0.13370392540E+02 -0.11165047999E+02  0.36738806742E+02  0.40659139370E+02  0.00000000000E+00 0. -1.
         11    1    3    3    0    0 -0.10294353074E+01 -0.44234595937E+01 -0.70002172759E+01  0.83444456976E+01  0.51100000000E-03 0. -1.
        -11    1    3    3    0    0  0.13457092609E+01  0.10126119449E+01 -0.20459573651E+02  0.20528771776E+02  0.51100000000E-03 0.  1.
        -12    1    3    3    0    0  0.13054118587E+02  0.14575895648E+02 -0.92790158152E+01  0.21655643156E+02  0.00000000000E+00 0.  1.
</event>
<event>
 7    1  0.5642630E-013  0.5052886E+02  0.7816164E-02  0.1300439E+00
        -11   -1    0    0    0    0  0.00000000000E+00  0.00000000000E+00  0.45593999997E+02  0.45594000000E+02  0.51100000000E-03 0.  1.
         11   -1    0    0    0    0 -0.00000000000E+00 -0.00000000000E+00 -0.45593999997E+02  0.45594000000E+02  0.51100000000E-03 0. -1.
    9900012    2    1    2    0    0 -0.28622270640E+02 -0.18524463454E+02  0.22153459368E+02  0.50528857304E+02  0.29999992260E+02 0.  0.
         12    1    1    2    0    0  0.28622270640E+02  0.18524463454E+02 -0.22153459368E+02  0.40659142696E+02  0.00000000000E+00 0. -1.
         11    1    3    3    0    0  0.13075668845E+01 -0.23248704128E+01  0.49269737341E+01  0.56026622271E+01  0.51100000000E-03 0. -1.
        -11    1    3    3    0    0 -0.11296437895E+02 -0.57880198280E+01  0.19703588453E+02  0.23438047718E+02  0.51100000000E-03 0.  1.
         12    1    3    3    0    0 -0.18633399629E+02 -0.10411573213E+02 -0.24771028194E+01  0.21488147358E+02  0.00000000000E+00 0. -1.
</event>
<event>
 7    1  0.5642630E-013  0.5052887E+02  0.7816164E-02  0.1300439E+00
        -11   -1    0    0    0    0  0.00000000000E+00  0.00000000000E+00  0.45593999997E+02  0.45594000000E+02  0.51100000000E-03 0.  1.
         11   -1    0    0    0    0 -0.00000000000E+00 -0.00000000000E+00 -0.45593999997E+02  0.45594000000E+02  0.51100000000E-03 0. -1.
    9900012    2    1    2    0    0  0.39176549697E+02 -0.84487758418E+01  0.68542900311E+01  0.50528866325E+02  0.30000019681E+02 0.  0.
         12    1    1    2    0    0 -0.39176549697E+02  0.84487758418E+01 -0.68542900311E+01  0.40659133675E+02  0.00000000000E+00 0. -1.
         11    1    3    3    0    0  0.62898840324E+01 -0.93576031063E+01 -0.11563728452E+01  0.11334221431E+02  0.51100000000E-03 0. -1.
        -11    1    3    3    0    0  0.83915598655E-01  0.50734159025E+01 -0.35575008587E+00  0.50865655537E+01  0.51100000000E-03 0.  1.
        -12    1    3    3    0    0  0.32802750066E+02 -0.41645886379E+01  0.83664129623E+01  0.34108079340E+02  0.00000000000E+00 0.  1.
</event>
<event>
 7    1  0.5642630E-013  0.5052887E+02  0.7816164E-02  0.1300439E+00
        -11   -1    0    0    0    0  0.00000000000E+00  0.00000000000E+00  0.45593999997E+02  0.45594000000E+02  0.51100000000E-03 0. -1.
         11   -1    0    0    0    0 -0.00000000000E+00 -0.00000000000E+00 -0.45593999997E+02  0.45594000000E+02  0.51100000000E-03 0.  1.
    9900012    2    1    2    0    0 -0.35332768652E+02  0.16368162747E+02 -0.11698009627E+02  0.50528871608E+02  0.30000035741E+02 0.  0.
         12    1    1    2    0    0  0.35332768652E+02 -0.16368162747E+02  0.11698009627E+02  0.40659128392E+02  0.00000000000E+00 0. -1.
         11    1    3    3    0    0 -0.68325458765E+01  0.69152245639E+01  0.10984371156E+01  0.97831783323E+01  0.51100000000E-03 0.  1.
        -11    1    3    3    0    0 -0.13987300349E+02  0.86480658770E+01  0.55346114612E+01  0.17351240265E+02  0.51100000000E-03 0. -1.
        -12    1    3    3    0    0 -0.14512922427E+02  0.80487230643E+00 -0.18331058204E+02  0.23394453011E+02  0.00000000000E+00 0.  1.
</event>
<event>
 7    1  0.5642630E-013  0.5052885E+02  0.7816164E-02  0.1300439E+00
        -11   -1    0    0    0    0  0.00000000000E+00  0.00000000000E+00  0.45593999997E+02  0.45594000000E+02  0.51100000000E-03 0. -1.
         11   -1    0    0    0    0 -0.00000000000E+00 -0.00000000000E+00 -0.45593999997E+02  0.45594000000E+02  0.51100000000E-03 0.  1.
    9900012    2    1    2    0    0 -0.21997914973E+02  0.33409399365E+02 -0.72849056048E+01  0.50528854918E+02  0.29999985010E+02 0.  0.
         12    1    1    2    0    0  0.21997914973E+02 -0.33409399365E+02  0.72849056048E+01  0.40659145082E+02  0.00000000000E+00 0. -1.
         11    1    3    3    0    0 -0.79322424152E+01  0.98476430106E+01  0.58789429084E+01  0.13944838206E+02  0.51100000000E-03 0. -1.
        -11    1    3    3    0    0 -0.15275805285E+02  0.20101773634E+02 -0.25746462889E+01  0.25378343802E+02  0.51100000000E-03 0.  1.
         12    1    3    3    0    0  0.12101327273E+01  0.34599827206E+01 -0.10589202224E+02  0.11205672911E+02  0.00000000000E+00 0. -1.
</event>
<event>
 7    1  0.5642630E-013  0.5052886E+02  0.7816164E-02  0.1300439E+00
        -11   -1    0    0    0    0  0.00000000000E+00  0.00000000000E+00  0.45593999997E+02  0.45594000000E+02  0.51100000000E-03 0. -1.
         11   -1    0    0    0    0 -0.00000000000E+00 -0.00000000000E+00 -0.45593999997E+02  0.45594000000E+02  0.51100000000E-03 0.  1.
    9900012    2    1    2    0    0  0.36866440788E+02 -0.95489615324E+01 -0.14242496913E+02  0.50528857842E+02  0.29999993897E+02 0.  0.
         12    1    1    2    0    0 -0.36866440788E+02  0.95489615324E+01  0.14242496913E+02  0.40659142158E+02  0.00000000000E+00 0. -1.
         11    1    3    3    0    0 -0.24868097369E+01 -0.74321867121E+00 -0.29273102914E+01  0.39122554190E+01  0.51100000000E-03 0. -1.
        -11    1    3    3    0    0  0.25052174854E+02  0.47263304184E+01 -0.73536673127E+01  0.26533489920E+02  0.51100000000E-03 0.  1.
         12    1    3    3    0    0  0.14301075671E+02 -0.13532073280E+02 -0.39615193090E+01  0.20083112503E+02  0.00000000000E+00 0. -1.
</event>
<event>
 7    1  0.5642630E-013  0.5052882E+02  0.7816164E-02  0.1300439E+00
        -11   -1    0    0    0    0  0.00000000000E+00  0.00000000000E+00  0.45593999997E+02  0.45594000000E+02  0.51100000000E-03 0. -1.
         11   -1    0    0    0    0 -0.00000000000E+00 -0.00000000000E+00 -0.45593999997E+02  0.45594000000E+02  0.51100000000E-03 0.  1.
    9900012    2    1    2    0    0  0.44682241826E+01  0.40316601083E+02 -0.27884669521E+01  0.50528820247E+02  0.29999879623E+02 0.  0.
         12    1    1    2    0    0 -0.44682241826E+01 -0.40316601083E+02  0.27884669521E+01  0.40659179753E+02  0.00000000000E+00 0. -1.
         11    1    3    3    0    0  0.88743305446E+01  0.13495928858E+02  0.47433419955E+01  0.16834284419E+02  0.51100000000E-03 0. -1.
        -11    1    3    3    0    0 -0.19554362250E+01  0.29222493080E+02 -0.76168016929E+01  0.30262080248E+02  0.51100000000E-03 0.  1.
         12    1    3    3    0    0 -0.24506701370E+01 -0.24018208553E+01  0.84992745256E-01  0.34324555800E+01  0.00000000000E+00 0. -1.
</event>
<event>
 7    1  0.5642630E-013  0.5052886E+02  0.7816164E-02  0.1300439E+00
        -11   -1    0    0    0    0  0.00000000000E+00  0.00000000000E+00  0.45593999997E+02  0.45594000000E+02  0.51100000000E-03 0. -1.
         11   -1    0    0    0    0 -0.00000000000E+00 -0.00000000000E+00 -0.45593999997E+02  0.45594000000E+02  0.51100000000E-03 0.  1.
    9900012    2    1    2    0    0 -0.23923584741E+02 -0.28886554996E+02 -0.15696959531E+02  0.50528861975E+02  0.30000006460E+02 0.  0.
         12    1    1    2    0    0  0.23923584741E+02  0.28886554996E+02  0.15696959531E+02  0.40659138025E+02  0.00000000000E+00 0. -1.
         11    1    3    3    0    0 -0.86563057566E+01 -0.19503329478E+01 -0.27218638806E+01  0.92813776567E+01  0.51100000000E-03 0. -1.
        -11    1    3    3    0    0 -0.18535469310E+02 -0.17425514797E+02 -0.16801295047E+02  0.30487631984E+02  0.51100000000E-03 0.  1.
         12    1    3    3    0    0  0.32681903263E+01 -0.95107072517E+01  0.38261993968E+01  0.10759852334E+02  0.00000000000E+00 0. -1.
</event>
<event>
 7    1  0.5642630E-013  0.5052885E+02  0.7816164E-02  0.1300439E+00
        -11   -1    0    0    0    0  0.00000000000E+00  0.00000000000E+00  0.45593999997E+02  0.45594000000E+02  0.51100000000E-03 0. -1.
         11   -1    0    0    0    0 -0.00000000000E+00 -0.00000000000E+00 -0.45593999997E+02  0.45594000000E+02  0.51100000000E-03 0.  1.
    9900012    2    1    2    0    0 -0.28634991348E+02 -0.28772534816E+02 -0.23118363459E+01  0.50528854946E+02  0.29999985094E+02 0.  0.
         12    1    1    2    0    0  0.28634991348E+02  0.28772534816E+02  0.23118363459E+01  0.40659145054E+02  0.00000000000E+00 0. -1.
         11    1    3    3    0    0 -0.84803221770E+01 -0.75116426972E+00  0.22106283163E+01  0.87958507150E+01  0.51100000000E-03 0. -1.
        -11    1    3    3    0    0 -0.20433651980E+02 -0.89917292600E+01 -0.78841075810E+00  0.22338462797E+02  0.51100000000E-03 0.  1.
        -12    1    3    3    0    0  0.27898280930E+00 -0.19029641286E+02 -0.37340539040E+01  0.19394541434E+02  0.00000000000E+00 0.  1.
</event>
<event>
 7    1  0.5642630E-013  0.5052887E+02  0.7816164E-02  0.1300439E+00
        -11   -1    0    0    0    0  0.00000000000E+00  0.00000000000E+00  0.45593999997E+02  0.45594000000E+02  0.51100000000E-03 0.  1.
         11   -1    0    0    0    0 -0.00000000000E+00 -0.00000000000E+00 -0.45593999997E+02  0.45594000000E+02  0.51100000000E-03 0. -1.
    9900012    2    1    2    0    0 -0.30549145947E+01 -0.75821110816E+01  0.39828938219E+02  0.50528865340E+02  0.30000016689E+02 0.  0.
         12    1    1    2    0    0  0.30549145947E+01  0.75821110816E+01 -0.39828938219E+02  0.40659134660E+02  0.00000000000E+00 0. -1.
         11    1    3    3    0    0 -0.80722686650E+01  0.33444944989E+01  0.59200102036E+01  0.10554320723E+02  0.51100000000E-03 0. -1.
        -11    1    3    3    0    0 -0.12570859686E+01  0.43424187959E+01  0.55204752666E+01  0.71353005236E+01  0.51100000000E-03 0.  1.
        -12    1    3    3    0    0  0.62744400389E+01 -0.15269024376E+02  0.28388452748E+02  0.32839244094E+02  0.00000000000E+00 0.  1.
</event>
<event>
 7    1  0.5642630E-013  0.5052885E+02  0.7816164E-02  0.1300439E+00
        -11   -1    0    0    0    0  0.00000000000E+00  0.00000000000E+00  0.45593999997E+02  0.45594000000E+02  0.51100000000E-03 0.  1.
         11   -1    0    0    0    0 -0.00000000000E+00 -0.00000000000E+00 -0.45593999997E+02  0.45594000000E+02  0.51100000000E-03 0. -1.
    9900012    2    1    2    0    0  0.23528532733E+02 -0.12385282391E+02  0.30760023593E+02  0.50528854363E+02  0.29999983323E+02 0.  0.
         12    1    1    2    0    0 -0.23528532733E+02  0.12385282391E+02 -0.30760023593E+02  0.40659145637E+02  0.00000000000E+00 0. -1.
         11    1    3    3    0    0  0.71249780451E+01 -0.56824398342E+01  0.26141867840E+01  0.94810024478E+01  0.51100000000E-03 0. -1.
        -11    1    3    3    0    0  0.79127761137E+01 -0.14478820550E+02  0.92368827087E+01  0.18909475740E+02  0.51100000000E-03 0.  1.
         12    1    3    3    0    0  0.84907785743E+01  0.77759779928E+01  0.18908954100E+02  0.22138376176E+02  0.00000000000E+00 0. -1.
</event>
<event>
 7    1  0.5642630E-013  0.5052886E+02  0.7816164E-02  0.1300439E+00
        -11   -1    0    0    0    0  0.00000000000E+00  0.00000000000E+00  0.45593999997E+02  0.45594000000E+02  0.51100000000E-03 0.  1.
         11   -1    0    0    0    0 -0.00000000000E+00 -0.00000000000E+00 -0.45593999997E+02  0.45594000000E+02  0.51100000000E-03 0. -1.
    9900012    2    1    2    0    0 -0.28893253967E+02 -0.42320859885E-01  0.28606711040E+02  0.50528857949E+02  0.29999994221E+02 0.  0.
         12    1    1    2    0    0  0.28893253967E+02  0.42320859885E-01 -0.28606711040E+02  0.40659142051E+02  0.00000000000E+00 0. -1.
         11    1    3    3    0    0  0.26831588480E+01  0.25656716929E+01  0.31975195277E+01  0.48996065180E+01  0.51100000000E-03 0. -1.
        -11    1    3    3    0    0 -0.18823233698E+01  0.33533514610E+01 -0.23825672934E+01  0.45237964651E+01  0.51100000000E-03 0.  1.
        -12    1    3    3    0    0 -0.29694089445E+02 -0.59613440137E+01  0.27791758805E+02  0.41105454966E+02  0.00000000000E+00 0.  1.
</event>
<event>
 7    1  0.5642630E-013  0.5052886E+02  0.7816164E-02  0.1300439E+00
        -11   -1    0    0    0    0  0.00000000000E+00  0.00000000000E+00  0.45593999997E+02  0.45594000000E+02  0.51100000000E-03 0.  1.
         11   -1    0    0    0    0 -0.00000000000E+00 -0.00000000000E+00 -0.45593999997E+02  0.45594000000E+02  0.51100000000E-03 0. -1.
    9900012    2    1    2    0    0 -0.88957196714E+01  0.22594512527E+02 -0.32611653741E+02  0.50528858537E+02  0.29999996008E+02 0.  0.
         12    1    1    2    0    0  0.88957196714E+01 -0.22594512527E+02  0.32611653741E+02  0.40659141463E+02  0.00000000000E+00 0. -1.
         11    1    3    3    0    0  0.69726658741E+00 -0.21945161482E+00 -0.11734101418E+02  0.11756848049E+02  0.51100000000E-03 0. -1.
        -11    1    3    3    0    0  0.48875890490E+00 -0.35960710399E+01 -0.55051226555E+01  0.65937082059E+01  0.51100000000E-03 0.  1.
        -12    1    3    3    0    0 -0.10081745164E+02  0.26410035182E+02 -0.15372429668E+02  0.32178302282E+02  0.00000000000E+00 0.  1.
</event>
<event>
 7    1  0.5642630E-013  0.5052886E+02  0.7816164E-02  0.1300439E+00
        -11   -1    0    0    0    0  0.00000000000E+00  0.00000000000E+00  0.45593999997E+02  0.45594000000E+02  0.51100000000E-03 0. -1.
         11   -1    0    0    0    0 -0.00000000000E+00 -0.00000000000E+00 -0.45593999997E+02  0.45594000000E+02  0.51100000000E-03 0.  1.
    9900012    2    1    2    0    0 -0.17694788245E+02  0.20416857747E+02 -0.30384407983E+02  0.50528857612E+02  0.29999993196E+02 0.  0.
         12    1    1    2    0    0  0.17694788245E+02 -0.20416857747E+02  0.30384407983E+02  0.40659142388E+02  0.00000000000E+00 0. -1.
         11    1    3    3    0    0 -0.18131069513E+02  0.13951893202E+02 -0.13819838226E+02  0.26727868124E+02  0.51100000000E-03 0. -1.
        -11    1    3    3    0    0  0.15075783724E+00 -0.30120368245E+01  0.15233780542E+01  0.33787238293E+01  0.51100000000E-03 0.  1.
        -12    1    3    3    0    0  0.28552343074E+00  0.94770013692E+01 -0.18087947812E+02  0.20422265658E+02  0.00000000000E+00 0.  1.
</event>
<event>
 7    1  0.5642630E-013  0.5052886E+02  0.7816164E-02  0.1300439E+00
        -11   -1    0    0    0    0  0.00000000000E+00  0.00000000000E+00  0.45593999997E+02  0.45594000000E+02  0.51100000000E-03 0.  1.
         11   -1    0    0    0    0 -0.00000000000E+00 -0.00000000000E+00 -0.45593999997E+02  0.45594000000E+02  0.51100000000E-03 0. -1.
    9900012    2    1    2    0    0 -0.13412503415E+02 -0.25207546561E+02  0.28945640219E+02  0.50528859094E+02  0.29999997703E+02 0.  0.
         12    1    1    2    0    0  0.13412503415E+02  0.25207546561E+02 -0.28945640219E+02  0.40659140906E+02  0.00000000000E+00 0. -1.
         11    1    3    3    0    0  0.10205009620E+01 -0.63197676542E+01 -0.21381059853E+01  0.67492505423E+01  0.51100000000E-03 0. -1.
        -11    1    3    3    0    0 -0.50755998908E+00 -0.13681211803E+02  0.67512276833E+01  0.15264738747E+02  0.51100000000E-03 0.  1.
        -12    1    3    3    0    0 -0.13925444388E+02 -0.52065671045E+01  0.24332518521E+02  0.28514869805E+02  0.00000000000E+00 0.  1.
</event>
<event>
 7    1  0.5642630E-013  0.5052886E+02  0.7816164E-02  0.1300439E+00
        -11   -1    0    0    0    0  0.00000000000E+00  0.00000000000E+00  0.45593999997E+02  0.45594000000E+02  0.51100000000E-03 0. -1.
         11   -1    0    0    0    0 -0.00000000000E+00 -0.00000000000E+00 -0.45593999997E+02  0.45594000000E+02  0.51100000000E-03 0.  1.
    9900012    2    1    2    0    0 -0.11646518151E+02  0.11546893699E+02 -0.37204755506E+02  0.50528856239E+02  0.29999989023E+02 0.  0.
         12    1    1    2    0    0  0.11646518151E+02 -0.11546893699E+02  0.37204755506E+02  0.40659143761E+02  0.00000000000E+00 0. -1.
         11    1    3    3    0    0  0.27065150171E+01 -0.32292400163E+00  0.30368134104E+01  0.40806542857E+01  0.51100000000E-03 0. -1.
        -11    1    3    3    0    0 -0.10408417574E+02  0.21428332971E+01 -0.10627543233E+02  0.15029024132E+02  0.51100000000E-03 0.  1.
        -12    1    3    3    0    0 -0.39446155951E+01  0.97269844035E+01 -0.29614025683E+02  0.31419177821E+02  0.00000000000E+00 0.  1.
</event>
<event>
 7    1  0.5642630E-013  0.5052888E+02  0.7816164E-02  0.1300439E+00
        -11   -1    0    0    0    0  0.00000000000E+00  0.00000000000E+00  0.45593999997E+02  0.45594000000E+02  0.51100000000E-03 0.  1.
         11   -1    0    0    0    0 -0.00000000000E+00 -0.00000000000E+00 -0.45593999997E+02  0.45594000000E+02  0.51100000000E-03 0. -1.
    9900012    2    1    2    0    0 -0.35545801891E+02  0.10453766227E+02 -0.16744518231E+02  0.50528878622E+02  0.30000057061E+02 0.  0.
         12    1    1    2    0    0  0.35545801891E+02 -0.10453766227E+02  0.16744518231E+02  0.40659121378E+02  0.00000000000E+00 0. -1.
         11    1    3    3    0    0 -0.88837490617E+01  0.12592106871E+02 -0.15131377040E+02  0.21597238811E+02  0.51100000000E-03 0. -1.
        -11    1    3    3    0    0 -0.54361378030E+01  0.51596118464E+00 -0.48419492227E+01  0.72981013074E+01  0.51100000000E-03 0.  1.
        -12    1    3    3    0    0 -0.21225915026E+02 -0.26543018293E+01  0.32288080322E+01  0.21633538504E+02  0.00000000000E+00 0.  1.
</event>
<event>
 7    1  0.5642630E-013  0.5052885E+02  0.7816164E-02  0.1300439E+00
        -11   -1    0    0    0    0  0.00000000000E+00  0.00000000000E+00  0.45593999997E+02  0.45594000000E+02  0.51100000000E-03 0.  1.
         11   -1    0    0    0    0 -0.00000000000E+00 -0.00000000000E+00 -0.45593999997E+02  0.45594000000E+02  0.51100000000E-03 0. -1.
    9900012    2    1    2    0    0 -0.18606105886E+02 -0.35300233709E+02  0.78020971544E+01  0.50528851016E+02  0.29999973147E+02 0.  0.
         12    1    1    2    0    0  0.18606105886E+02  0.35300233709E+02 -0.78020971544E+01  0.40659148984E+02  0.00000000000E+00 0. -1.
         11    1    3    3    0    0 -0.54310580374E+01 -0.12142430187E+02 -0.17348219610E+01  0.13414343434E+02  0.51100000000E-03 0. -1.
        -11    1    3    3    0    0 -0.13424640349E+02 -0.15502408762E+02  0.16836919454E+02  0.26533516595E+02  0.51100000000E-03 0.  1.
         12    1    3    3    0    0  0.24959250004E+00 -0.76553947588E+01 -0.73000003384E+01  0.10580990987E+02  0.00000000000E+00 0. -1.
</event>
<event>
 7    1  0.5642630E-013  0.5052886E+02  0.7816164E-02  0.1300439E+00
        -11   -1    0    0    0    0  0.00000000000E+00  0.00000000000E+00  0.45593999997E+02  0.45594000000E+02  0.51100000000E-03 0.  1.
         11   -1    0    0    0    0 -0.00000000000E+00 -0.00000000000E+00 -0.45593999997E+02  0.45594000000E+02  0.51100000000E-03 0. -1.
    9900012    2    1    2    0    0  0.11807034588E+02  0.22982371256E+02  0.31393791774E+02  0.50528860606E+02  0.30000002297E+02 0.  0.
         12    1    1    2    0    0 -0.11807034588E+02 -0.22982371256E+02 -0.31393791774E+02  0.40659139394E+02  0.00000000000E+00 0. -1.
         11    1    3    3    0    0  0.69424382011E+00 -0.13517001311E+01  0.11565446703E+02  0.11664845709E+02  0.51100000000E-03 0. -1.
        -11    1    3    3    0    0  0.12577752970E+02  0.17157804675E+02  0.22595357315E+02  0.31034501825E+02  0.51100000000E-03 0.  1.
        -12    1    3    3    0    0 -0.14649622019E+01  0.71762667124E+01 -0.27670122442E+01  0.78295130717E+01  0.00000000000E+00 0.  1.
</event>
<event>
 7    1  0.5642630E-013  0.5052886E+02  0.7816164E-02  0.1300439E+00
        -11   -1    0    0    0    0  0.00000000000E+00  0.00000000000E+00  0.45593999997E+02  0.45594000000E+02  0.51100000000E-03 0.  1.
         11   -1    0    0    0    0 -0.00000000000E+00 -0.00000000000E+00 -0.45593999997E+02  0.45594000000E+02  0.51100000000E-03 0. -1.
    9900012    2    1    2    0    0  0.34588328520E+02 -0.31650152695E+01  0.21137552284E+02  0.50528857018E+02  0.29999991391E+02 0.  0.
         12    1    1    2    0    0 -0.34588328520E+02  0.31650152695E+01 -0.21137552284E+02  0.40659142982E+02  0.00000000000E+00 0. -1.
         11    1    3    3    0    0  0.39432386128E+01  0.15937310935E+01 -0.18535607475E+01  0.46394824347E+01  0.51100000000E-03 0. -1.
        -11    1    3    3    0    0  0.20980914160E+01 -0.73245232684E+01 -0.19834331093E+01  0.78730321896E+01  0.51100000000E-03 0.  1.
        -12    1    3    3    0    0  0.28546998492E+02  0.25657769054E+01  0.24974546141E+02  0.38016342393E+02  0.00000000000E+00 0.  1.
</event>
<event>
 7    1  0.5642630E-013  0.5052885E+02  0.7816164E-02  0.1300439E+00
        -11   -1    0    0    0    0  0.00000000000E+00  0.00000000000E+00  0.45593999997E+02  0.45594000000E+02  0.51100000000E-03 0. -1.
         11   -1    0    0    0    0 -0.00000000000E+00 -0.00000000000E+00 -0.45593999997E+02  0.45594000000E+02  0.51100000000E-03 0.  1.
    9900012    2    1    2    0    0  0.42472172311E+01 -0.19156549874E+02 -0.35611148950E+02  0.50528853590E+02  0.29999980972E+02 0.  0.
         12    1    1    2    0    0 -0.42472172311E+01  0.19156549874E+02  0.35611148950E+02  0.40659146410E+02  0.00000000000E+00 0. -1.
         11    1    3    3    0    0  0.84139432656E+01 -0.20922946427E+01 -0.19388752502E+02  0.21239017445E+02  0.51100000000E-03 0. -1.
        -11    1    3    3    0    0  0.47001735085E+01 -0.82280544567E+01 -0.13476047504E+02  0.16474112047E+02  0.51100000000E-03 0.  1.
         12    1    3    3    0    0 -0.88668995430E+01 -0.88362007748E+01 -0.27463489427E+01  0.12815724098E+02  0.00000000000E+00 0. -1.
</event>
<event>
 7    1  0.5642630E-013  0.5052885E+02  0.7816164E-02  0.1300439E+00
        -11   -1    0    0    0    0  0.00000000000E+00  0.00000000000E+00  0.45593999997E+02  0.45594000000E+02  0.51100000000E-03 0. -1.
         11   -1    0    0    0    0 -0.00000000000E+00 -0.00000000000E+00 -0.45593999997E+02  0.45594000000E+02  0.51100000000E-03 0.  1.
    9900012    2    1    2    0    0 -0.36336702288E+02 -0.18233376429E+02 -0.59556110206E+00  0.50528847989E+02  0.29999963948E+02 0.  0.
         12    1    1    2    0    0  0.36336702288E+02  0.18233376429E+02  0.59556110206E+00  0.40659152011E+02  0.00000000000E+00 0. -1.
         11    1    3    3    0    0 -0.28073532169E+02 -0.89135658718E+01  0.73540888489E+01  0.30358812362E+02  0.51100000000E-03 0. -1.
        -11    1    3    3    0    0 -0.11712696569E+02 -0.45163174931E+01 -0.45737577307E+01  0.13360525613E+02  0.51100000000E-03 0.  1.
        -12    1    3    3    0    0  0.34495264497E+01 -0.48034930645E+01 -0.33758922203E+01  0.68095100140E+01  0.00000000000E+00 0.  1.
</event>
<event>
 7    1  0.5642630E-013  0.5052886E+02  0.7816164E-02  0.1300439E+00
        -11   -1    0    0    0    0  0.00000000000E+00  0.00000000000E+00  0.45593999997E+02  0.45594000000E+02  0.51100000000E-03 0.  1.
         11   -1    0    0    0    0 -0.00000000000E+00 -0.00000000000E+00 -0.45593999997E+02  0.45594000000E+02  0.51100000000E-03 0. -1.
    9900012    2    1    2    0    0 -0.14621310670E+02  0.97096511297E+01  0.36675684926E+02  0.50528856925E+02  0.29999991110E+02 0.  0.
         12    1    1    2    0    0  0.14621310670E+02 -0.97096511297E+01 -0.36675684926E+02  0.40659143075E+02  0.00000000000E+00 0. -1.
         11    1    3    3    0    0 -0.12022067874E+02 -0.60034700390E+00  0.33431937470E+01  0.12492696954E+02  0.51100000000E-03 0. -1.
        -11    1    3    3    0    0 -0.78434856262E+01  0.19148432267E+01  0.11359045538E+02  0.13936097271E+02  0.51100000000E-03 0.  1.
         12    1    3    3    0    0  0.52442428308E+01  0.83951549070E+01  0.21973445641E+02  0.24100062700E+02  0.00000000000E+00 0. -1.
</event>
<event>
 7    1  0.5642630E-013  0.5052888E+02  0.7816164E-02  0.1300439E+00
        -11   -1    0    0    0    0  0.00000000000E+00  0.00000000000E+00  0.45593999997E+02  0.45594000000E+02  0.51100000000E-03 0.  1.
         11   -1    0    0    0    0 -0.00000000000E+00 -0.00000000000E+00 -0.45593999997E+02  0.45594000000E+02  0.51100000000E-03 0. -1.
    9900012    2    1    2    0    0 -0.29807461840E+02 -0.20710064754E+02  0.18324089357E+02  0.50528882766E+02  0.30000069656E+02 0.  0.
         12    1    1    2    0    0  0.29807461840E+02  0.20710064754E+02 -0.18324089357E+02  0.40659117234E+02  0.00000000000E+00 0. -1.
         11    1    3    3    0    0 -0.27735112327E+01  0.62420836291E+01  0.18354390953E+01  0.70728218926E+01  0.51100000000E-03 0. -1.
        -11    1    3    3    0    0  0.13406839062E+01 -0.20656440572E+01  0.91166081333E+00  0.26259178218E+01  0.51100000000E-03 0.  1.
        -12    1    3    3    0    0 -0.28374634514E+02 -0.24886504326E+02  0.15576989448E+02  0.40830143052E+02  0.00000000000E+00 0.  1.
</event>
<event>
 7    1  0.5642630E-013  0.5052885E+02  0.7816164E-02  0.1300439E+00
        -11   -1    0    0    0    0  0.00000000000E+00  0.00000000000E+00  0.45593999997E+02  0.45594000000E+02  0.51100000000E-03 0.  1.
         11   -1    0    0    0    0 -0.00000000000E+00 -0.00000000000E+00 -0.45593999997E+02  0.45594000000E+02  0.51100000000E-03 0. -1.
    9900012    2    1    2    0    0 -0.24701752372E+02 -0.42790616740E+01  0.32010610361E+02  0.50528854476E+02  0.29999983665E+02 0.  0.
         12    1    1    2    0    0  0.24701752372E+02  0.42790616740E+01 -0.32010610361E+02  0.40659145524E+02  0.00000000000E+00 0. -1.
         11    1    3    3    0    0 -0.14057670960E+02 -0.45053414035E+00  0.17737795509E+02  0.22637369185E+02  0.51100000000E-03 0. -1.
        -11    1    3    3    0    0 -0.68289914025E+01 -0.12388750116E+02  0.11152723673E+02  0.18013869617E+02  0.51100000000E-03 0.  1.
         12    1    3    3    0    0 -0.38150900098E+01  0.85602225820E+01  0.31200911786E+01  0.98776156738E+01  0.00000000000E+00 0. -1.
</event>
<event>
 7    1  0.5642630E-013  0.5052885E+02  0.7816164E-02  0.1300439E+00
        -11   -1    0    0    0    0  0.00000000000E+00  0.00000000000E+00  0.45593999997E+02  0.45594000000E+02  0.51100000000E-03 0. -1.
         11   -1    0    0    0    0 -0.00000000000E+00 -0.00000000000E+00 -0.45593999997E+02  0.45594000000E+02  0.51100000000E-03 0.  1.
    9900012    2    1    2    0    0 -0.23041483829E+02  0.21506176792E+02 -0.25685416945E+02  0.50528852679E+02  0.29999978203E+02 0.  0.
         12    1    1    2    0    0  0.23041483829E+02 -0.21506176792E+02  0.25685416945E+02  0.40659147321E+02  0.00000000000E+00 0. -1.
         11    1    3    3    0    0 -0.72627768383E+01  0.55915761543E+01 -0.10323001079E+01  0.92238438335E+01  0.51100000000E-03 0. -1.
        -11    1    3    3    0    0 -0.72785582286E+01  0.64513322759E+01  0.35597889799E+01  0.10357084332E+02  0.51100000000E-03 0.  1.
        -12    1    3    3    0    0 -0.85001487617E+01  0.94632683622E+01 -0.28212905817E+02  0.30947924513E+02  0.00000000000E+00 0.  1.
</event>
<event>
 7    1  0.5642630E-013  0.5052886E+02  0.7816164E-02  0.1300439E+00
        -11   -1    0    0    0    0  0.00000000000E+00  0.00000000000E+00  0.45593999997E+02  0.45594000000E+02  0.51100000000E-03 0.  1.
         11   -1    0    0    0    0 -0.00000000000E+00 -0.00000000000E+00 -0.45593999997E+02  0.45594000000E+02  0.51100000000E-03 0. -1.
    9900012    2    1    2    0    0 -0.70895767686E+01 -0.40035700830E+02  0.21525155715E+00  0.50528858679E+02  0.29999996440E+02 0.  0.
         12    1    1    2    0    0  0.70895767686E+01  0.40035700830E+02 -0.21525155715E+00  0.40659141321E+02  0.00000000000E+00 0. -1.
         11    1    3    3    0    0  0.26544672426E+01 -0.26289225411E+02 -0.48777861895E+01  0.26869357406E+02  0.51100000000E-03 0. -1.
        -11    1    3    3    0    0 -0.25937171719E+01 -0.78603318088E+01 -0.52298412311E+01  0.97909869000E+01  0.51100000000E-03 0.  1.
        -12    1    3    3    0    0 -0.71503268394E+01 -0.58861436106E+01  0.10322878978E+02  0.13868514373E+02  0.00000000000E+00 0.  1.
</event>
<event>
 7    1  0.5642630E-013  0.5052886E+02  0.7816164E-02  0.1300439E+00
        -11   -1    0    0    0    0  0.00000000000E+00  0.00000000000E+00  0.45593999997E+02  0.45594000000E+02  0.51100000000E-03 0.  1.
         11   -1    0    0    0    0 -0.00000000000E+00 -0.00000000000E+00 -0.45593999997E+02  0.45594000000E+02  0.51100000000E-03 0. -1.
    9900012    2    1    2    0    0  0.98989577078E+01  0.60213720716E+01  0.38973312257E+02  0.50528863836E+02  0.30000012115E+02 0.  0.
         12    1    1    2    0    0 -0.98989577078E+01 -0.60213720716E+01 -0.38973312257E+02  0.40659136164E+02  0.00000000000E+00 0. -1.
         11    1    3    3    0    0  0.16992043374E+01 -0.43943582149E+01  0.16037884927E+02  0.16715604466E+02  0.51100000000E-03 0. -1.
        -11    1    3    3    0    0  0.80228545711E+01  0.91961860302E-01  0.22033244634E+02  0.23448635820E+02  0.51100000000E-03 0.  1.
        -12    1    3    3    0    0  0.17689879937E+00  0.10323768426E+02  0.90218269664E+00  0.10364623549E+02  0.00000000000E+00 0.  1.
</event>
<event>
 7    1  0.5642630E-013  0.5052885E+02  0.7816164E-02  0.1300439E+00
        -11   -1    0    0    0    0  0.00000000000E+00  0.00000000000E+00  0.45593999997E+02  0.45594000000E+02  0.51100000000E-03 0.  1.
         11   -1    0    0    0    0 -0.00000000000E+00 -0.00000000000E+00 -0.45593999997E+02  0.45594000000E+02  0.51100000000E-03 0. -1.
    9900012    2    1    2    0    0  0.17713013568E+02  0.19908901944E+02  0.30709145092E+02  0.50528845821E+02  0.29999957359E+02 0.  0.
         12    1    1    2    0    0 -0.17713013568E+02 -0.19908901944E+02 -0.30709145092E+02  0.40659154179E+02  0.00000000000E+00 0. -1.
         11    1    3    3    0    0 -0.14559972186E+01 -0.13522687096E+01  0.73141468198E+01  0.75792679413E+01  0.51100000000E-03 0. -1.
        -11    1    3    3    0    0  0.42635316533E+01  0.50171101735E+00  0.15675594511E+02  0.16252805285E+02  0.51100000000E-03 0.  1.
        -12    1    3    3    0    0  0.14905479133E+02  0.20759459636E+02  0.77194037607E+01  0.26696772595E+02  0.00000000000E+00 0.  1.
</event>
<event>
 7    1  0.5642630E-013  0.5052877E+02  0.7816164E-02  0.1300439E+00
        -11   -1    0    0    0    0  0.00000000000E+00  0.00000000000E+00  0.45593999997E+02  0.45594000000E+02  0.51100000000E-03 0. -1.
         11   -1    0    0    0    0 -0.00000000000E+00 -0.00000000000E+00 -0.45593999997E+02  0.45594000000E+02  0.51100000000E-03 0.  1.
    9900012    2    1    2    0    0 -0.19993835965E+01  0.34533099434E+02 -0.21369144648E+02  0.50528771844E+02  0.29999732495E+02 0.  0.
         12    1    1    2    0    0  0.19993835965E+01 -0.34533099434E+02  0.21369144648E+02  0.40659228156E+02  0.00000000000E+00 0. -1.
         11    1    3    3    0    0  0.22100027712E+01  0.34164844082E+01 -0.82162135171E+01  0.91685681969E+01  0.51100000000E-03 0. -1.
        -11    1    3    3    0    0  0.97808703057E+01  0.14364043539E+02 -0.53864536498E+01  0.18193544292E+02  0.51100000000E-03 0.  1.
        -12    1    3    3    0    0 -0.13990256673E+02  0.16752571486E+02 -0.77664774813E+01  0.23166659355E+02  0.00000000000E+00 0.  1.
</event>
<event>
 7    1  0.5642630E-013  0.5052886E+02  0.7816164E-02  0.1300439E+00
        -11   -1    0    0    0    0  0.00000000000E+00  0.00000000000E+00  0.45593999997E+02  0.45594000000E+02  0.51100000000E-03 0. -1.
         11   -1    0    0    0    0 -0.00000000000E+00 -0.00000000000E+00 -0.45593999997E+02  0.45594000000E+02  0.51100000000E-03 0.  1.
    9900012    2    1    2    0    0 -0.55564391155E+01  0.10750385452E+02 -0.38816503163E+02  0.50528859320E+02  0.29999998389E+02 0.  0.
         12    1    1    2    0    0  0.55564391155E+01 -0.10750385452E+02  0.38816503163E+02  0.40659140680E+02  0.00000000000E+00 0. -1.
         11    1    3    3    0    0 -0.10207456497E+02  0.10100134548E+02 -0.21281981162E+02  0.25673480646E+02  0.51100000000E-03 0. -1.
        -11    1    3    3    0    0 -0.40958793207E+01  0.22431988240E+01 -0.14851791107E+02  0.15568682273E+02  0.51100000000E-03 0.  1.
         12    1    3    3    0    0  0.87468967021E+01 -0.15929479205E+01 -0.26827308943E+01  0.92866964011E+01  0.00000000000E+00 0. -1.
</event>
<event>
 7    1  0.5642630E-013  0.5052882E+02  0.7816164E-02  0.1300439E+00
        -11   -1    0    0    0    0  0.00000000000E+00  0.00000000000E+00  0.45593999997E+02  0.45594000000E+02  0.51100000000E-03 0.  1.
         11   -1    0    0    0    0 -0.00000000000E+00 -0.00000000000E+00 -0.45593999997E+02  0.45594000000E+02  0.51100000000E-03 0. -1.
    9900012    2    1    2    0    0  0.15166021060E+02  0.35651990834E+01  0.37555956755E+02  0.50528822352E+02  0.29999886020E+02 0.  0.
         12    1    1    2    0    0 -0.15166021060E+02 -0.35651990834E+01 -0.37555956755E+02  0.40659177648E+02  0.00000000000E+00 0. -1.
         11    1    3    3    0    0  0.11584839705E+02  0.78730945367E+01  0.24965607262E+01  0.14227682324E+02  0.51100000000E-03 0. -1.
        -11    1    3    3    0    0 -0.15850945666E+01  0.11035519863E+01  0.70647933088E+01  0.73240464587E+01  0.51100000000E-03 0.  1.
        -12    1    3    3    0    0  0.51662759210E+01 -0.54114474396E+01  0.27994602720E+02  0.28977093569E+02  0.00000000000E+00 0.  1.
</event>
<event>
 7    1  0.5642630E-013  0.5052884E+02  0.7816164E-02  0.1300439E+00
        -11   -1    0    0    0    0  0.00000000000E+00  0.00000000000E+00  0.45593999997E+02  0.45594000000E+02  0.51100000000E-03 0. -1.
         11   -1    0    0    0    0 -0.00000000000E+00 -0.00000000000E+00 -0.45593999997E+02  0.45594000000E+02  0.51100000000E-03 0.  1.
    9900012    2    1    2    0    0 -0.56256766807E+01  0.30933284116E+02 -0.25780832905E+02  0.50528835602E+02  0.29999926295E+02 0.  0.
         12    1    1    2    0    0  0.56256766807E+01 -0.30933284116E+02  0.25780832905E+02  0.40659164398E+02  0.00000000000E+00 0. -1.
         11    1    3    3    0    0 -0.70135252675E+01  0.76274687100E+01 -0.39005988901E+01  0.11071697592E+02  0.51100000000E-03 0. -1.
        -11    1    3    3    0    0 -0.64640789540E+01  0.20687033487E+02 -0.22393408816E+02  0.31164120874E+02  0.51100000000E-03 0.  1.
         12    1    3    3    0    0  0.78519275407E+01  0.26187819189E+01  0.51317480060E+00  0.82930171361E+01  0.00000000000E+00 0. -1.
</event>
<event>
 7    1  0.5642630E-013  0.5052886E+02  0.7816164E-02  0.1300439E+00
        -11   -1    0    0    0    0  0.00000000000E+00  0.00000000000E+00  0.45593999997E+02  0.45594000000E+02  0.51100000000E-03 0.  1.
         11   -1    0    0    0    0 -0.00000000000E+00 -0.00000000000E+00 -0.45593999997E+02  0.45594000000E+02  0.51100000000E-03 0. -1.
    9900012    2    1    2    0    0  0.11412861986E+02  0.30956558843E+02  0.23761398430E+02  0.50528855770E+02  0.29999987599E+02 0.  0.
         12    1    1    2    0    0 -0.11412861986E+02 -0.30956558843E+02 -0.23761398430E+02  0.40659144230E+02  0.00000000000E+00 0. -1.
         11    1    3    3    0    0  0.42116654442E+01  0.21508871967E+02  0.20618448369E+02  0.30091362756E+02  0.51100000000E-03 0.  1.
        -11    1    3    3    0    0  0.62362732992E+01  0.46657350457E+01  0.95890450727E+01  0.12353540944E+02  0.51100000000E-03 0. -1.
        -12    1    3    3    0    0  0.96492324286E+00  0.47819518304E+01 -0.64460950116E+01  0.80839520701E+01  0.00000000000E+00 0.  1.
</event>
<event>
 7    1  0.5642630E-013  0.5052887E+02  0.7816164E-02  0.1300439E+00
        -11   -1    0    0    0    0  0.00000000000E+00  0.00000000000E+00  0.45593999997E+02  0.45594000000E+02  0.51100000000E-03 0.  1.
         11   -1    0    0    0    0 -0.00000000000E+00 -0.00000000000E+00 -0.45593999997E+02  0.45594000000E+02  0.51100000000E-03 0. -1.
    9900012    2    1    2    0    0  0.16707152638E+02 -0.20979173204E+02  0.30559943523E+02  0.50528870574E+02  0.30000032595E+02 0.  0.
         12    1    1    2    0    0 -0.16707152638E+02  0.20979173204E+02 -0.30559943523E+02  0.40659129426E+02  0.00000000000E+00 0. -1.
         11    1    3    3    0    0  0.14196340257E+01 -0.75391204831E+00  0.62774667927E+01  0.64799948872E+01  0.51100000000E-03 0.  1.
        -11    1    3    3    0    0  0.11131101619E+02 -0.36721281724E+01  0.24302998831E+02  0.26981877270E+02  0.51100000000E-03 0. -1.
         12    1    3    3    0    0  0.41564169932E+01 -0.16553132983E+02 -0.20522101182E-01  0.17066998416E+02  0.00000000000E+00 0. -1.
</event>
<event>
 7    1  0.5642630E-013  0.5052886E+02  0.7816164E-02  0.1300439E+00
        -11   -1    0    0    0    0  0.00000000000E+00  0.00000000000E+00  0.45593999997E+02  0.45594000000E+02  0.51100000000E-03 0.  1.
         11   -1    0    0    0    0 -0.00000000000E+00 -0.00000000000E+00 -0.45593999997E+02  0.45594000000E+02  0.51100000000E-03 0. -1.
    9900012    2    1    2    0    0 -0.29885890053E+02 -0.22407658131E+02  0.16059138551E+02  0.50528862059E+02  0.30000006713E+02 0.  0.
         12    1    1    2    0    0  0.29885890053E+02  0.22407658131E+02 -0.16059138551E+02  0.40659137941E+02  0.00000000000E+00 0. -1.
         11    1    3    3    0    0 -0.21285103981E+02 -0.91901289350E+01  0.38268720455E+01  0.23498065266E+02  0.51100000000E-03 0. -1.
        -11    1    3    3    0    0 -0.13257535698E+02 -0.81777577697E+01  0.35712035012E+01  0.15980972112E+02  0.51100000000E-03 0.  1.
         12    1    3    3    0    0  0.46567496268E+01 -0.50397714266E+01  0.86610630039E+01  0.11049824681E+02  0.00000000000E+00 0. -1.
</event>
<event>
 7    1  0.5642630E-013  0.5052885E+02  0.7816164E-02  0.1300439E+00
        -11   -1    0    0    0    0  0.00000000000E+00  0.00000000000E+00  0.45593999997E+02  0.45594000000E+02  0.51100000000E-03 0.  1.
         11   -1    0    0    0    0 -0.00000000000E+00 -0.00000000000E+00 -0.45593999997E+02  0.45594000000E+02  0.51100000000E-03 0. -1.
    9900012    2    1    2    0    0  0.22883399277E+02  0.13130377850E+02  0.30937190185E+02  0.50528849474E+02  0.29999968461E+02 0.  0.
         12    1    1    2    0    0 -0.22883399277E+02 -0.13130377850E+02 -0.30937190185E+02  0.40659150526E+02  0.00000000000E+00 0. -1.
         11    1    3    3    0    0  0.29713231350E+01 -0.68250655202E+01  0.38901307762E+01  0.83990117421E+01  0.51100000000E-03 0. -1.
        -11    1    3    3    0    0 -0.32735857896E-01  0.16194827691E+00  0.84100018911E+01  0.84116247509E+01  0.51100000000E-03 0.  1.
        -12    1    3    3    0    0  0.19944811999E+02  0.19793495094E+02  0.18637057518E+02  0.33718212981E+02  0.00000000000E+00 0.  1.
</event>
<event>
 7    1  0.5642630E-013  0.5052886E+02  0.7816164E-02  0.1300439E+00
        -11   -1    0    0    0    0  0.00000000000E+00  0.00000000000E+00  0.45593999997E+02  0.45594000000E+02  0.51100000000E-03 0.  1.
         11   -1    0    0    0    0 -0.00000000000E+00 -0.00000000000E+00 -0.45593999997E+02  0.45594000000E+02  0.51100000000E-03 0. -1.
    9900012    2    1    2    0    0 -0.11013376311E+02 -0.30341867466E+02  0.24723320658E+02  0.50528856337E+02  0.29999989321E+02 0.  0.
         12    1    1    2    0    0  0.11013376311E+02  0.30341867466E+02 -0.24723320658E+02  0.40659143663E+02  0.00000000000E+00 0. -1.
         11    1    3    3    0    0  0.22399516650E+01 -0.18741913250E+01  0.25072418671E+01  0.38491867486E+01  0.51100000000E-03 0.  1.
        -11    1    3    3    0    0  0.14840208047E+01 -0.26034014311E+02  0.15121056597E+02  0.30143300612E+02  0.51100000000E-03 0. -1.
        -12    1    3    3    0    0 -0.14737348781E+02 -0.24336618296E+01  0.70950221934E+01  0.16536368976E+02  0.00000000000E+00 0.  1.
</event>
<event>
 7    1  0.5642630E-013  0.5052886E+02  0.7816164E-02  0.1300439E+00
        -11   -1    0    0    0    0  0.00000000000E+00  0.00000000000E+00  0.45593999997E+02  0.45594000000E+02  0.51100000000E-03 0.  1.
         11   -1    0    0    0    0 -0.00000000000E+00 -0.00000000000E+00 -0.45593999997E+02  0.45594000000E+02  0.51100000000E-03 0. -1.
    9900012    2    1    2    0    0  0.11343520106E+02 -0.28830265189E+01  0.38938139853E+02  0.50528855573E+02  0.29999987000E+02 0.  0.
         12    1    1    2    0    0 -0.11343520106E+02  0.28830265189E+01 -0.38938139853E+02  0.40659144427E+02  0.00000000000E+00 0. -1.
         11    1    3    3    0    0 -0.22659602861E+01 -0.69106827637E-01  0.15025986920E+02  0.15196040107E+02  0.51100000000E-03 0. -1.
        -11    1    3    3    0    0  0.67205668594E+01  0.55504670037E+01  0.22836632423E+02  0.24443516186E+02  0.51100000000E-03 0.  1.
         12    1    3    3    0    0  0.68889135323E+01 -0.83643866949E+01  0.10755205109E+01  0.10889299280E+02  0.00000000000E+00 0. -1.
</event>
<event>
 7    1  0.5642630E-013  0.5052873E+02  0.7816164E-02  0.1300439E+00
        -11   -1    0    0    0    0  0.00000000000E+00  0.00000000000E+00  0.45593999997E+02  0.45594000000E+02  0.51100000000E-03 0. -1.
         11   -1    0    0    0    0 -0.00000000000E+00 -0.00000000000E+00 -0.45593999997E+02  0.45594000000E+02  0.51100000000E-03 0.  1.
    9900012    2    1    2    0    0 -0.45402378701E+01  0.36050299599E+02 -0.18246602178E+02  0.50528728583E+02  0.29999600998E+02 0.  0.
         12    1    1    2    0    0  0.45402378701E+01 -0.36050299599E+02  0.18246602178E+02  0.40659271417E+02  0.00000000000E+00 0. -1.
         11    1    3    3    0    0 -0.77836824595E+01  0.40810401576E+01 -0.41827050653E+00  0.87986107924E+01  0.51100000000E-03 0. -1.
        -11    1    3    3    0    0  0.13520673816E+01  0.23298797468E+02 -0.17978203694E+01  0.23407140107E+02  0.51100000000E-03 0.  1.
        -12    1    3    3    0    0  0.18913772078E+01  0.86704619737E+01 -0.16030511302E+02  0.18322977684E+02  0.00000000000E+00 0.  1.
</event>
<event>
 7    1  0.5642630E-013  0.5052887E+02  0.7816164E-02  0.1300439E+00
        -11   -1    0    0    0    0  0.00000000000E+00  0.00000000000E+00  0.45593999997E+02  0.45594000000E+02  0.51100000000E-03 0. -1.
         11   -1    0    0    0    0 -0.00000000000E+00 -0.00000000000E+00 -0.45593999997E+02  0.45594000000E+02  0.51100000000E-03 0.  1.
    9900012    2    1    2    0    0  0.24143497461E+02 -0.18543356437E+02 -0.26951820562E+02  0.50528866104E+02  0.30000019008E+02 0.  0.
         12    1    1    2    0    0 -0.24143497461E+02  0.18543356437E+02  0.26951820562E+02  0.40659133896E+02  0.00000000000E+00 0. -1.
         11    1    3    3    0    0  0.22291391722E+00 -0.13341102641E+01 -0.13789713074E+02  0.13855891445E+02  0.51100000000E-03 0. -1.
        -11    1    3    3    0    0  0.10330877003E+02 -0.64637303039E+01 -0.14914276189E+02  0.19259866656E+02  0.51100000000E-03 0.  1.
         12    1    3    3    0    0  0.13589706541E+02 -0.10745515869E+02  0.17521687011E+01  0.17413108003E+02  0.00000000000E+00 0. -1.
</event>
<event>
 7    1  0.5642630E-013  0.5052887E+02  0.7816164E-02  0.1300439E+00
        -11   -1    0    0    0    0  0.00000000000E+00  0.00000000000E+00  0.45593999997E+02  0.45594000000E+02  0.51100000000E-03 0.  1.
         11   -1    0    0    0    0 -0.00000000000E+00 -0.00000000000E+00 -0.45593999997E+02  0.45594000000E+02  0.51100000000E-03 0. -1.
    9900012    2    1    2    0    0  0.34942880810E+02  0.19366720856E+02  0.75557833022E+01  0.50528872399E+02  0.30000038143E+02 0.  0.
         12    1    1    2    0    0 -0.34942880810E+02 -0.19366720856E+02 -0.75557833022E+01  0.40659127601E+02  0.00000000000E+00 0. -1.
         11    1    3    3    0    0  0.83477887652E+01  0.92712193573E+01  0.14687212469E+01  0.12561776467E+02  0.51100000000E-03 0. -1.
        -11    1    3    3    0    0  0.67142241918E+01  0.10939803981E+02 -0.65340520187E+01  0.14403261912E+02  0.51100000000E-03 0.  1.
         12    1    3    3    0    0  0.19880867853E+02 -0.84430248318E+00  0.12621114074E+02  0.23563834020E+02  0.00000000000E+00 0. -1.
</event>
<event>
 7    1  0.5642630E-013  0.5052885E+02  0.7816164E-02  0.1300439E+00
        -11   -1    0    0    0    0  0.00000000000E+00  0.00000000000E+00  0.45593999997E+02  0.45594000000E+02  0.51100000000E-03 0.  1.
         11   -1    0    0    0    0 -0.00000000000E+00 -0.00000000000E+00 -0.45593999997E+02  0.45594000000E+02  0.51100000000E-03 0. -1.
    9900012    2    1    2    0    0  0.26288977236E+02  0.16883191244E+02  0.26019493533E+02  0.50528849562E+02  0.29999968727E+02 0.  0.
         12    1    1    2    0    0 -0.26288977236E+02 -0.16883191244E+02 -0.26019493533E+02  0.40659150438E+02  0.00000000000E+00 0. -1.
         11    1    3    3    0    0  0.69761784524E+01  0.95011869933E+01 -0.10053409005E+01  0.11830060468E+02  0.51100000000E-03 0. -1.
        -11    1    3    3    0    0 -0.33652865674E+01  0.31418440298E+01  0.51160419793E+01  0.68826029512E+01  0.51100000000E-03 0.  1.
        -12    1    3    3    0    0  0.22678085351E+02  0.42401602206E+01  0.21908792454E+02  0.31816186143E+02  0.00000000000E+00 0.  1.
</event>
<event>
 7    1  0.5642630E-013  0.5052885E+02  0.7816164E-02  0.1300439E+00
        -11   -1    0    0    0    0  0.00000000000E+00  0.00000000000E+00  0.45593999997E+02  0.45594000000E+02  0.51100000000E-03 0. -1.
         11   -1    0    0    0    0 -0.00000000000E+00 -0.00000000000E+00 -0.45593999997E+02  0.45594000000E+02  0.51100000000E-03 0.  1.
    9900012    2    1    2    0    0 -0.52679616746E+01 -0.13070375974E+02 -0.38138958421E+02  0.50528852226E+02  0.29999976825E+02 0.  0.
         12    1    1    2    0    0  0.52679616746E+01  0.13070375974E+02  0.38138958421E+02  0.40659147774E+02  0.00000000000E+00 0. -1.
         11    1    3    3    0    0  0.58315868882E+01 -0.12131020075E+02 -0.12584156516E+02  0.18426341177E+02  0.51100000000E-03 0. -1.
        -11    1    3    3    0    0 -0.64518891632E+01 -0.29263931907E+01 -0.11469532328E+01  0.71767787245E+01  0.51100000000E-03 0.  1.
        -12    1    3    3    0    0 -0.46476593996E+01  0.19870372915E+01 -0.24407848672E+02  0.24925732324E+02  0.00000000000E+00 0.  1.
</event>
<event>
 7    1  0.5642630E-013  0.5052889E+02  0.7816164E-02  0.1300439E+00
        -11   -1    0    0    0    0  0.00000000000E+00  0.00000000000E+00  0.45593999997E+02  0.45594000000E+02  0.51100000000E-03 0. -1.
         11   -1    0    0    0    0 -0.00000000000E+00 -0.00000000000E+00 -0.45593999997E+02  0.45594000000E+02  0.51100000000E-03 0.  1.
    9900012    2    1    2    0    0 -0.14318834667E+02  0.37057222478E+02 -0.86542668158E+01  0.50528891572E+02  0.30000096424E+02 0.  0.
         12    1    1    2    0    0  0.14318834667E+02 -0.37057222478E+02  0.86542668158E+01  0.40659108428E+02  0.00000000000E+00 0. -1.
         11    1    3    3    0    0  0.90397179291E+00  0.26836600099E+02 -0.70376993021E+01  0.27758773056E+02  0.51100000000E-03 0. -1.
        -11    1    3    3    0    0 -0.86902897250E+01  0.11288384371E+02 -0.52941248390E+01  0.15197911544E+02  0.51100000000E-03 0.  1.
         12    1    3    3    0    0 -0.65325167346E+01 -0.10677619916E+01  0.36775573253E+01  0.75722069728E+01  0.00000000000E+00 0. -1.
</event>
<event>
 7    1  0.5642630E-013  0.5052886E+02  0.7816164E-02  0.1300439E+00
        -11   -1    0    0    0    0  0.00000000000E+00  0.00000000000E+00  0.45593999997E+02  0.45594000000E+02  0.51100000000E-03 0.  1.
         11   -1    0    0    0    0 -0.00000000000E+00 -0.00000000000E+00 -0.45593999997E+02  0.45594000000E+02  0.51100000000E-03 0. -1.
    9900012    2    1    2    0    0  0.35244117334E+02  0.17894810761E+02 -0.95285694800E+01  0.50528859635E+02  0.29999999347E+02 0.  0.
         12    1    1    2    0    0 -0.35244117334E+02 -0.17894810761E+02  0.95285694800E+01  0.40659140365E+02  0.00000000000E+00 0. -1.
         11    1    3    3    0    0  0.77609864658E+01  0.46088713063E+01 -0.39819385411E+01  0.98656191112E+01  0.51100000000E-03 0.  1.
        -11    1    3    3    0    0  0.14533154302E+02  0.81902092009E+01 -0.16110545512E+02  0.23191416034E+02  0.51100000000E-03 0. -1.
         12    1    3    3    0    0  0.12949976566E+02  0.50957302543E+01  0.10563914573E+02  0.17471824490E+02  0.00000000000E+00 0. -1.
</event>
<event>
 7    1  0.5642630E-013  0.5052886E+02  0.7816164E-02  0.1300439E+00
        -11   -1    0    0    0    0  0.00000000000E+00  0.00000000000E+00  0.45593999997E+02  0.45594000000E+02  0.51100000000E-03 0.  1.
         11   -1    0    0    0    0 -0.00000000000E+00 -0.00000000000E+00 -0.45593999997E+02  0.45594000000E+02  0.51100000000E-03 0. -1.
    9900012    2    1    2    0    0  0.12530452041E+02 -0.16674078521E+02  0.34901702007E+02  0.50528856799E+02  0.29999990725E+02 0.  0.
         12    1    1    2    0    0 -0.12530452041E+02  0.16674078521E+02 -0.34901702007E+02  0.40659143201E+02  0.00000000000E+00 0. -1.
         11    1    3    3    0    0  0.48913789740E+01 -0.18588248684E+01  0.20360386133E+02  0.21022039433E+02  0.51100000000E-03 0. -1.
        -11    1    3    3    0    0  0.25318821254E+01 -0.18911255806E+02  0.11601325241E+02  0.22330176239E+02  0.51100000000E-03 0.  1.
         12    1    3    3    0    0  0.51071909413E+01  0.40960021527E+01  0.29399906332E+01  0.71766411272E+01  0.00000000000E+00 0. -1.
</event>
<event>
 7    1  0.5642630E-013  0.5052887E+02  0.7816164E-02  0.1300439E+00
        -11   -1    0    0    0    0  0.00000000000E+00  0.00000000000E+00  0.45593999997E+02  0.45594000000E+02  0.51100000000E-03 0. -1.
         11   -1    0    0    0    0 -0.00000000000E+00 -0.00000000000E+00 -0.45593999997E+02  0.45594000000E+02  0.51100000000E-03 0.  1.
    9900012    2    1    2    0    0  0.24267818156E+02  0.20650359187E+02 -0.25254718756E+02  0.50528866314E+02  0.30000019648E+02 0.  0.
         12    1    1    2    0    0 -0.24267818156E+02 -0.20650359187E+02  0.25254718756E+02  0.40659133686E+02  0.00000000000E+00 0. -1.
         11    1    3    3    0    0  0.54938826434E+01  0.27705748977E+01  0.22417325822E+01  0.65486026750E+01  0.51100000000E-03 0. -1.
        -11    1    3    3    0    0  0.17114699058E+02  0.14011487923E+02 -0.72135299523E+01  0.23265204326E+02  0.51100000000E-03 0.  1.
        -12    1    3    3    0    0  0.16592364543E+01  0.38682963665E+01 -0.20282921386E+02  0.20715059313E+02  0.00000000000E+00 0.  1.
</event>
<event>
 7    1  0.5642630E-013  0.5052886E+02  0.7816164E-02  0.1300439E+00
        -11   -1    0    0    0    0  0.00000000000E+00  0.00000000000E+00  0.45593999997E+02  0.45594000000E+02  0.51100000000E-03 0. -1.
         11   -1    0    0    0    0 -0.00000000000E+00 -0.00000000000E+00 -0.45593999997E+02  0.45594000000E+02  0.51100000000E-03 0.  1.
    9900012    2    1    2    0    0  0.13116017129E+02 -0.27768175071E+02  0.26647022970E+02  0.50528864677E+02  0.30000014671E+02 0.  0.
         12    1    1    2    0    0 -0.13116017129E+02  0.27768175071E+02 -0.26647022970E+02  0.40659135323E+02  0.00000000000E+00 0. -1.
         11    1    3    3    0    0  0.26978211654E+01 -0.18851375511E+02  0.76499447740E+01  0.20522530375E+02  0.51100000000E-03 0. -1.
        -11    1    3    3    0    0  0.80052406738E+00 -0.10704767321E+01 -0.38115196747E+01  0.40391139756E+01  0.51100000000E-03 0.  1.
         12    1    3    3    0    0  0.96176718967E+01 -0.78463228279E+01  0.22808597871E+02  0.25967220326E+02  0.00000000000E+00 0. -1.
</event>
<event>
 7    1  0.5642630E-013  0.5052887E+02  0.7816164E-02  0.1300439E+00
        -11   -1    0    0    0    0  0.00000000000E+00  0.00000000000E+00  0.45593999997E+02  0.45594000000E+02  0.51100000000E-03 0. -1.
         11   -1    0    0    0    0 -0.00000000000E+00 -0.00000000000E+00 -0.45593999997E+02  0.45594000000E+02  0.51100000000E-03 0.  1.
    9900012    2    1    2    0    0 -0.32400867784E+02  0.16829967847E+02 -0.17891368225E+02  0.50528866859E+02  0.30000021304E+02 0.  0.
         12    1    1    2    0    0  0.32400867784E+02 -0.16829967847E+02  0.17891368225E+02  0.40659133141E+02  0.00000000000E+00 0. -1.
         11    1    3    3    0    0 -0.16722810159E+02  0.29027890564E+00 -0.63706866668E+01  0.17897549842E+02  0.51100000000E-03 0. -1.
        -11    1    3    3    0    0 -0.19396347427E+02  0.76398539071E+01 -0.86268756073E+01  0.22561219919E+02  0.51100000000E-03 0.  1.
         12    1    3    3    0    0  0.37182898026E+01  0.88998350339E+01 -0.28938059504E+01  0.10070097098E+02  0.00000000000E+00 0. -1.
</event>
<event>
 7    1  0.5642630E-013  0.5052887E+02  0.7816164E-02  0.1300439E+00
        -11   -1    0    0    0    0  0.00000000000E+00  0.00000000000E+00  0.45593999997E+02  0.45594000000E+02  0.51100000000E-03 0.  1.
         11   -1    0    0    0    0 -0.00000000000E+00 -0.00000000000E+00 -0.45593999997E+02  0.45594000000E+02  0.51100000000E-03 0. -1.
    9900012    2    1    2    0    0  0.25460201572E+02 -0.30263868472E+02  0.94361885810E+01  0.50528865062E+02  0.30000015843E+02 0.  0.
         12    1    1    2    0    0 -0.25460201572E+02  0.30263868472E+02 -0.94361885810E+01  0.40659134938E+02  0.00000000000E+00 0. -1.
         11    1    3    3    0    0  0.11402869279E+02 -0.19308064063E+01  0.10755444615E+02  0.15793448968E+02  0.51100000000E-03 0. -1.
        -11    1    3    3    0    0  0.42550399365E+01 -0.53823459568E+00  0.25812362659E+01  0.50057808844E+01  0.51100000000E-03 0.  1.
        -12    1    3    3    0    0  0.98022923556E+01 -0.27794827470E+02 -0.39004922995E+01  0.29729635210E+02  0.00000000000E+00 0.  1.
</event>
<event>
 7    1  0.5642630E-013  0.5052886E+02  0.7816164E-02  0.1300439E+00
        -11   -1    0    0    0    0  0.00000000000E+00  0.00000000000E+00  0.45593999997E+02  0.45594000000E+02  0.51100000000E-03 0. -1.
         11   -1    0    0    0    0 -0.00000000000E+00 -0.00000000000E+00 -0.45593999997E+02  0.45594000000E+02  0.51100000000E-03 0.  1.
    9900012    2    1    2    0    0  0.53499255678E+01  0.19685721903E+02 -0.35171245034E+02  0.50528858006E+02  0.29999994397E+02 0.  0.
         12    1    1    2    0    0 -0.53499255678E+01 -0.19685721903E+02  0.35171245034E+02  0.40659141994E+02  0.00000000000E+00 0. -1.
         11    1    3    3    0    0  0.25846611308E+01  0.12375873974E+02 -0.10320144496E+02  0.16320175013E+02  0.51100000000E-03 0. -1.
        -11    1    3    3    0    0 -0.12089440507E+00  0.87379637245E+01  0.40494662555E+00  0.87481773838E+01  0.51100000000E-03 0.  1.
        -12    1    3    3    0    0  0.28861588421E+01 -0.14281157951E+01 -0.25256047164E+02  0.25460505610E+02  0.00000000000E+00 0.  1.
</event>
<event>
 7    1  0.5642630E-013  0.5052886E+02  0.7816164E-02  0.1300439E+00
        -11   -1    0    0    0    0  0.00000000000E+00  0.00000000000E+00  0.45593999997E+02  0.45594000000E+02  0.51100000000E-03 0.  1.
         11   -1    0    0    0    0 -0.00000000000E+00 -0.00000000000E+00 -0.45593999997E+02  0.45594000000E+02  0.51100000000E-03 0. -1.
    9900012    2    1    2    0    0  0.18284123492E+02 -0.29325891207E+02  0.21420749164E+02  0.50528861277E+02  0.30000004338E+02 0.  0.
         12    1    1    2    0    0 -0.18284123492E+02  0.29325891207E+02 -0.21420749164E+02  0.40659138723E+02  0.00000000000E+00 0. -1.
         11    1    3    3    0    0  0.60272600810E+01 -0.80632459171E+01  0.34836014988E+01  0.10652665322E+02  0.51100000000E-03 0.  1.
        -11    1    3    3    0    0  0.36617415397E+01 -0.24862565648E+02  0.82885064260E+01  0.26462329088E+02  0.51100000000E-03 0. -1.
        -12    1    3    3    0    0  0.85951218712E+01  0.35999203585E+01  0.96486412393E+01  0.13413866867E+02  0.00000000000E+00 0.  1.
</event>
<event>
 7    1  0.5642630E-013  0.5052886E+02  0.7816164E-02  0.1300439E+00
        -11   -1    0    0    0    0  0.00000000000E+00  0.00000000000E+00  0.45593999997E+02  0.45594000000E+02  0.51100000000E-03 0. -1.
         11   -1    0    0    0    0 -0.00000000000E+00 -0.00000000000E+00 -0.45593999997E+02  0.45594000000E+02  0.51100000000E-03 0.  1.
    9900012    2    1    2    0    0 -0.33384589943E+02  0.12296704507E+02 -0.19683127854E+02  0.50528864378E+02  0.30000013764E+02 0.  0.
         12    1    1    2    0    0  0.33384589943E+02 -0.12296704507E+02  0.19683127854E+02  0.40659135622E+02  0.00000000000E+00 0. -1.
         11    1    3    3    0    0 -0.60278893295E+01 -0.25734968513E+01  0.17291838864E+01  0.67785258712E+01  0.51100000000E-03 0. -1.
        -11    1    3    3    0    0 -0.15280976001E+02  0.12907625720E+02 -0.24002729036E+02  0.31244936081E+02  0.51100000000E-03 0.  1.
         12    1    3    3    0    0 -0.12075724613E+02  0.19625756382E+01  0.25904172961E+01  0.12505402426E+02  0.00000000000E+00 0. -1.
</event>
<event>
 7    1  0.5642630E-013  0.5052886E+02  0.7816164E-02  0.1300439E+00
        -11   -1    0    0    0    0  0.00000000000E+00  0.00000000000E+00  0.45593999997E+02  0.45594000000E+02  0.51100000000E-03 0.  1.
         11   -1    0    0    0    0 -0.00000000000E+00 -0.00000000000E+00 -0.45593999997E+02  0.45594000000E+02  0.51100000000E-03 0. -1.
    9900012    2    1    2    0    0 -0.35330727889E+02 -0.13812241797E+02  0.14633093970E+02  0.50528858399E+02  0.29999995588E+02 0.  0.
         12    1    1    2    0    0  0.35330727889E+02  0.13812241797E+02 -0.14633093970E+02  0.40659141601E+02  0.00000000000E+00 0. -1.
         11    1    3    3    0    0 -0.21564036435E+01 -0.28813209806E+01 -0.72335453326E+01  0.80793728474E+01  0.51100000000E-03 0. -1.
        -11    1    3    3    0    0 -0.21132718863E+01 -0.21950645957E+01  0.54576250859E+01  0.62505918507E+01  0.51100000000E-03 0.  1.
        -12    1    3    3    0    0 -0.31061052359E+02 -0.87358562204E+01  0.16409014217E+02  0.36198893700E+02  0.00000000000E+00 0.  1.
</event>
<event>
 7    1  0.5642630E-013  0.5052886E+02  0.7816164E-02  0.1300439E+00
        -11   -1    0    0    0    0  0.00000000000E+00  0.00000000000E+00  0.45593999997E+02  0.45594000000E+02  0.51100000000E-03 0.  1.
         11   -1    0    0    0    0 -0.00000000000E+00 -0.00000000000E+00 -0.45593999997E+02  0.45594000000E+02  0.51100000000E-03 0. -1.
    9900012    2    1    2    0    0 -0.92316317693E+01 -0.33653757316E+02  0.20865459033E+02  0.50528858503E+02  0.29999995904E+02 0.  0.
         12    1    1    2    0    0  0.92316317693E+01  0.33653757316E+02 -0.20865459033E+02  0.40659141497E+02  0.00000000000E+00 0. -1.
         11    1    3    3    0    0  0.45852108509E+01 -0.71156997578E+01  0.14509197611E+02  0.16798040277E+02  0.51100000000E-03 0. -1.
        -11    1    3    3    0    0 -0.33830397428E+01 -0.44353238768E+01  0.73998675385E+01  0.92668816569E+01  0.51100000000E-03 0.  1.
        -12    1    3    3    0    0 -0.10433802877E+02 -0.22102733682E+02 -0.10436061159E+01  0.24463936568E+02  0.00000000000E+00 0.  1.
</event>
<event>
 7    1  0.5642630E-013  0.5052885E+02  0.7816164E-02  0.1300439E+00
        -11   -1    0    0    0    0  0.00000000000E+00  0.00000000000E+00  0.45593999997E+02  0.45594000000E+02  0.51100000000E-03 0. -1.
         11   -1    0    0    0    0 -0.00000000000E+00 -0.00000000000E+00 -0.45593999997E+02  0.45594000000E+02  0.51100000000E-03 0.  1.
    9900012    2    1    2    0    0  0.67622875309E+01  0.39585996230E+02  0.63550543040E+01  0.50528851640E+02  0.29999975044E+02 0.  0.
         12    1    1    2    0    0 -0.67622875309E+01 -0.39585996230E+02 -0.63550543040E+01  0.40659148360E+02  0.00000000000E+00 0. -1.
         11    1    3    3    0    0  0.42286828025E+01  0.26559678344E+02 -0.19654730223E+01  0.26965929549E+02  0.51100000000E-03 0.  1.
        -11    1    3    3    0    0  0.60545611647E+01  0.14226073946E+02  0.11728988698E+01  0.15505308215E+02  0.51100000000E-03 0. -1.
         12    1    3    3    0    0 -0.35209564363E+01 -0.11997560593E+01  0.71476284565E+01  0.80576138764E+01  0.00000000000E+00 0. -1.
</event>
<event>
 7    1  0.5642630E-013  0.5052885E+02  0.7816164E-02  0.1300439E+00
        -11   -1    0    0    0    0  0.00000000000E+00  0.00000000000E+00  0.45593999997E+02  0.45594000000E+02  0.51100000000E-03 0.  1.
         11   -1    0    0    0    0 -0.00000000000E+00 -0.00000000000E+00 -0.45593999997E+02  0.45594000000E+02  0.51100000000E-03 0. -1.
    9900012    2    1    2    0    0  0.23877043987E+02  0.27343883320E+02 -0.18312987826E+02  0.50528847184E+02  0.29999961502E+02 0.  0.
         12    1    1    2    0    0 -0.23877043987E+02 -0.27343883320E+02  0.18312987826E+02  0.40659152816E+02  0.00000000000E+00 0. -1.
         11    1    3    3    0    0  0.15072594274E+02  0.29870740512E+02 -0.47304663714E+01  0.33790850082E+02  0.51100000000E-03 0.  1.
        -11    1    3    3    0    0  0.21960242151E+01  0.57612756362E+00 -0.18931879915E+01  0.29561133867E+01  0.51100000000E-03 0. -1.
        -12    1    3    3    0    0  0.66084254975E+01 -0.31029847555E+01 -0.11689333463E+02  0.13781883716E+02  0.00000000000E+00 0.  1.
</event>
<event>
 7    1  0.5642630E-013  0.5052886E+02  0.7816164E-02  0.1300439E+00
        -11   -1    0    0    0    0  0.00000000000E+00  0.00000000000E+00  0.45593999997E+02  0.45594000000E+02  0.51100000000E-03 0.  1.
         11   -1    0    0    0    0 -0.00000000000E+00 -0.00000000000E+00 -0.45593999997E+02  0.45594000000E+02  0.51100000000E-03 0. -1.
    9900012    2    1    2    0    0 -0.37894162763E+02 -0.12882003161E+02 -0.71590747171E+01  0.50528856775E+02  0.29999990654E+02 0.  0.
         12    1    1    2    0    0  0.37894162763E+02  0.12882003161E+02  0.71590747171E+01  0.40659143225E+02  0.00000000000E+00 0. -1.
         11    1    3    3    0    0 -0.12763581346E+02 -0.78449689834E+01 -0.71092883438E+01  0.16582958968E+02  0.51100000000E-03 0. -1.
        -11    1    3    3    0    0 -0.26304970272E+02  0.10286453812E+01  0.39007753237E+01  0.26612508726E+02  0.51100000000E-03 0.  1.
         12    1    3    3    0    0  0.11743888540E+01 -0.60656795586E+01 -0.39505616970E+01  0.73333890808E+01  0.00000000000E+00 0. -1.
</event>
<event>
 7    1  0.5642630E-013  0.5052886E+02  0.7816164E-02  0.1300439E+00
        -11   -1    0    0    0    0  0.00000000000E+00  0.00000000000E+00  0.45593999997E+02  0.45594000000E+02  0.51100000000E-03 0.  1.
         11   -1    0    0    0    0 -0.00000000000E+00 -0.00000000000E+00 -0.45593999997E+02  0.45594000000E+02  0.51100000000E-03 0. -1.
    9900012    2    1    2    0    0  0.11157174284E+02 -0.84807123086E+01  0.38167537211E+02  0.50528856920E+02  0.29999991094E+02 0.  0.
         12    1    1    2    0    0 -0.11157174284E+02  0.84807123086E+01 -0.38167537211E+02  0.40659143080E+02  0.00000000000E+00 0. -1.
         11    1    3    3    0    0  0.10101944301E+02 -0.10217083594E+02  0.22248101163E+02  0.26484261013E+02  0.51100000000E-03 0. -1.
        -11    1    3    3    0    0  0.63548646829E+01 -0.57879684786E+01  0.95699030829E+01  0.12863433816E+02  0.51100000000E-03 0.  1.
        -12    1    3    3    0    0 -0.52996346998E+01  0.75243397637E+01  0.63495329653E+01  0.11181162091E+02  0.00000000000E+00 0.  1.
</event>
<event>
 7    1  0.5642630E-013  0.5052889E+02  0.7816164E-02  0.1300439E+00
        -11   -1    0    0    0    0  0.00000000000E+00  0.00000000000E+00  0.45593999997E+02  0.45594000000E+02  0.51100000000E-03 0.  1.
         11   -1    0    0    0    0 -0.00000000000E+00 -0.00000000000E+00 -0.45593999997E+02  0.45594000000E+02  0.51100000000E-03 0. -1.
    9900012    2    1    2    0    0  0.29422143128E+02 -0.27407495720E+02  0.60274127383E+01  0.50528892383E+02  0.30000098887E+02 0.  0.
         12    1    1    2    0    0 -0.29422143128E+02  0.27407495720E+02 -0.60274127383E+01  0.40659107617E+02  0.00000000000E+00 0. -1.
         11    1    3    3    0    0 -0.30016485315E+01  0.16028825652E+01  0.28555681168E+01  0.44422287149E+01  0.51100000000E-03 0. -1.
        -11    1    3    3    0    0  0.10938966131E+02 -0.94492293648E+01 -0.59513954693E+01  0.15632275071E+02  0.51100000000E-03 0.  1.
         12    1    3    3    0    0  0.21484825528E+02 -0.19561148920E+02  0.91232400908E+01  0.30454388597E+02  0.00000000000E+00 0. -1.
</event>
<event>
 7    1  0.5642630E-013  0.5052887E+02  0.7816164E-02  0.1300439E+00
        -11   -1    0    0    0    0  0.00000000000E+00  0.00000000000E+00  0.45593999997E+02  0.45594000000E+02  0.51100000000E-03 0. -1.
         11   -1    0    0    0    0 -0.00000000000E+00 -0.00000000000E+00 -0.45593999997E+02  0.45594000000E+02  0.51100000000E-03 0.  1.
    9900012    2    1    2    0    0  0.25161790201E+01  0.39046164398E+02 -0.11055813751E+02  0.50528866601E+02  0.30000020520E+02 0.  0.
         12    1    1    2    0    0 -0.25161790201E+01 -0.39046164398E+02  0.11055813751E+02  0.40659133399E+02  0.00000000000E+00 0. -1.
         11    1    3    3    0    0 -0.33850190245E+01 -0.56272529477E+00 -0.62969016702E+01  0.71711912859E+01  0.51100000000E-03 0. -1.
        -11    1    3    3    0    0 -0.95608821631E+00  0.13588093038E+01 -0.41749441736E+01  0.44933981034E+01  0.51100000000E-03 0.  1.
         12    1    3    3    0    0  0.68572862608E+01  0.38250080389E+02 -0.58396790700E+00  0.38864277211E+02  0.00000000000E+00 0. -1.
</event>
<event>
 7    1  0.5642630E-013  0.5052886E+02  0.7816164E-02  0.1300439E+00
        -11   -1    0    0    0    0  0.00000000000E+00  0.00000000000E+00  0.45593999997E+02  0.45594000000E+02  0.51100000000E-03 0.  1.
         11   -1    0    0    0    0 -0.00000000000E+00 -0.00000000000E+00 -0.45593999997E+02  0.45594000000E+02  0.51100000000E-03 0. -1.
    9900012    2    1    2    0    0  0.11948108927E+02  0.20560902912E+02  0.32979655203E+02  0.50528859665E+02  0.29999999436E+02 0.  0.
         12    1    1    2    0    0 -0.11948108927E+02 -0.20560902912E+02 -0.32979655203E+02  0.40659140335E+02  0.00000000000E+00 0. -1.
         11    1    3    3    0    0  0.28750248320E+01 -0.11723757161E+01  0.10223745302E+02  0.10684811691E+02  0.51100000000E-03 0. -1.
        -11    1    3    3    0    0 -0.11576642662E+01  0.22063381042E+02  0.18265358398E+02  0.28666291829E+02  0.51100000000E-03 0.  1.
         12    1    3    3    0    0  0.10230748361E+02 -0.33010241353E+00  0.44905515031E+01  0.11177756145E+02  0.00000000000E+00 0. -1.
</event>
<event>
 7    1  0.5642630E-013  0.5052886E+02  0.7816164E-02  0.1300439E+00
        -11   -1    0    0    0    0  0.00000000000E+00  0.00000000000E+00  0.45593999997E+02  0.45594000000E+02  0.51100000000E-03 0.  1.
         11   -1    0    0    0    0 -0.00000000000E+00 -0.00000000000E+00 -0.45593999997E+02  0.45594000000E+02  0.51100000000E-03 0. -1.
    9900012    2    1    2    0    0  0.18160028717E+02  0.15584775972E+02  0.32870862361E+02  0.50528862313E+02  0.30000007486E+02 0.  0.
         12    1    1    2    0    0 -0.18160028717E+02 -0.15584775972E+02 -0.32870862361E+02  0.40659137687E+02  0.00000000000E+00 0. -1.
         11    1    3    3    0    0  0.12159371530E+02  0.13794901176E+02  0.83784048672E+01  0.20207604580E+02  0.51100000000E-03 0. -1.
        -11    1    3    3    0    0  0.85593181226E+01  0.76499581994E+01  0.15623640606E+02  0.19387674776E+02  0.51100000000E-03 0.  1.
         12    1    3    3    0    0 -0.25586609358E+01 -0.58600834039E+01  0.88688168880E+01  0.10933582957E+02  0.00000000000E+00 0. -1.
</event>
<event>
 7    1  0.5642630E-013  0.5052888E+02  0.7816164E-02  0.1300439E+00
        -11   -1    0    0    0    0  0.00000000000E+00  0.00000000000E+00  0.45593999997E+02  0.45594000000E+02  0.51100000000E-03 0. -1.
         11   -1    0    0    0    0 -0.00000000000E+00 -0.00000000000E+00 -0.45593999997E+02  0.45594000000E+02  0.51100000000E-03 0.  1.
    9900012    2    1    2    0    0  0.41387691290E+01  0.23159641048E+02 -0.33161206382E+02  0.50528880579E+02  0.30000063008E+02 0.  0.
         12    1    1    2    0    0 -0.41387691290E+01 -0.23159641048E+02  0.33161206382E+02  0.40659119421E+02  0.00000000000E+00 0. -1.
         11    1    3    3    0    0  0.47156628131E+01  0.13402658198E+01 -0.20666179887E+00  0.49067807771E+01  0.51100000000E-03 0. -1.
        -11    1    3    3    0    0 -0.89077924110E+01  0.80600709788E+00 -0.91949936491E+01  0.12827561013E+02  0.51100000000E-03 0.  1.
        -12    1    3    3    0    0  0.83308987268E+01  0.21013368130E+02 -0.23759550934E+02  0.32794538789E+02  0.00000000000E+00 0.  1.
</event>
<event>
 7    1  0.5642630E-013  0.5052887E+02  0.7816164E-02  0.1300439E+00
        -11   -1    0    0    0    0  0.00000000000E+00  0.00000000000E+00  0.45593999997E+02  0.45594000000E+02  0.51100000000E-03 0.  1.
         11   -1    0    0    0    0 -0.00000000000E+00 -0.00000000000E+00 -0.45593999997E+02  0.45594000000E+02  0.51100000000E-03 0. -1.
    9900012    2    1    2    0    0  0.15216642320E+02 -0.13932659550E+02  0.35035695529E+02  0.50528866133E+02  0.30000019097E+02 0.  0.
         12    1    1    2    0    0 -0.15216642320E+02  0.13932659550E+02 -0.35035695529E+02  0.40659133867E+02  0.00000000000E+00 0. -1.
         11    1    3    3    0    0 -0.12977571385E+01 -0.46115675963E+00  0.33175716400E+01  0.35920914514E+01  0.51100000000E-03 0. -1.
        -11    1    3    3    0    0 -0.12576792548E+01 -0.56320985217E+01  0.26079899557E+02  0.26710736644E+02  0.51100000000E-03 0.  1.
         12    1    3    3    0    0  0.17772078714E+02 -0.78394042683E+01  0.56382243317E+01  0.20226038038E+02  0.00000000000E+00 0. -1.
</event>
<event>
 7    1  0.5642630E-013  0.5052886E+02  0.7816164E-02  0.1300439E+00
        -11   -1    0    0    0    0  0.00000000000E+00  0.00000000000E+00  0.45593999997E+02  0.45594000000E+02  0.51100000000E-03 0.  1.
         11   -1    0    0    0    0 -0.00000000000E+00 -0.00000000000E+00 -0.45593999997E+02  0.45594000000E+02  0.51100000000E-03 0. -1.
    9900012    2    1    2    0    0 -0.25284869902E+02 -0.20081185636E+02  0.24710055538E+02  0.50528861948E+02  0.30000006376E+02 0.  0.
         12    1    1    2    0    0  0.25284869902E+02  0.20081185636E+02 -0.24710055538E+02  0.40659138052E+02  0.00000000000E+00 0. -1.
         11    1    3    3    0    0 -0.11226360828E+02 -0.15522424371E+01  0.14377249172E+01  0.11423996114E+02  0.51100000000E-03 0. -1.
        -11    1    3    3    0    0 -0.14457361415E+02 -0.21460411596E+02  0.14102064591E+02  0.29469183751E+02  0.51100000000E-03 0.  1.
        -12    1    3    3    0    0  0.39885234091E+00  0.29314683969E+01  0.91702660289E+01  0.96356820824E+01  0.00000000000E+00 0.  1.
</event>
<event>
 7    1  0.5642630E-013  0.5052886E+02  0.7816164E-02  0.1300439E+00
        -11   -1    0    0    0    0  0.00000000000E+00  0.00000000000E+00  0.45593999997E+02  0.45594000000E+02  0.51100000000E-03 0.  1.
         11   -1    0    0    0    0 -0.00000000000E+00 -0.00000000000E+00 -0.45593999997E+02  0.45594000000E+02  0.51100000000E-03 0. -1.
    9900012    2    1    2    0    0  0.20938029990E+02  0.28179458781E+02  0.20510552417E+02  0.50528858869E+02  0.29999997019E+02 0.  0.
         12    1    1    2    0    0 -0.20938029990E+02 -0.28179458781E+02 -0.20510552417E+02  0.40659141131E+02  0.00000000000E+00 0. -1.
         11    1    3    3    0    0  0.44325432650E+01  0.94150025327E+01  0.94711460420E+01  0.14070974383E+02  0.51100000000E-03 0. -1.
        -11    1    3    3    0    0  0.20776997115E+00  0.17446164943E+02  0.99160826100E+01  0.20068396402E+02  0.51100000000E-03 0.  1.
         12    1    3    3    0    0  0.16297716754E+02  0.13182913050E+01  0.11233237655E+01  0.16389488083E+02  0.00000000000E+00 0. -1.
</event>
<event>
 7    1  0.5642630E-013  0.5052887E+02  0.7816164E-02  0.1300439E+00
        -11   -1    0    0    0    0  0.00000000000E+00  0.00000000000E+00  0.45593999997E+02  0.45594000000E+02  0.51100000000E-03 0.  1.
         11   -1    0    0    0    0 -0.00000000000E+00 -0.00000000000E+00 -0.45593999997E+02  0.45594000000E+02  0.51100000000E-03 0. -1.
    9900012    2    1    2    0    0  0.80021794676E+01  0.30727502446E+02  0.25395882762E+02  0.50528866413E+02  0.30000019949E+02 0.  0.
         12    1    1    2    0    0 -0.80021794676E+01 -0.30727502446E+02 -0.25395882762E+02  0.40659133587E+02  0.00000000000E+00 0. -1.
         11    1    3    3    0    0 -0.37352823162E+01  0.67665106064E+01 -0.19952813847E+01  0.79824274399E+01  0.51100000000E-03 0. -1.
        -11    1    3    3    0    0  0.42289860325E+01 -0.17914839184E+01  0.87450241486E+01  0.98777115322E+01  0.51100000000E-03 0.  1.
        -12    1    3    3    0    0  0.75084757513E+01  0.25752475758E+02  0.18646139998E+02  0.32668727441E+02  0.00000000000E+00 0.  1.
</event>
<event>
 7    1  0.5642630E-013  0.5052885E+02  0.7816164E-02  0.1300439E+00
        -11   -1    0    0    0    0  0.00000000000E+00  0.00000000000E+00  0.45593999997E+02  0.45594000000E+02  0.51100000000E-03 0.  1.
         11   -1    0    0    0    0 -0.00000000000E+00 -0.00000000000E+00 -0.45593999997E+02  0.45594000000E+02  0.51100000000E-03 0. -1.
    9900012    2    1    2    0    0 -0.25218793619E+02 -0.28273389169E+02  0.14757859497E+02  0.50528849694E+02  0.29999969129E+02 0.  0.
         12    1    1    2    0    0  0.25218793619E+02  0.28273389169E+02 -0.14757859497E+02  0.40659150306E+02  0.00000000000E+00 0. -1.
         11    1    3    3    0    0  0.49252355460E+01 -0.73067958415E+01  0.45590485705E+01  0.99212970313E+01  0.51100000000E-03 0. -1.
        -11    1    3    3    0    0  0.12912758570E+01 -0.22630961418E+01  0.15084717473E+01  0.30107282773E+01  0.51100000000E-03 0.  1.
        -12    1    3    3    0    0 -0.31435305022E+02 -0.18703497186E+02  0.86903391795E+01  0.37596824385E+02  0.00000000000E+00 0.  1.
</event>
<event>
 7    1  0.5642630E-013  0.5052886E+02  0.7816164E-02  0.1300439E+00
        -11   -1    0    0    0    0  0.00000000000E+00  0.00000000000E+00  0.45593999997E+02  0.45594000000E+02  0.51100000000E-03 0.  1.
         11   -1    0    0    0    0 -0.00000000000E+00 -0.00000000000E+00 -0.45593999997E+02  0.45594000000E+02  0.51100000000E-03 0. -1.
    9900012    2    1    2    0    0 -0.14939039608E+02 -0.14477108853E+02  0.34934281364E+02  0.50528860811E+02  0.30000002921E+02 0.  0.
         12    1    1    2    0    0  0.14939039608E+02  0.14477108853E+02 -0.34934281364E+02  0.40659139189E+02  0.00000000000E+00 0. -1.
         11    1    3    3    0    0 -0.68087126750E+01 -0.16857692022E+02  0.89498789899E+01  0.20264271090E+02  0.51100000000E-03 0.  1.
        -11    1    3    3    0    0 -0.11819795717E+01  0.65489948370E+01  0.71853974632E+01  0.97936890929E+01  0.51100000000E-03 0. -1.
        -12    1    3    3    0    0 -0.69483473612E+01 -0.41684116682E+01  0.18799004911E+02  0.20470900628E+02  0.00000000000E+00 0.  1.
</event>
<event>
 7    1  0.5642630E-013  0.5052883E+02  0.7816164E-02  0.1300439E+00
        -11   -1    0    0    0    0  0.00000000000E+00  0.00000000000E+00  0.45593999997E+02  0.45594000000E+02  0.51100000000E-03 0.  1.
         11   -1    0    0    0    0 -0.00000000000E+00 -0.00000000000E+00 -0.45593999997E+02  0.45594000000E+02  0.51100000000E-03 0. -1.
    9900012    2    1    2    0    0 -0.84701880908E+01  0.30026815701E+02  0.26073253527E+02  0.50528827641E+02  0.29999902097E+02 0.  0.
         12    1    1    2    0    0  0.84701880908E+01 -0.30026815701E+02 -0.26073253527E+02  0.40659172359E+02  0.00000000000E+00 0. -1.
         11    1    3    3    0    0 -0.12973473415E+02  0.13041145717E+02  0.21078864103E+02  0.27976794065E+02  0.51100000000E-03 0. -1.
        -11    1    3    3    0    0  0.16641555935E+00  0.17505875234E+02  0.30479314935E+01  0.17770009806E+02  0.51100000000E-03 0.  1.
         12    1    3    3    0    0  0.43368697650E+01 -0.52020524932E+00  0.19464579307E+01  0.47820237699E+01  0.00000000000E+00 0. -1.
</event>
<event>
 7    1  0.5642630E-013  0.5052886E+02  0.7816164E-02  0.1300439E+00
        -11   -1    0    0    0    0  0.00000000000E+00  0.00000000000E+00  0.45593999997E+02  0.45594000000E+02  0.51100000000E-03 0.  1.
         11   -1    0    0    0    0 -0.00000000000E+00 -0.00000000000E+00 -0.45593999997E+02  0.45594000000E+02  0.51100000000E-03 0. -1.
    9900012    2    1    2    0    0 -0.36752508306E+02  0.10115846642E+02 -0.14145268033E+02  0.50528858005E+02  0.29999994392E+02 0.  0.
         12    1    1    2    0    0  0.36752508306E+02 -0.10115846642E+02  0.14145268033E+02  0.40659141995E+02  0.00000000000E+00 0. -1.
         11    1    3    3    0    0 -0.73097579655E+01  0.72732009989E+01  0.33732382800E+01  0.10849458560E+02  0.51100000000E-03 0. -1.
        -11    1    3    3    0    0  0.16901455790E+01  0.38040225247E+01 -0.51937712597E+00  0.41948697604E+01  0.51100000000E-03 0.  1.
        -12    1    3    3    0    0 -0.31132895919E+02 -0.96137688173E+00 -0.16999129187E+02  0.35484529685E+02  0.00000000000E+00 0.  1.
</event>
<event>
 7    1  0.5642630E-013  0.5052887E+02  0.7816164E-02  0.1300439E+00
        -11   -1    0    0    0    0  0.00000000000E+00  0.00000000000E+00  0.45593999997E+02  0.45594000000E+02  0.51100000000E-03 0.  1.
         11   -1    0    0    0    0 -0.00000000000E+00 -0.00000000000E+00 -0.45593999997E+02  0.45594000000E+02  0.51100000000E-03 0. -1.
    9900012    2    1    2    0    0  0.40603025763E+02 -0.19163665948E+01  0.94151808468E+00  0.50528872877E+02  0.30000039598E+02 0.  0.
         12    1    1    2    0    0 -0.40603025763E+02  0.19163665948E+01 -0.94151808468E+00  0.40659127123E+02  0.00000000000E+00 0. -1.
         11    1    3    3    0    0  0.10353260786E+02 -0.30416602684E+01 -0.75158647266E+01  0.13150282466E+02  0.51100000000E-03 0. -1.
        -11    1    3    3    0    0  0.14488692922E+02 -0.83450867138E+01  0.89892938361E+01  0.18983416415E+02  0.51100000000E-03 0.  1.
         12    1    3    3    0    0  0.15761072056E+02  0.94703803874E+01 -0.53191102485E+00  0.18395173997E+02  0.00000000000E+00 0. -1.
</event>
<event>
 7    1  0.5826580E-013  0.5052888E+02  0.7816164E-02  0.1300439E+00
        -11   -1    0    0    0    0  0.00000000000E+00  0.00000000000E+00  0.45593999997E+02  0.45594000000E+02  0.51100000000E-03 0.  1.
         11   -1    0    0    0    0 -0.00000000000E+00 -0.00000000000E+00 -0.45593999997E+02  0.45594000000E+02  0.51100000000E-03 0. -1.
    9900012    2    1    2    0    0  0.26569564804E+02 -0.20547841455E+02  0.22913070977E+02  0.50528875760E+02  0.30000048361E+02 0.  0.
         12    1    1    2    0    0 -0.26569564804E+02  0.20547841455E+02 -0.22913070977E+02  0.40659124240E+02  0.00000000000E+00 0. -1.
         11    1    3    3    0    0 -0.20266899044E+00 -0.59302323847E+01 -0.95184117215E+00  0.60095534555E+01  0.51100000000E-03 0. -1.
        -11    1    3    3    0    0 -0.23556666317E+01 -0.38023103203E+01  0.90545606452E+01  0.10099098860E+02  0.51100000000E-03 0.  1.
        -12    1    3    3    0    0  0.29127900426E+02 -0.10815298750E+02  0.14810351504E+02  0.34420223444E+02  0.00000000000E+00 0.  1.
</event>
<event>
 7    1  0.5642630E-013  0.5052884E+02  0.7816164E-02  0.1300439E+00
        -11   -1    0    0    0    0  0.00000000000E+00  0.00000000000E+00  0.45593999997E+02  0.45594000000E+02  0.51100000000E-03 0.  1.
         11   -1    0    0    0    0 -0.00000000000E+00 -0.00000000000E+00 -0.45593999997E+02  0.45594000000E+02  0.51100000000E-03 0. -1.
    9900012    2    1    2    0    0 -0.14711575399E+02 -0.15400857832E+02  0.34634523084E+02  0.50528842829E+02  0.29999948262E+02 0.  0.
         12    1    1    2    0    0  0.14711575399E+02  0.15400857832E+02 -0.34634523084E+02  0.40659157171E+02  0.00000000000E+00 0. -1.
         11    1    3    3    0    0 -0.54996155346E+01  0.17481001276E+01  0.40458846099E+01  0.70477519552E+01  0.51100000000E-03 0. -1.
        -11    1    3    3    0    0 -0.28469872199E+01  0.60762371436E+01  0.52090033076E+01  0.84946871500E+01  0.51100000000E-03 0.  1.
        -12    1    3    3    0    0 -0.63649726444E+01 -0.23225195103E+02  0.25379635166E+02  0.34986403723E+02  0.00000000000E+00 0.  1.
</event>
<event>
 7    1  0.5642630E-013  0.5052884E+02  0.7816164E-02  0.1300439E+00
        -11   -1    0    0    0    0  0.00000000000E+00  0.00000000000E+00  0.45593999997E+02  0.45594000000E+02  0.51100000000E-03 0.  1.
         11   -1    0    0    0    0 -0.00000000000E+00 -0.00000000000E+00 -0.45593999997E+02  0.45594000000E+02  0.51100000000E-03 0. -1.
    9900012    2    1    2    0    0  0.40281255236E+02  0.45700008277E+01  0.31148871485E+01  0.50528844169E+02  0.29999952335E+02 0.  0.
         12    1    1    2    0    0 -0.40281255236E+02 -0.45700008277E+01 -0.31148871485E+01  0.40659155831E+02  0.00000000000E+00 0. -1.
         11    1    3    3    0    0  0.68557630978E+01  0.44129866140E+01 -0.60709877824E+00  0.81758490505E+01  0.51100000000E-03 0. -1.
        -11    1    3    3    0    0 -0.22061564022E+00  0.76527660514E+01 -0.20775125206E+00  0.76587636301E+01  0.51100000000E-03 0.  1.
         12    1    3    3    0    0  0.33646107779E+02 -0.74957518376E+01  0.39297371788E+01  0.34694231488E+02  0.00000000000E+00 0. -1.
</event>
<event>
 7    1  0.5642630E-013  0.5052886E+02  0.7816164E-02  0.1300439E+00
        -11   -1    0    0    0    0  0.00000000000E+00  0.00000000000E+00  0.45593999997E+02  0.45594000000E+02  0.51100000000E-03 0. -1.
         11   -1    0    0    0    0 -0.00000000000E+00 -0.00000000000E+00 -0.45593999997E+02  0.45594000000E+02  0.51100000000E-03 0.  1.
    9900012    2    1    2    0    0  0.67746612279E+01  0.69842336199E+01 -0.39477713344E+02  0.50528863206E+02  0.30000010199E+02 0.  0.
         12    1    1    2    0    0 -0.67746612279E+01 -0.69842336199E+01  0.39477713344E+02  0.40659136794E+02  0.00000000000E+00 0. -1.
         11    1    3    3    0    0  0.29119309877E+01  0.17476837386E+01  0.88586979763E+00  0.35097729395E+01  0.51100000000E-03 0. -1.
        -11    1    3    3    0    0  0.10146779142E+02 -0.36316256960E+01 -0.97488528959E+01  0.14532238823E+02  0.51100000000E-03 0.  1.
        -12    1    3    3    0    0 -0.62840489021E+01  0.88681755773E+01 -0.30614730246E+02  0.32486851443E+02  0.00000000000E+00 0.  1.
</event>
<event>
 7    1  0.5642630E-013  0.5052887E+02  0.7816164E-02  0.1300439E+00
        -11   -1    0    0    0    0  0.00000000000E+00  0.00000000000E+00  0.45593999997E+02  0.45594000000E+02  0.51100000000E-03 0.  1.
         11   -1    0    0    0    0 -0.00000000000E+00 -0.00000000000E+00 -0.45593999997E+02  0.45594000000E+02  0.51100000000E-03 0. -1.
    9900012    2    1    2    0    0  0.99597798604E+01 -0.36988820440E+02  0.13630660318E+02  0.50528868761E+02  0.30000027086E+02 0.  0.
         12    1    1    2    0    0 -0.99597798604E+01  0.36988820440E+02 -0.13630660318E+02  0.40659131239E+02  0.00000000000E+00 0. -1.
         11    1    3    3    0    0  0.95973926434E+00 -0.27912382654E+02  0.29792036200E+01  0.28087325600E+02  0.51100000000E-03 0.  1.
        -11    1    3    3    0    0  0.11914750513E+01 -0.49227780539E+01 -0.32116411753E+01  0.59973323958E+01  0.51100000000E-03 0. -1.
        -12    1    3    3    0    0  0.78085655448E+01 -0.41536597321E+01  0.13863097874E+02  0.16444210765E+02  0.00000000000E+00 0.  1.
</event>
<event>
 7    1  0.5642630E-013  0.5052888E+02  0.7816164E-02  0.1300439E+00
        -11   -1    0    0    0    0  0.00000000000E+00  0.00000000000E+00  0.45593999997E+02  0.45594000000E+02  0.51100000000E-03 0.  1.
         11   -1    0    0    0    0 -0.00000000000E+00 -0.00000000000E+00 -0.45593999997E+02  0.45594000000E+02  0.51100000000E-03 0. -1.
    9900012    2    1    2    0    0 -0.15863430849E+02 -0.36251957416E+02  0.93440589770E+01  0.50528876879E+02  0.30000051763E+02 0.  0.
         12    1    1    2    0    0  0.15863430849E+02  0.36251957416E+02 -0.93440589770E+01  0.40659123121E+02  0.00000000000E+00 0. -1.
         11    1    3    3    0    0 -0.38599215735E+01 -0.53771063980E+01 -0.44279213401E+01  0.79635893556E+01  0.51100000000E-03 0. -1.
        -11    1    3    3    0    0 -0.21385439957E+01  0.34679532689E+01 -0.46720130646E+00  0.41010178760E+01  0.51100000000E-03 0.  1.
        -12    1    3    3    0    0 -0.98649652797E+01 -0.34342804287E+02  0.14239181624E+02  0.38464269648E+02  0.00000000000E+00 0.  1.
</event>
<event>
 7    1  0.5642630E-013  0.5052890E+02  0.7816164E-02  0.1300439E+00
        -11   -1    0    0    0    0  0.00000000000E+00  0.00000000000E+00  0.45593999997E+02  0.45594000000E+02  0.51100000000E-03 0.  1.
         11   -1    0    0    0    0 -0.00000000000E+00 -0.00000000000E+00 -0.45593999997E+02  0.45594000000E+02  0.51100000000E-03 0. -1.
    9900012    2    1    2    0    0  0.20950586147E+02 -0.33111011294E+02  0.10858015733E+02  0.50528897274E+02  0.30000113755E+02 0.  0.
         12    1    1    2    0    0 -0.20950586147E+02  0.33111011294E+02 -0.10858015733E+02  0.40659102726E+02  0.00000000000E+00 0. -1.
         11    1    3    3    0    0 -0.28741367351E+01 -0.27525080973E+01 -0.32018519735E+01  0.51077215193E+01  0.51100000000E-03 0. -1.
        -11    1    3    3    0    0  0.11209650231E+02 -0.60562785551E+01 -0.30926120074E+01  0.13111026562E+02  0.51100000000E-03 0.  1.
        -12    1    3    3    0    0  0.12615072652E+02 -0.24302224641E+02  0.17152479714E+02  0.32310149193E+02  0.00000000000E+00 0.  1.
</event>
<event>
 7    1  0.5642630E-013  0.5052888E+02  0.7816164E-02  0.1300439E+00
        -11   -1    0    0    0    0  0.00000000000E+00  0.00000000000E+00  0.45593999997E+02  0.45594000000E+02  0.51100000000E-03 0. -1.
         11   -1    0    0    0    0 -0.00000000000E+00 -0.00000000000E+00 -0.45593999997E+02  0.45594000000E+02  0.51100000000E-03 0.  1.
    9900012    2    1    2    0    0 -0.16030242304E+02  0.33800786989E+02  0.15928032433E+02  0.50528879417E+02  0.30000059476E+02 0.  0.
         12    1    1    2    0    0  0.16030242304E+02 -0.33800786989E+02 -0.15928032433E+02  0.40659120583E+02  0.00000000000E+00 0. -1.
         11    1    3    3    0    0 -0.11937123602E+02  0.15880214981E+02  0.12637552575E+02  0.23545357995E+02  0.51100000000E-03 0. -1.
        -11    1    3    3    0    0 -0.95455528863E+01  0.11497953102E+02 -0.43981056858E+01  0.15577671178E+02  0.51100000000E-03 0.  1.
        -12    1    3    3    0    0  0.54524341842E+01  0.64226189054E+01  0.76885855438E+01  0.11405850245E+02  0.00000000000E+00 0.  1.
</event>
<event>
 7    1  0.5642630E-013  0.5052887E+02  0.7816164E-02  0.1300439E+00
        -11   -1    0    0    0    0  0.00000000000E+00  0.00000000000E+00  0.45593999997E+02  0.45594000000E+02  0.51100000000E-03 0.  1.
         11   -1    0    0    0    0 -0.00000000000E+00 -0.00000000000E+00 -0.45593999997E+02  0.45594000000E+02  0.51100000000E-03 0. -1.
    9900012    2    1    2    0    0 -0.16731800365E+02 -0.86797546151E+01  0.36026013096E+02  0.50528869374E+02  0.30000028951E+02 0.  0.
         12    1    1    2    0    0  0.16731800365E+02  0.86797546151E+01 -0.36026013096E+02  0.40659130626E+02  0.00000000000E+00 0. -1.
         11    1    3    3    0    0 -0.10942470536E+02 -0.64367811235E+01  0.36115137421E+01  0.13198971340E+02  0.51100000000E-03 0. -1.
        -11    1    3    3    0    0  0.30741581434E+01 -0.63585294717E+01  0.63647103167E+01  0.95074120038E+01  0.51100000000E-03 0.  1.
        -12    1    3    3    0    0 -0.88634879728E+01  0.41155559800E+01  0.26049789037E+02  0.27822486031E+02  0.00000000000E+00 0.  1.
</event>
<event>
 7    1  0.5642630E-013  0.5052887E+02  0.7816164E-02  0.1300439E+00
        -11   -1    0    0    0    0  0.00000000000E+00  0.00000000000E+00  0.45593999997E+02  0.45594000000E+02  0.51100000000E-03 0.  1.
         11   -1    0    0    0    0 -0.00000000000E+00 -0.00000000000E+00 -0.45593999997E+02  0.45594000000E+02  0.51100000000E-03 0. -1.
    9900012    2    1    2    0    0  0.83039328316E+01  0.39800975580E+02 -0.30368722625E+00  0.50528865927E+02  0.30000018472E+02 0.  0.
         12    1    1    2    0    0 -0.83039328316E+01 -0.39800975580E+02  0.30368722625E+00  0.40659134073E+02  0.00000000000E+00 0. -1.
         11    1    3    3    0    0 -0.17228079829E+01  0.44025599326E+01 -0.10518495821E+02  0.11532101106E+02  0.51100000000E-03 0. -1.
        -11    1    3    3    0    0 -0.11580440767E+01  0.13686060443E+01  0.21006970942E+00  0.18050701183E+01  0.51100000000E-03 0.  1.
        -12    1    3    3    0    0  0.11184784891E+02  0.34029809604E+02  0.10004738886E+02  0.37191694703E+02  0.00000000000E+00 0.  1.
</event>
<event>
 7    1  0.5642630E-013  0.5052885E+02  0.7816164E-02  0.1300439E+00
        -11   -1    0    0    0    0  0.00000000000E+00  0.00000000000E+00  0.45593999997E+02  0.45594000000E+02  0.51100000000E-03 0. -1.
         11   -1    0    0    0    0 -0.00000000000E+00 -0.00000000000E+00 -0.45593999997E+02  0.45594000000E+02  0.51100000000E-03 0.  1.
    9900012    2    1    2    0    0 -0.32205399720E+02  0.80101270497E+01 -0.23490782184E+02  0.50528846614E+02  0.29999959767E+02 0.  0.
         12    1    1    2    0    0  0.32205399720E+02 -0.80101270497E+01  0.23490782184E+02  0.40659153386E+02  0.00000000000E+00 0. -1.
         11    1    3    3    0    0 -0.71368181565E+01  0.71431077703E+01 -0.10593145606E+02  0.14634647113E+02  0.51100000000E-03 0. -1.
        -11    1    3    3    0    0 -0.22357844390E+02  0.55736360096E+01 -0.12894212413E+01  0.23078154855E+02  0.51100000000E-03 0.  1.
        -12    1    3    3    0    0 -0.27107371737E+01 -0.47066167303E+01 -0.11608215336E+02  0.12816044646E+02  0.00000000000E+00 0.  1.
</event>
<event>
 7    1  0.5642630E-013  0.5052880E+02  0.7816164E-02  0.1300439E+00
        -11   -1    0    0    0    0  0.00000000000E+00  0.00000000000E+00  0.45593999997E+02  0.45594000000E+02  0.51100000000E-03 0.  1.
         11   -1    0    0    0    0 -0.00000000000E+00 -0.00000000000E+00 -0.45593999997E+02  0.45594000000E+02  0.51100000000E-03 0. -1.
    9900012    2    1    2    0    0 -0.33452250757E+01  0.27536341566E+01  0.40427683737E+02  0.50528798775E+02  0.29999814357E+02 0.  0.
         12    1    1    2    0    0  0.33452250757E+01 -0.27536341566E+01 -0.40427683737E+02  0.40659201225E+02  0.00000000000E+00 0. -1.
         11    1    3    3    0    0 -0.55685381324E+01 -0.16264407778E+01  0.10764067667E+01  0.59002184980E+01  0.51100000000E-03 0. -1.
        -11    1    3    3    0    0  0.90531886042E+01 -0.41967178016E+01  0.16489700836E+02  0.19273891619E+02  0.51100000000E-03 0.  1.
         12    1    3    3    0    0 -0.68298755475E+01  0.85767927359E+01  0.22861576134E+02  0.25354688659E+02  0.00000000000E+00 0. -1.
</event>
<event>
 7    1  0.5642630E-013  0.5052886E+02  0.7816164E-02  0.1300439E+00
        -11   -1    0    0    0    0  0.00000000000E+00  0.00000000000E+00  0.45593999997E+02  0.45594000000E+02  0.51100000000E-03 0.  1.
         11   -1    0    0    0    0 -0.00000000000E+00 -0.00000000000E+00 -0.45593999997E+02  0.45594000000E+02  0.51100000000E-03 0. -1.
    9900012    2    1    2    0    0 -0.11058750064E+01 -0.29699664033E+02  0.27746582401E+02  0.50528857877E+02  0.29999994004E+02 0.  0.
         12    1    1    2    0    0  0.11058750064E+01  0.29699664033E+02 -0.27746582401E+02  0.40659142123E+02  0.00000000000E+00 0. -1.
         11    1    3    3    0    0  0.68992083059E+01 -0.12528783323E+02  0.43155058426E+01  0.14939647846E+02  0.51100000000E-03 0. -1.
        -11    1    3    3    0    0 -0.29414201755E+01 -0.29832492120E+01 -0.30095242160E+01  0.51583878080E+01  0.51100000000E-03 0.  1.
        -12    1    3    3    0    0 -0.50636631368E+01 -0.14187631498E+02  0.26440600775E+02  0.30430822224E+02  0.00000000000E+00 0.  1.
</event>
<event>
 7    1  0.5642630E-013  0.5052886E+02  0.7816164E-02  0.1300439E+00
        -11   -1    0    0    0    0  0.00000000000E+00  0.00000000000E+00  0.45593999997E+02  0.45594000000E+02  0.51100000000E-03 0.  1.
         11   -1    0    0    0    0 -0.00000000000E+00 -0.00000000000E+00 -0.45593999997E+02  0.45594000000E+02  0.51100000000E-03 0. -1.
    9900012    2    1    2    0    0 -0.15961982591E+02 -0.17335368985E+02  0.33134054290E+02  0.50528862531E+02  0.30000008148E+02 0.  0.
         12    1    1    2    0    0  0.15961982591E+02  0.17335368985E+02 -0.33134054290E+02  0.40659137469E+02  0.00000000000E+00 0. -1.
         11    1    3    3    0    0 -0.98361953166E+01  0.38880954701E+01  0.30442100249E+01  0.11006145539E+02  0.51100000000E-03 0. -1.
        -11    1    3    3    0    0 -0.30831698910E+01 -0.13107579653E+02  0.76946788754E+01  0.15508793125E+02  0.51100000000E-03 0.  1.
        -12    1    3    3    0    0 -0.30426173829E+01 -0.81158848026E+01  0.22395165389E+02  0.24013923867E+02  0.00000000000E+00 0.  1.
</event>
<event>
 7    1  0.5642630E-013  0.5052887E+02  0.7816164E-02  0.1300439E+00
        -11   -1    0    0    0    0  0.00000000000E+00  0.00000000000E+00  0.45593999997E+02  0.45594000000E+02  0.51100000000E-03 0. -1.
         11   -1    0    0    0    0 -0.00000000000E+00 -0.00000000000E+00 -0.45593999997E+02  0.45594000000E+02  0.51100000000E-03 0.  1.
    9900012    2    1    2    0    0 -0.28565239813E+01 -0.75288164521E+01 -0.39853755842E+02  0.50528872351E+02  0.30000037999E+02 0.  0.
         12    1    1    2    0    0  0.28565239813E+01  0.75288164521E+01  0.39853755842E+02  0.40659127649E+02  0.00000000000E+00 0. -1.
         11    1    3    3    0    0 -0.59781204687E+01  0.44632846221E+01 -0.14806533625E+02  0.16579875518E+02  0.51100000000E-03 0.  1.
        -11    1    3    3    0    0 -0.60131582877E+01 -0.46205502454E+01 -0.19585601342E+02  0.21002460269E+02  0.51100000000E-03 0. -1.
         12    1    3    3    0    0  0.91347547751E+01 -0.73715508287E+01 -0.54616208750E+01  0.12946536564E+02  0.00000000000E+00 0. -1.
</event>
<event>
 7    1  0.5642630E-013  0.5052887E+02  0.7816164E-02  0.1300439E+00
        -11   -1    0    0    0    0  0.00000000000E+00  0.00000000000E+00  0.45593999997E+02  0.45594000000E+02  0.51100000000E-03 0.  1.
         11   -1    0    0    0    0 -0.00000000000E+00 -0.00000000000E+00 -0.45593999997E+02  0.45594000000E+02  0.51100000000E-03 0. -1.
    9900012    2    1    2    0    0  0.32762623453E+01  0.39013383464E+02  0.10972099683E+02  0.50528868729E+02  0.30000026990E+02 0.  0.
         12    1    1    2    0    0 -0.32762623453E+01 -0.39013383464E+02 -0.10972099683E+02  0.40659131271E+02  0.00000000000E+00 0. -1.
         11    1    3    3    0    0  0.11902950128E+01  0.20158552155E+02 -0.90365073169E+01  0.22123347214E+02  0.51100000000E-03 0. -1.
        -11    1    3    3    0    0 -0.40314083595E+00  0.10128832192E+01  0.45144573679E+01  0.46442201216E+01  0.51100000000E-03 0.  1.
        -12    1    3    3    0    0  0.24891081684E+01  0.17841948089E+02  0.15494149632E+02  0.23761301393E+02  0.00000000000E+00 0.  1.
</event>
<event>
 7    1  0.5642630E-013  0.5052887E+02  0.7816164E-02  0.1300439E+00
        -11   -1    0    0    0    0  0.00000000000E+00  0.00000000000E+00  0.45593999997E+02  0.45594000000E+02  0.51100000000E-03 0. -1.
         11   -1    0    0    0    0 -0.00000000000E+00 -0.00000000000E+00 -0.45593999997E+02  0.45594000000E+02  0.51100000000E-03 0.  1.
    9900012    2    1    2    0    0  0.87609591890E+01  0.39549793788E+02  0.34963147899E+01  0.50528870500E+02  0.30000032371E+02 0.  0.
         12    1    1    2    0    0 -0.87609591890E+01 -0.39549793788E+02 -0.34963147899E+01  0.40659129500E+02  0.00000000000E+00 0. -1.
         11    1    3    3    0    0  0.12105939855E+01  0.65896936883E+01 -0.13620434454E+01  0.68370142103E+01  0.51100000000E-03 0. -1.
        -11    1    3    3    0    0  0.18239101158E+01  0.64312332961E+01 -0.10545100003E+02  0.12485453302E+02  0.51100000000E-03 0.  1.
         12    1    3    3    0    0  0.57264550877E+01  0.26528866804E+02  0.15403458238E+02  0.31206402988E+02  0.00000000000E+00 0. -1.
</event>
<event>
 7    1  0.5642630E-013  0.5052887E+02  0.7816164E-02  0.1300439E+00
        -11   -1    0    0    0    0  0.00000000000E+00  0.00000000000E+00  0.45593999997E+02  0.45594000000E+02  0.51100000000E-03 0.  1.
         11   -1    0    0    0    0 -0.00000000000E+00 -0.00000000000E+00 -0.45593999997E+02  0.45594000000E+02  0.51100000000E-03 0. -1.
    9900012    2    1    2    0    0 -0.28747598053E+02  0.27881426989E+02  0.70261467757E+01  0.50528866915E+02  0.30000021474E+02 0.  0.
         12    1    1    2    0    0  0.28747598053E+02 -0.27881426989E+02 -0.70261467757E+01  0.40659133085E+02  0.00000000000E+00 0. -1.
         11    1    3    3    0    0 -0.15787378048E+01  0.98501080882E+00 -0.37083246895E+01  0.41490157403E+01  0.51100000000E-03 0. -1.
        -11    1    3    3    0    0 -0.74142891535E+01  0.19334190264E+02 -0.33372520050E+01  0.20974266328E+02  0.51100000000E-03 0.  1.
         12    1    3    3    0    0 -0.19754571095E+02  0.75622259162E+01  0.14071723470E+02  0.25405584846E+02  0.00000000000E+00 0. -1.
</event>
<event>
 7    1  0.5642630E-013  0.5052891E+02  0.7816164E-02  0.1300439E+00
        -11   -1    0    0    0    0  0.00000000000E+00  0.00000000000E+00  0.45593999997E+02  0.45594000000E+02  0.51100000000E-03 0.  1.
         11   -1    0    0    0    0 -0.00000000000E+00 -0.00000000000E+00 -0.45593999997E+02  0.45594000000E+02  0.51100000000E-03 0. -1.
    9900012    2    1    2    0    0 -0.11812267452E+02 -0.12890701672E+02  0.36707786155E+02  0.50528912254E+02  0.30000159287E+02 0.  0.
         12    1    1    2    0    0  0.11812267452E+02  0.12890701672E+02 -0.36707786155E+02  0.40659087746E+02  0.00000000000E+00 0. -1.
         11    1    3    3    0    0  0.45393454307E+00  0.10037461904E+01  0.13065560484E+01  0.17089915017E+01  0.51100000000E-03 0. -1.
        -11    1    3    3    0    0 -0.18236159462E+02 -0.45342076720E+01  0.32171775711E+02  0.37257746897E+02  0.51100000000E-03 0.  1.
        -12    1    3    3    0    0  0.59699574667E+01 -0.93602401907E+01  0.32294543949E+01  0.11562173856E+02  0.00000000000E+00 0.  1.
</event>
<event>
 7    1  0.5642630E-013  0.5052885E+02  0.7816164E-02  0.1300439E+00
        -11   -1    0    0    0    0  0.00000000000E+00  0.00000000000E+00  0.45593999997E+02  0.45594000000E+02  0.51100000000E-03 0. -1.
         11   -1    0    0    0    0 -0.00000000000E+00 -0.00000000000E+00 -0.45593999997E+02  0.45594000000E+02  0.51100000000E-03 0.  1.
    9900012    2    1    2    0    0  0.11221498207E+02 -0.38310649787E+02 -0.77161062379E+01  0.50528853371E+02  0.29999980308E+02 0.  0.
         12    1    1    2    0    0 -0.11221498207E+02  0.38310649787E+02  0.77161062379E+01  0.40659146629E+02  0.00000000000E+00 0. -1.
         11    1    3    3    0    0  0.67674734084E+00 -0.19514321645E+02  0.11714976819E+01  0.19561164160E+02  0.51100000000E-03 0.  1.
        -11    1    3    3    0    0 -0.35637315082E+01 -0.63182437644E+01 -0.97034511047E+01  0.12115170248E+02  0.51100000000E-03 0. -1.
        -12    1    3    3    0    0  0.14108482374E+02 -0.12478084377E+02  0.81584718494E+00  0.18852518963E+02  0.00000000000E+00 0.  1.
</event>
<event>
 7    1  0.5642630E-013  0.5052886E+02  0.7816164E-02  0.1300439E+00
        -11   -1    0    0    0    0  0.00000000000E+00  0.00000000000E+00  0.45593999997E+02  0.45594000000E+02  0.51100000000E-03 0.  1.
         11   -1    0    0    0    0 -0.00000000000E+00 -0.00000000000E+00 -0.45593999997E+02  0.45594000000E+02  0.51100000000E-03 0. -1.
    9900012    2    1    2    0    0  0.54835989557E+01  0.16464065542E+02  0.36769966761E+02  0.50528858748E+02  0.29999996652E+02 0.  0.
         12    1    1    2    0    0 -0.54835989557E+01 -0.16464065542E+02 -0.36769966761E+02  0.40659141252E+02  0.00000000000E+00 0. -1.
         11    1    3    3    0    0 -0.63829645371E+01  0.63245923859E+01  0.20529155234E+02  0.22409572063E+02  0.51100000000E-03 0. -1.
        -11    1    3    3    0    0  0.37183662830E+01 -0.46137533011E+01  0.27579461976E+01  0.65359953204E+01  0.51100000000E-03 0.  1.
        -12    1    3    3    0    0  0.81481972098E+01  0.14753226458E+02  0.13482865329E+02  0.21583291365E+02  0.00000000000E+00 0.  1.
</event>
<event>
 7    1  0.5642630E-013  0.5052886E+02  0.7816164E-02  0.1300439E+00
        -11   -1    0    0    0    0  0.00000000000E+00  0.00000000000E+00  0.45593999997E+02  0.45594000000E+02  0.51100000000E-03 0. -1.
         11   -1    0    0    0    0 -0.00000000000E+00 -0.00000000000E+00 -0.45593999997E+02  0.45594000000E+02  0.51100000000E-03 0.  1.
    9900012    2    1    2    0    0  0.87033689704E+01 -0.81272957032E+01 -0.38876267044E+02  0.50528859500E+02  0.29999998937E+02 0.  0.
         12    1    1    2    0    0 -0.87033689704E+01  0.81272957032E+01  0.38876267044E+02  0.40659140500E+02  0.00000000000E+00 0. -1.
         11    1    3    3    0    0  0.87165526315E+01  0.16710311024E+01 -0.10061457392E+02  0.13416540532E+02  0.51100000000E-03 0. -1.
        -11    1    3    3    0    0  0.96545890986E+01 -0.71025899732E-01 -0.11164796347E+02  0.14760379842E+02  0.51100000000E-03 0.  1.
         12    1    3    3    0    0 -0.96677727597E+01 -0.97273009059E+01 -0.17650013305E+02  0.22351939126E+02  0.00000000000E+00 0. -1.
</event>
<event>
 7    1  0.5642630E-013  0.5052887E+02  0.7816164E-02  0.1300439E+00
        -11   -1    0    0    0    0  0.00000000000E+00  0.00000000000E+00  0.45593999997E+02  0.45594000000E+02  0.51100000000E-03 0.  1.
         11   -1    0    0    0    0 -0.00000000000E+00 -0.00000000000E+00 -0.45593999997E+02  0.45594000000E+02  0.51100000000E-03 0. -1.
    9900012    2    1    2    0    0 -0.10370030480E+02 -0.38217811405E+02  0.92209874468E+01  0.50528865107E+02  0.30000015980E+02 0.  0.
         12    1    1    2    0    0  0.10370030480E+02  0.38217811405E+02 -0.92209874468E+01  0.40659134893E+02  0.00000000000E+00 0. -1.
         11    1    3    3    0    0 -0.38134209940E+01 -0.60561201738E+01 -0.59612164582E+01  0.93142296063E+01  0.51100000000E-03 0. -1.
        -11    1    3    3    0    0 -0.11424047943E+02 -0.21541395328E+02  0.33942869429E+01  0.24618321799E+02  0.51100000000E-03 0.  1.
        -12    1    3    3    0    0  0.48674384566E+01 -0.10620295903E+02  0.11787916962E+02  0.16596313702E+02  0.00000000000E+00 0.  1.
</event>
<event>
 7    1  0.5642630E-013  0.5052886E+02  0.7816164E-02  0.1300439E+00
        -11   -1    0    0    0    0  0.00000000000E+00  0.00000000000E+00  0.45593999997E+02  0.45594000000E+02  0.51100000000E-03 0. -1.
         11   -1    0    0    0    0 -0.00000000000E+00 -0.00000000000E+00 -0.45593999997E+02  0.45594000000E+02  0.51100000000E-03 0.  1.
    9900012    2    1    2    0    0 -0.42821619179E+01 -0.38914357126E+02  0.10977307724E+02  0.50528863437E+02  0.30000010903E+02 0.  0.
         12    1    1    2    0    0  0.42821619179E+01  0.38914357126E+02 -0.10977307724E+02  0.40659136563E+02  0.00000000000E+00 0. -1.
         11    1    3    3    0    0  0.55189010930E+00 -0.72094258008E+01  0.34129130078E+01  0.79955224051E+01  0.51100000000E-03 0. -1.
        -11    1    3    3    0    0  0.15591804516E+01 -0.25340914407E+02  0.16141708054E+02  0.30085673099E+02  0.51100000000E-03 0.  1.
         12    1    3    3    0    0 -0.63932324789E+01 -0.63640169178E+01 -0.85773133381E+01  0.12447667933E+02  0.00000000000E+00 0. -1.
</event>
<event>
 7    1  0.5642630E-013  0.5052885E+02  0.7816164E-02  0.1300439E+00
        -11   -1    0    0    0    0  0.00000000000E+00  0.00000000000E+00  0.45593999997E+02  0.45594000000E+02  0.51100000000E-03 0. -1.
         11   -1    0    0    0    0 -0.00000000000E+00 -0.00000000000E+00 -0.45593999997E+02  0.45594000000E+02  0.51100000000E-03 0.  1.
    9900012    2    1    2    0    0 -0.73829737997E+01  0.37499303669E+02 -0.13872995513E+02  0.50528854875E+02  0.29999984879E+02 0.  0.
         12    1    1    2    0    0  0.73829737997E+01 -0.37499303669E+02  0.13872995513E+02  0.40659145125E+02  0.00000000000E+00 0. -1.
         11    1    3    3    0    0 -0.20440023322E+01 -0.99141877629E+00 -0.51600638796E+01  0.56380064053E+01  0.51100000000E-03 0. -1.
        -11    1    3    3    0    0 -0.13302192612E+01 -0.17173589848E+01  0.21420726818E+01  0.30507836371E+01  0.51100000000E-03 0.  1.
        -12    1    3    3    0    0 -0.40087522063E+01  0.40208081430E+02 -0.10855004315E+02  0.41840064833E+02  0.00000000000E+00 0.  1.
</event>
<event>
 7    1  0.5642630E-013  0.5052885E+02  0.7816164E-02  0.1300439E+00
        -11   -1    0    0    0    0  0.00000000000E+00  0.00000000000E+00  0.45593999997E+02  0.45594000000E+02  0.51100000000E-03 0.  1.
         11   -1    0    0    0    0 -0.00000000000E+00 -0.00000000000E+00 -0.45593999997E+02  0.45594000000E+02  0.51100000000E-03 0. -1.
    9900012    2    1    2    0    0  0.24092549673E+02 -0.30159512202E+02  0.12771826457E+02  0.50528847561E+02  0.29999962646E+02 0.  0.
         12    1    1    2    0    0 -0.24092549673E+02  0.30159512202E+02 -0.12771826457E+02  0.40659152439E+02  0.00000000000E+00 0. -1.
         11    1    3    3    0    0 -0.40934590844E+01 -0.71025696097E+01  0.26969144375E+01  0.86299623452E+01  0.51100000000E-03 0.  1.
        -11    1    3    3    0    0  0.17378877306E+01 -0.17434970289E+01  0.74319975134E+01  0.78290882581E+01  0.51100000000E-03 0. -1.
        -12    1    3    3    0    0  0.26448121027E+02 -0.21313445564E+02  0.26429145060E+01  0.34069796958E+02  0.00000000000E+00 0.  1.
</event>
<event>
 7    1  0.5642630E-013  0.5052886E+02  0.7816164E-02  0.1300439E+00
        -11   -1    0    0    0    0  0.00000000000E+00  0.00000000000E+00  0.45593999997E+02  0.45594000000E+02  0.51100000000E-03 0.  1.
         11   -1    0    0    0    0 -0.00000000000E+00 -0.00000000000E+00 -0.45593999997E+02  0.45594000000E+02  0.51100000000E-03 0. -1.
    9900012    2    1    2    0    0  0.20356501016E+02 -0.23327908793E+02  0.26355028267E+02  0.50528856168E+02  0.29999988808E+02 0.  0.
         12    1    1    2    0    0 -0.20356501016E+02  0.23327908793E+02 -0.26355028267E+02  0.40659143832E+02  0.00000000000E+00 0. -1.
         11    1    3    3    0    0  0.55504838210E+00 -0.82572057817E+01 -0.92014684571E+00  0.83268359241E+01  0.51100000000E-03 0. -1.
        -11    1    3    3    0    0  0.23668443719E+01 -0.38119346408E+01 -0.30713084507E+01  0.54374381695E+01  0.51100000000E-03 0.  1.
        -12    1    3    3    0    0  0.17434608262E+02 -0.11258768370E+02  0.30346483563E+02  0.36764582074E+02  0.00000000000E+00 0.  1.
</event>
<event>
 7    1  0.5642630E-013  0.5052885E+02  0.7816164E-02  0.1300439E+00
        -11   -1    0    0    0    0  0.00000000000E+00  0.00000000000E+00  0.45593999997E+02  0.45594000000E+02  0.51100000000E-03 0.  1.
         11   -1    0    0    0    0 -0.00000000000E+00 -0.00000000000E+00 -0.45593999997E+02  0.45594000000E+02  0.51100000000E-03 0. -1.
    9900012    2    1    2    0    0  0.45092420284E+01 -0.37519201838E+02  0.15004747317E+02  0.50528853277E+02  0.29999980021E+02 0.  0.
         12    1    1    2    0    0 -0.45092420284E+01  0.37519201838E+02 -0.15004747317E+02  0.40659146723E+02  0.00000000000E+00 0. -1.
         11    1    3    3    0    0  0.42361162660E+01 -0.25556866983E+02  0.15689062878E+02  0.30286050011E+02  0.51100000000E-03 0. -1.
        -11    1    3    3    0    0 -0.13358562979E+01 -0.14005183222E+02  0.42231682196E+01  0.14688935265E+02  0.51100000000E-03 0.  1.
         12    1    3    3    0    0  0.16089820603E+01  0.20428483675E+01 -0.49074837807E+01  0.55538680017E+01  0.00000000000E+00 0. -1.
</event>
<event>
 7    1  0.5642630E-013  0.5052886E+02  0.7816164E-02  0.1300439E+00
        -11   -1    0    0    0    0  0.00000000000E+00  0.00000000000E+00  0.45593999997E+02  0.45594000000E+02  0.51100000000E-03 0.  1.
         11   -1    0    0    0    0 -0.00000000000E+00 -0.00000000000E+00 -0.45593999997E+02  0.45594000000E+02  0.51100000000E-03 0. -1.
    9900012    2    1    2    0    0 -0.13987409376E+02 -0.11826515277E+02  0.36299465570E+02  0.50528864676E+02  0.30000014669E+02 0.  0.
         12    1    1    2    0    0  0.13987409376E+02  0.11826515277E+02 -0.36299465570E+02  0.40659135324E+02  0.00000000000E+00 0. -1.
         11    1    3    3    0    0  0.47807497526E+01  0.70839372437E+00  0.23073442668E+02  0.23574162693E+02  0.51100000000E-03 0. -1.
        -11    1    3    3    0    0 -0.30946334287E+01 -0.53328421095E-01  0.35331355094E+01  0.46970891802E+01  0.51100000000E-03 0.  1.
         12    1    3    3    0    0 -0.15673525700E+02 -0.12481580580E+02  0.96928873921E+01  0.22257612802E+02  0.00000000000E+00 0. -1.
</event>
<event>
 7    1  0.5642630E-013  0.5052886E+02  0.7816164E-02  0.1300439E+00
        -11   -1    0    0    0    0  0.00000000000E+00  0.00000000000E+00  0.45593999997E+02  0.45594000000E+02  0.51100000000E-03 0.  1.
         11   -1    0    0    0    0 -0.00000000000E+00 -0.00000000000E+00 -0.45593999997E+02  0.45594000000E+02  0.51100000000E-03 0. -1.
    9900012    2    1    2    0    0 -0.44311413219E+01 -0.23029249484E+02  0.33214222712E+02  0.50528856680E+02  0.29999990363E+02 0.  0.
         12    1    1    2    0    0  0.44311413219E+01  0.23029249484E+02 -0.33214222712E+02  0.40659143320E+02  0.00000000000E+00 0. -1.
         11    1    3    3    0    0 -0.47001298153E+01  0.31045890514E+01  0.15791689976E+02  0.16766250804E+02  0.51100000000E-03 0. -1.
        -11    1    3    3    0    0 -0.15304597372E+01 -0.49540977971E+01 -0.13997712159E+01  0.53707310218E+01  0.51100000000E-03 0.  1.
        -12    1    3    3    0    0  0.17994482306E+01 -0.21179740738E+02  0.18822303951E+02  0.28391874854E+02  0.00000000000E+00 0.  1.
</event>
<event>
 7    1  0.5642630E-013  0.5052886E+02  0.7816164E-02  0.1300439E+00
        -11   -1    0    0    0    0  0.00000000000E+00  0.00000000000E+00  0.45593999997E+02  0.45594000000E+02  0.51100000000E-03 0. -1.
         11   -1    0    0    0    0 -0.00000000000E+00 -0.00000000000E+00 -0.45593999997E+02  0.45594000000E+02  0.51100000000E-03 0.  1.
    9900012    2    1    2    0    0 -0.13050314645E+02  0.33266609317E+02  0.19395562117E+02  0.50528857884E+02  0.29999994025E+02 0.  0.
         12    1    1    2    0    0  0.13050314645E+02 -0.33266609317E+02 -0.19395562117E+02  0.40659142116E+02  0.00000000000E+00 0. -1.
         11    1    3    3    0    0 -0.39706961479E+01 -0.15645300844E+01  0.79503614197E+01  0.90234377733E+01  0.51100000000E-03 0. -1.
        -11    1    3    3    0    0 -0.11862132197E+02  0.12753751043E+02  0.28402273694E+01  0.17647527807E+02  0.51100000000E-03 0.  1.
        -12    1    3    3    0    0  0.27825137004E+01  0.22077388358E+02  0.86049733279E+01  0.23857892304E+02  0.00000000000E+00 0.  1.
</event>
<event>
 7    1  0.5642630E-013  0.5052886E+02  0.7816164E-02  0.1300439E+00
        -11   -1    0    0    0    0  0.00000000000E+00  0.00000000000E+00  0.45593999997E+02  0.45594000000E+02  0.51100000000E-03 0. -1.
         11   -1    0    0    0    0 -0.00000000000E+00 -0.00000000000E+00 -0.45593999997E+02  0.45594000000E+02  0.51100000000E-03 0.  1.
    9900012    2    1    2    0    0 -0.18206472998E+02 -0.12480495337E+02 -0.34145672362E+02  0.50528863709E+02  0.30000011730E+02 0.  0.
         12    1    1    2    0    0  0.18206472998E+02  0.12480495337E+02  0.34145672362E+02  0.40659136291E+02  0.00000000000E+00 0. -1.
         11    1    3    3    0    0  0.29546596436E+01 -0.70533386697E+01 -0.32762101482E+01  0.83194442841E+01  0.51100000000E-03 0. -1.
        -11    1    3    3    0    0  0.31369218203E+01 -0.53681150907E+00 -0.74865624459E+01  0.81349285566E+01  0.51100000000E-03 0.  1.
        -12    1    3    3    0    0 -0.24298054462E+02 -0.48903451579E+01 -0.23382899768E+02  0.34074490868E+02  0.00000000000E+00 0.  1.
</event>
<event>
 7    1  0.5642630E-013  0.5052885E+02  0.7816164E-02  0.1300439E+00
        -11   -1    0    0    0    0  0.00000000000E+00  0.00000000000E+00  0.45593999997E+02  0.45594000000E+02  0.51100000000E-03 0.  1.
         11   -1    0    0    0    0 -0.00000000000E+00 -0.00000000000E+00 -0.45593999997E+02  0.45594000000E+02  0.51100000000E-03 0. -1.
    9900012    2    1    2    0    0  0.43997398106E+01  0.29993184148E+02  0.27096447100E+02  0.50528852798E+02  0.29999978564E+02 0.  0.
         12    1    1    2    0    0 -0.43997398106E+01 -0.29993184148E+02 -0.27096447100E+02  0.40659147202E+02  0.00000000000E+00 0. -1.
         11    1    3    3    0    0 -0.23998953338E+01  0.33575593574E+01 -0.48664043017E+01  0.63807988168E+01  0.51100000000E-03 0. -1.
        -11    1    3    3    0    0  0.74415847604E+01  0.71295500604E+01  0.69859562760E+01  0.12450351528E+02  0.51100000000E-03 0.  1.
        -12    1    3    3    0    0 -0.64194961596E+00  0.19506074730E+02  0.24976895126E+02  0.31697702454E+02  0.00000000000E+00 0.  1.
</event>
<event>
 7    1  0.5642630E-013  0.5052886E+02  0.7816164E-02  0.1300439E+00
        -11   -1    0    0    0    0  0.00000000000E+00  0.00000000000E+00  0.45593999997E+02  0.45594000000E+02  0.51100000000E-03 0.  1.
         11   -1    0    0    0    0 -0.00000000000E+00 -0.00000000000E+00 -0.45593999997E+02  0.45594000000E+02  0.51100000000E-03 0. -1.
    9900012    2    1    2    0    0 -0.95191513623E+01  0.27993994343E+02  0.27908556259E+02  0.50528862351E+02  0.30000007602E+02 0.  0.
         12    1    1    2    0    0  0.95191513623E+01 -0.27993994343E+02 -0.27908556259E+02  0.40659137649E+02  0.00000000000E+00 0. -1.
         11    1    3    3    0    0 -0.29351465993E+01 -0.14966550966E+01  0.14567958764E+00  0.32979212909E+01  0.51100000000E-03 0. -1.
        -11    1    3    3    0    0 -0.76874198428E+01 -0.94866669806E+00  0.53328457261E+01  0.94040223385E+01  0.51100000000E-03 0.  1.
        -12    1    3    3    0    0  0.11034150799E+01  0.30439316138E+02  0.22430030945E+02  0.37826918721E+02  0.00000000000E+00 0.  1.
</event>
<event>
 7    1  0.5642630E-013  0.5052886E+02  0.7816164E-02  0.1300439E+00
        -11   -1    0    0    0    0  0.00000000000E+00  0.00000000000E+00  0.45593999997E+02  0.45594000000E+02  0.51100000000E-03 0.  1.
         11   -1    0    0    0    0 -0.00000000000E+00 -0.00000000000E+00 -0.45593999997E+02  0.45594000000E+02  0.51100000000E-03 0. -1.
    9900012    2    1    2    0    0  0.31630077884E+01 -0.37534883028E+02  0.15306658024E+02  0.50528857829E+02  0.29999993858E+02 0.  0.
         12    1    1    2    0    0 -0.31630077884E+01  0.37534883028E+02 -0.15306658024E+02  0.40659142171E+02  0.00000000000E+00 0. -1.
         11    1    3    3    0    0 -0.17765040476E+01  0.25497180700E+00 -0.47637349260E+01  0.50905940675E+01  0.51100000000E-03 0. -1.
        -11    1    3    3    0    0 -0.40320657159E+01 -0.17412512520E+02  0.50237976133E+01  0.18565874311E+02  0.51100000000E-03 0.  1.
        -12    1    3    3    0    0  0.89715775519E+01 -0.20377342315E+02  0.15046595336E+02  0.26872389451E+02  0.00000000000E+00 0.  1.
</event>
<event>
 7    1  0.5642630E-013  0.5052886E+02  0.7816164E-02  0.1300439E+00
        -11   -1    0    0    0    0  0.00000000000E+00  0.00000000000E+00  0.45593999997E+02  0.45594000000E+02  0.51100000000E-03 0.  1.
         11   -1    0    0    0    0 -0.00000000000E+00 -0.00000000000E+00 -0.45593999997E+02  0.45594000000E+02  0.51100000000E-03 0. -1.
    9900012    2    1    2    0    0  0.17914214761E+02 -0.18677772107E+02  0.31359013266E+02  0.50528856202E+02  0.29999988911E+02 0.  0.
         12    1    1    2    0    0 -0.17914214761E+02  0.18677772107E+02 -0.31359013266E+02  0.40659143798E+02  0.00000000000E+00 0. -1.
         11    1    3    3    0    0 -0.24128754336E+01 -0.42272938478E+01  0.50597057959E+01  0.70208691866E+01  0.51100000000E-03 0. -1.
        -11    1    3    3    0    0  0.21934764590E+02 -0.17207871822E+02  0.28312212046E+02  0.39734444773E+02  0.51100000000E-03 0.  1.
         12    1    3    3    0    0 -0.16076743954E+01  0.27573935627E+01 -0.20129045756E+01  0.37735422419E+01  0.00000000000E+00 0. -1.
</event>
<event>
 7    1  0.5642630E-013  0.5052886E+02  0.7816164E-02  0.1300439E+00
        -11   -1    0    0    0    0  0.00000000000E+00  0.00000000000E+00  0.45593999997E+02  0.45594000000E+02  0.51100000000E-03 0.  1.
         11   -1    0    0    0    0 -0.00000000000E+00 -0.00000000000E+00 -0.45593999997E+02  0.45594000000E+02  0.51100000000E-03 0. -1.
    9900012    2    1    2    0    0  0.26790252373E+02  0.30507133348E+02  0.21823672722E+01  0.50528861615E+02  0.30000005364E+02 0.  0.
         12    1    1    2    0    0 -0.26790252373E+02 -0.30507133348E+02 -0.21823672722E+01  0.40659138385E+02  0.00000000000E+00 0. -1.
         11    1    3    3    0    0  0.41403991006E-01  0.45258056858E+01  0.32805097353E+01  0.55898457744E+01  0.51100000000E-03 0. -1.
        -11    1    3    3    0    0  0.58769430704E+01  0.23041039351E+02  0.65946077423E+00  0.23787871762E+02  0.51100000000E-03 0.  1.
         12    1    3    3    0    0  0.20871905311E+02  0.29402883119E+01 -0.17576032374E+01  0.21151144078E+02  0.00000000000E+00 0. -1.
</event>
<event>
 7    1  0.5642630E-013  0.5052886E+02  0.7816164E-02  0.1300439E+00
        -11   -1    0    0    0    0  0.00000000000E+00  0.00000000000E+00  0.45593999997E+02  0.45594000000E+02  0.51100000000E-03 0. -1.
         11   -1    0    0    0    0 -0.00000000000E+00 -0.00000000000E+00 -0.45593999997E+02  0.45594000000E+02  0.51100000000E-03 0.  1.
    9900012    2    1    2    0    0 -0.88507615681E+01 -0.81152656298E+01 -0.38845494838E+02  0.50528856062E+02  0.29999988487E+02 0.  0.
         12    1    1    2    0    0  0.88507615681E+01  0.81152656298E+01  0.38845494838E+02  0.40659143938E+02  0.00000000000E+00 0. -1.
         11    1    3    3    0    0  0.45676004433E+01  0.67286882511E+01 -0.76259264656E+01  0.11148675890E+02  0.51100000000E-03 0. -1.
        -11    1    3    3    0    0 -0.11893390456E+02 -0.45510160836E+01 -0.11861783246E+02  0.17403056800E+02  0.51100000000E-03 0.  1.
        -12    1    3    3    0    0 -0.15249715555E+01 -0.10292937797E+02 -0.19357785125E+02  0.21977123372E+02  0.00000000000E+00 0.  1.
</event>
<event>
 7    1  0.5642630E-013  0.5052885E+02  0.7816164E-02  0.1300439E+00
        -11   -1    0    0    0    0  0.00000000000E+00  0.00000000000E+00  0.45593999997E+02  0.45594000000E+02  0.51100000000E-03 0.  1.
         11   -1    0    0    0    0 -0.00000000000E+00 -0.00000000000E+00 -0.45593999997E+02  0.45594000000E+02  0.51100000000E-03 0. -1.
    9900012    2    1    2    0    0 -0.47599966143E+01 -0.39636119772E+02  0.77127752518E+01  0.50528850225E+02  0.29999970745E+02 0.  0.
         12    1    1    2    0    0  0.47599966143E+01  0.39636119772E+02 -0.77127752518E+01  0.40659149775E+02  0.00000000000E+00 0. -1.
         11    1    3    3    0    0 -0.54753374544E+01 -0.73651165550E+01 -0.72862677177E+01  0.11718103926E+02  0.51100000000E-03 0. -1.
        -11    1    3    3    0    0  0.28520480270E+01 -0.18939316569E+01  0.62507509794E+01  0.71269238201E+01  0.51100000000E-03 0.  1.
         12    1    3    3    0    0 -0.21367071869E+01 -0.30377071560E+02  0.87482919901E+01  0.31683822479E+02  0.00000000000E+00 0. -1.
</event>
<event>
 7    1  0.5642630E-013  0.5052886E+02  0.7816164E-02  0.1300439E+00
        -11   -1    0    0    0    0  0.00000000000E+00  0.00000000000E+00  0.45593999997E+02  0.45594000000E+02  0.51100000000E-03 0. -1.
         11   -1    0    0    0    0 -0.00000000000E+00 -0.00000000000E+00 -0.45593999997E+02  0.45594000000E+02  0.51100000000E-03 0.  1.
    9900012    2    1    2    0    0 -0.38536996472E+02  0.12904479837E+02  0.12408815816E+01  0.50528862232E+02  0.30000007240E+02 0.  0.
         12    1    1    2    0    0  0.38536996472E+02 -0.12904479837E+02 -0.12408815816E+01  0.40659137768E+02  0.00000000000E+00 0. -1.
         11    1    3    3    0    0 -0.27991981282E+02 -0.48721392329E+01  0.75732408733E-01  0.28412928262E+02  0.51100000000E-03 0.  1.
        -11    1    3    3    0    0 -0.44692017045E+00  0.42033455114E+00  0.19260222476E+01  0.20213808976E+01  0.51100000000E-03 0. -1.
         12    1    3    3    0    0 -0.10098095020E+02  0.17356284519E+02 -0.76087307473E+00  0.20094553072E+02  0.00000000000E+00 0. -1.
</event>
<event>
 7    1  0.5642630E-013  0.5052887E+02  0.7816164E-02  0.1300439E+00
        -11   -1    0    0    0    0  0.00000000000E+00  0.00000000000E+00  0.45593999997E+02  0.45594000000E+02  0.51100000000E-03 0.  1.
         11   -1    0    0    0    0 -0.00000000000E+00 -0.00000000000E+00 -0.45593999997E+02  0.45594000000E+02  0.51100000000E-03 0. -1.
    9900012    2    1    2    0    0 -0.24493498622E+01 -0.27621652531E+02  0.29735661671E+02  0.50528873370E+02  0.30000041096E+02 0.  0.
         12    1    1    2    0    0  0.24493498622E+01  0.27621652531E+02 -0.29735661671E+02  0.40659126630E+02  0.00000000000E+00 0. -1.
         11    1    3    3    0    0 -0.21794379361E+01  0.10365109238E+00 -0.28214081060E+01  0.35666563092E+01  0.51100000000E-03 0. -1.
        -11    1    3    3    0    0  0.42131228949E+00 -0.40903387280E+00  0.13814639077E+02  0.13827113431E+02  0.51100000000E-03 0.  1.
        -12    1    3    3    0    0 -0.69122421565E+00 -0.27316269751E+02  0.18742430700E+02  0.33135103630E+02  0.00000000000E+00 0.  1.
</event>
<event>
 7    1  0.5642630E-013  0.5052886E+02  0.7816164E-02  0.1300439E+00
        -11   -1    0    0    0    0  0.00000000000E+00  0.00000000000E+00  0.45593999997E+02  0.45594000000E+02  0.51100000000E-03 0.  1.
         11   -1    0    0    0    0 -0.00000000000E+00 -0.00000000000E+00 -0.45593999997E+02  0.45594000000E+02  0.51100000000E-03 0. -1.
    9900012    2    1    2    0    0  0.47318593564E+01  0.12519624842E+02  0.38393151751E+02  0.50528860800E+02  0.30000002887E+02 0.  0.
         12    1    1    2    0    0 -0.47318593564E+01 -0.12519624842E+02 -0.38393151751E+02  0.40659139200E+02  0.00000000000E+00 0. -1.
         11    1    3    3    0    0  0.49849761296E+01 -0.50265065531E+01  0.73023576227E+01  0.10170554668E+02  0.51100000000E-03 0. -1.
        -11    1    3    3    0    0  0.62525157365E+01  0.21340815280E+01  0.17818757451E+02  0.19004114669E+02  0.51100000000E-03 0.  1.
        -12    1    3    3    0    0 -0.65056325097E+01  0.15412049868E+02  0.13272036677E+02  0.21354191463E+02  0.00000000000E+00 0.  1.
</event>
<event>
 7    1  0.5642630E-013  0.5052886E+02  0.7816164E-02  0.1300439E+00
        -11   -1    0    0    0    0  0.00000000000E+00  0.00000000000E+00  0.45593999997E+02  0.45594000000E+02  0.51100000000E-03 0. -1.
         11   -1    0    0    0    0 -0.00000000000E+00 -0.00000000000E+00 -0.45593999997E+02  0.45594000000E+02  0.51100000000E-03 0.  1.
    9900012    2    1    2    0    0 -0.86191217074E+01  0.24471269020E+02 -0.31305490523E+02  0.50528855846E+02  0.29999987830E+02 0.  0.
         12    1    1    2    0    0  0.86191217074E+01 -0.24471269020E+02  0.31305490523E+02  0.40659144154E+02  0.00000000000E+00 0. -1.
         11    1    3    3    0    0 -0.96159727846E+00  0.30189873052E+01 -0.25057104431E+01  0.40394973401E+01  0.51100000000E-03 0. -1.
        -11    1    3    3    0    0 -0.75924695426E+01  0.23062125149E+02 -0.33583829643E+02  0.41441293704E+02  0.51100000000E-03 0.  1.
         12    1    3    3    0    0 -0.65054886351E-01 -0.16098434345E+01  0.47840495629E+01  0.50480648017E+01  0.00000000000E+00 0. -1.
</event>
<event>
 7    1  0.5642630E-013  0.5052886E+02  0.7816164E-02  0.1300439E+00
        -11   -1    0    0    0    0  0.00000000000E+00  0.00000000000E+00  0.45593999997E+02  0.45594000000E+02  0.51100000000E-03 0. -1.
         11   -1    0    0    0    0 -0.00000000000E+00 -0.00000000000E+00 -0.45593999997E+02  0.45594000000E+02  0.51100000000E-03 0.  1.
    9900012    2    1    2    0    0  0.16324927722E+02 -0.20687005631E+02 -0.30963043215E+02  0.50528861885E+02  0.30000006186E+02 0.  0.
         12    1    1    2    0    0 -0.16324927722E+02  0.20687005631E+02  0.30963043215E+02  0.40659138115E+02  0.00000000000E+00 0. -1.
         11    1    3    3    0    0  0.11463922823E+02 -0.90926845120E+01 -0.50491333944E+01  0.15478765662E+02  0.51100000000E-03 0. -1.
        -11    1    3    3    0    0 -0.14011849935E+01 -0.59996842626E+00  0.30684890274E+01  0.34262087898E+01  0.51100000000E-03 0.  1.
        -12    1    3    3    0    0  0.62621898925E+01 -0.10994352693E+02 -0.28982398848E+02  0.31623887433E+02  0.00000000000E+00 0.  1.
</event>
<event>
 7    1  0.5642630E-013  0.5052887E+02  0.7816164E-02  0.1300439E+00
        -11   -1    0    0    0    0  0.00000000000E+00  0.00000000000E+00  0.45593999997E+02  0.45594000000E+02  0.51100000000E-03 0.  1.
         11   -1    0    0    0    0 -0.00000000000E+00 -0.00000000000E+00 -0.45593999997E+02  0.45594000000E+02  0.51100000000E-03 0. -1.
    9900012    2    1    2    0    0 -0.14122297373E+02 -0.85116188340E+00  0.38118256390E+02  0.50528865358E+02  0.30000016741E+02 0.  0.
         12    1    1    2    0    0  0.14122297373E+02  0.85116188340E+00 -0.38118256390E+02  0.40659134642E+02  0.00000000000E+00 0. -1.
         11    1    3    3    0    0  0.17988246402E+01  0.96444782578E+01  0.52785052320E+01  0.11140661951E+02  0.51100000000E-03 0. -1.
        -11    1    3    3    0    0  0.15184803175E+01 -0.49125071395E+00  0.17975993458E+01  0.24038455457E+01  0.51100000000E-03 0.  1.
        -12    1    3    3    0    0 -0.17439602331E+02 -0.10004389427E+02  0.31042151812E+02  0.36984357861E+02  0.00000000000E+00 0.  1.
</event>
<event>
 7    1  0.5642630E-013  0.5052887E+02  0.7816164E-02  0.1300439E+00
        -11   -1    0    0    0    0  0.00000000000E+00  0.00000000000E+00  0.45593999997E+02  0.45594000000E+02  0.51100000000E-03 0.  1.
         11   -1    0    0    0    0 -0.00000000000E+00 -0.00000000000E+00 -0.45593999997E+02  0.45594000000E+02  0.51100000000E-03 0. -1.
    9900012    2    1    2    0    0  0.12177819950E+02 -0.30658482948E+01  0.38671258268E+02  0.50528868916E+02  0.30000027556E+02 0.  0.
         12    1    1    2    0    0 -0.12177819950E+02  0.30658482948E+01 -0.38671258268E+02  0.40659131084E+02  0.00000000000E+00 0. -1.
         11    1    3    3    0    0 -0.89797394005E+00  0.44026830129E+01  0.38122725566E+01  0.58926562106E+01  0.51100000000E-03 0. -1.
        -11    1    3    3    0    0 -0.58709264409E+01  0.12800170983E+01  0.34576566347E+01  0.69326481745E+01  0.51100000000E-03 0.  1.
        -12    1    3    3    0    0  0.18946720331E+02 -0.87485484060E+01  0.31401329077E+02  0.37703564531E+02  0.00000000000E+00 0.  1.
</event>
<event>
 7    1  0.5642630E-013  0.5052886E+02  0.7816164E-02  0.1300439E+00
        -11   -1    0    0    0    0  0.00000000000E+00  0.00000000000E+00  0.45593999997E+02  0.45594000000E+02  0.51100000000E-03 0.  1.
         11   -1    0    0    0    0 -0.00000000000E+00 -0.00000000000E+00 -0.45593999997E+02  0.45594000000E+02  0.51100000000E-03 0. -1.
    9900012    2    1    2    0    0 -0.33775622227E+02  0.16989268925E+02  0.14957863992E+02  0.50528860675E+02  0.30000002509E+02 0.  0.
         12    1    1    2    0    0  0.33775622227E+02 -0.16989268925E+02 -0.14957863992E+02  0.40659139325E+02  0.00000000000E+00 0. -1.
         11    1    3    3    0    0  0.11257544577E+01  0.76260465374E+01 -0.16045885520E+01  0.78739198352E+01  0.51100000000E-03 0. -1.
        -11    1    3    3    0    0 -0.12465012193E+01  0.36054718675E+01  0.56354043739E+01  0.68052167780E+01  0.51100000000E-03 0.  1.
         12    1    3    3    0    0 -0.33654875465E+02  0.57577505197E+01  0.10927048170E+02  0.35849724062E+02  0.00000000000E+00 0. -1.
</event>
<event>
 7    1  0.5642630E-013  0.5052886E+02  0.7816164E-02  0.1300439E+00
        -11   -1    0    0    0    0  0.00000000000E+00  0.00000000000E+00  0.45593999997E+02  0.45594000000E+02  0.51100000000E-03 0.  1.
         11   -1    0    0    0    0 -0.00000000000E+00 -0.00000000000E+00 -0.45593999997E+02  0.45594000000E+02  0.51100000000E-03 0. -1.
    9900012    2    1    2    0    0 -0.40032279325E+02  0.70842017615E+01 -0.62983358976E+00  0.50528855974E+02  0.29999988219E+02 0.  0.
         12    1    1    2    0    0  0.40032279325E+02 -0.70842017615E+01  0.62983358976E+00  0.40659144026E+02  0.00000000000E+00 0. -1.
         11    1    3    3    0    0 -0.14898278300E+02 -0.19814099028E+00 -0.47932976608E+01  0.15651634384E+02  0.51100000000E-03 0. -1.
        -11    1    3    3    0    0 -0.21799473394E+02  0.14641659122E+02  0.50763330761E+01  0.26746296564E+02  0.51100000000E-03 0.  1.
         12    1    3    3    0    0 -0.33345276308E+01 -0.73593163706E+01 -0.91286900504E+00  0.81309250263E+01  0.00000000000E+00 0. -1.
</event>
<event>
 7    1  0.5642630E-013  0.5052887E+02  0.7816164E-02  0.1300439E+00
        -11   -1    0    0    0    0  0.00000000000E+00  0.00000000000E+00  0.45593999997E+02  0.45594000000E+02  0.51100000000E-03 0.  1.
         11   -1    0    0    0    0 -0.00000000000E+00 -0.00000000000E+00 -0.45593999997E+02  0.45594000000E+02  0.51100000000E-03 0. -1.
    9900012    2    1    2    0    0  0.15503222136E+02  0.75839976304E+01  0.36814375235E+02  0.50528866456E+02  0.30000020079E+02 0.  0.
         12    1    1    2    0    0 -0.15503222136E+02 -0.75839976304E+01 -0.36814375235E+02  0.40659133544E+02  0.00000000000E+00 0. -1.
         11    1    3    3    0    0  0.18910167003E+02  0.10788055629E+02  0.28088246451E+02  0.35537672255E+02  0.51100000000E-03 0.  1.
        -11    1    3    3    0    0  0.38176228205E+01 -0.64408338976E+00  0.77712589829E+00  0.39487988472E+01  0.51100000000E-03 0. -1.
         12    1    3    3    0    0 -0.72245676877E+01 -0.25599746093E+01  0.79490028855E+01  0.11042395354E+02  0.00000000000E+00 0. -1.
</event>
<event>
 7    1  0.5642630E-013  0.5052886E+02  0.7816164E-02  0.1300439E+00
        -11   -1    0    0    0    0  0.00000000000E+00  0.00000000000E+00  0.45593999997E+02  0.45594000000E+02  0.51100000000E-03 0.  1.
         11   -1    0    0    0    0 -0.00000000000E+00 -0.00000000000E+00 -0.45593999997E+02  0.45594000000E+02  0.51100000000E-03 0. -1.
    9900012    2    1    2    0    0  0.39476032873E+02  0.82232149332E+01  0.52141450784E+01  0.50528859034E+02  0.29999997519E+02 0.  0.
         12    1    1    2    0    0 -0.39476032873E+02 -0.82232149332E+01 -0.52141450784E+01  0.40659140966E+02  0.00000000000E+00 0. -1.
         11    1    3    3    0    0  0.62688855181E+01 -0.40970797139E+01  0.17284396865E+01  0.76858631157E+01  0.51100000000E-03 0.  1.
        -11    1    3    3    0    0  0.14890449850E+02 -0.43560175235E+01 -0.55472869601E+01  0.16476430993E+02  0.51100000000E-03 0. -1.
        -12    1    3    3    0    0  0.18316697505E+02  0.16676312171E+02  0.90329923519E+01  0.26366564925E+02  0.00000000000E+00 0.  1.
</event>
<event>
 7    1  0.5642630E-013  0.5052886E+02  0.7816164E-02  0.1300439E+00
        -11   -1    0    0    0    0  0.00000000000E+00  0.00000000000E+00  0.45593999997E+02  0.45594000000E+02  0.51100000000E-03 0.  1.
         11   -1    0    0    0    0 -0.00000000000E+00 -0.00000000000E+00 -0.45593999997E+02  0.45594000000E+02  0.51100000000E-03 0. -1.
    9900012    2    1    2    0    0 -0.32946128989E+02 -0.13857605984E+02  0.19382590511E+02  0.50528862357E+02  0.30000007621E+02 0.  0.
         12    1    1    2    0    0  0.32946128989E+02  0.13857605984E+02 -0.19382590511E+02  0.40659137643E+02  0.00000000000E+00 0. -1.
         11    1    3    3    0    0 -0.14336657868E+02 -0.10358698232E+02  0.97628140307E+01  0.20202844501E+02  0.51100000000E-03 0. -1.
        -11    1    3    3    0    0 -0.19858260055E+02 -0.31835844140E+01  0.14811244897E+02  0.24977163125E+02  0.51100000000E-03 0.  1.
         12    1    3    3    0    0  0.12487889344E+01 -0.31532333818E+00 -0.51914684168E+01  0.53488547309E+01  0.00000000000E+00 0. -1.
</event>
<event>
 7    1  0.5642630E-013  0.5052884E+02  0.7816164E-02  0.1300439E+00
        -11   -1    0    0    0    0  0.00000000000E+00  0.00000000000E+00  0.45593999997E+02  0.45594000000E+02  0.51100000000E-03 0. -1.
         11   -1    0    0    0    0 -0.00000000000E+00 -0.00000000000E+00 -0.45593999997E+02  0.45594000000E+02  0.51100000000E-03 0.  1.
    9900012    2    1    2    0    0  0.14705283132E+02  0.12461043534E+02 -0.35800060477E+02  0.50528840047E+02  0.29999939806E+02 0.  0.
         12    1    1    2    0    0 -0.14705283132E+02 -0.12461043534E+02  0.35800060477E+02  0.40659159953E+02  0.00000000000E+00 0. -1.
         11    1    3    3    0    0 -0.33418644178E+01 -0.15164734703E+01  0.14160977148E+01  0.39335839348E+01  0.51100000000E-03 0. -1.
        -11    1    3    3    0    0  0.73739176913E+01 -0.83741621610E-01 -0.22287959901E+02  0.23476261022E+02  0.51100000000E-03 0.  1.
        -12    1    3    3    0    0  0.10673229859E+02  0.14061258625E+02 -0.14928198291E+02  0.23118995090E+02  0.00000000000E+00 0.  1.
</event>
<event>
 7    1  0.5642630E-013  0.5052888E+02  0.7816164E-02  0.1300439E+00
        -11   -1    0    0    0    0  0.00000000000E+00  0.00000000000E+00  0.45593999997E+02  0.45594000000E+02  0.51100000000E-03 0.  1.
         11   -1    0    0    0    0 -0.00000000000E+00 -0.00000000000E+00 -0.45593999997E+02  0.45594000000E+02  0.51100000000E-03 0. -1.
    9900012    2    1    2    0    0  0.21908931860E+02  0.85980993037E+01  0.33154718498E+02  0.50528880905E+02  0.30000063999E+02 0.  0.
         12    1    1    2    0    0 -0.21908931860E+02 -0.85980993037E+01 -0.33154718498E+02  0.40659119095E+02  0.00000000000E+00 0. -1.
         11    1    3    3    0    0  0.79379950855E+01 -0.17559537301E+01  0.15450788025E+02  0.17459152051E+02  0.51100000000E-03 0. -1.
        -11    1    3    3    0    0 -0.57391863473E+01  0.81592316991E+00  0.55536015671E+01  0.80278565741E+01  0.51100000000E-03 0.  1.
        -12    1    3    3    0    0  0.19710123122E+02  0.95381298639E+01  0.12150328906E+02  0.25041872280E+02  0.00000000000E+00 0.  1.
</event>
<event>
 7    1  0.5642630E-013  0.5052886E+02  0.7816164E-02  0.1300439E+00
        -11   -1    0    0    0    0  0.00000000000E+00  0.00000000000E+00  0.45593999997E+02  0.45594000000E+02  0.51100000000E-03 0.  1.
         11   -1    0    0    0    0 -0.00000000000E+00 -0.00000000000E+00 -0.45593999997E+02  0.45594000000E+02  0.51100000000E-03 0. -1.
    9900012    2    1    2    0    0 -0.26881405000E+02  0.28459163190E+02  0.10983241966E+02  0.50528861933E+02  0.30000006331E+02 0.  0.
         12    1    1    2    0    0  0.26881405000E+02 -0.28459163190E+02 -0.10983241966E+02  0.40659138067E+02  0.00000000000E+00 0. -1.
         11    1    3    3    0    0 -0.71982355112E+01  0.69674675631E+01 -0.24941687779E+01  0.10323811160E+02  0.51100000000E-03 0. -1.
        -11    1    3    3    0    0 -0.11362548644E+02  0.15502143458E+01 -0.42763095337E+01  0.12239178881E+02  0.51100000000E-03 0.  1.
        -12    1    3    3    0    0 -0.83206208451E+01  0.19941481281E+02  0.17753720278E+02  0.27965871891E+02  0.00000000000E+00 0.  1.
</event>
<event>
 7    1  0.6529121E-013  0.5052885E+02  0.7816164E-02  0.1300439E+00
        -11   -1    0    0    0    0  0.00000000000E+00  0.00000000000E+00  0.45593999997E+02  0.45594000000E+02  0.51100000000E-03 0. -1.
         11   -1    0    0    0    0 -0.00000000000E+00 -0.00000000000E+00 -0.45593999997E+02  0.45594000000E+02  0.51100000000E-03 0.  1.
    9900012    2    1    2    0    0 -0.63941141915E+01  0.13477021358E+02 -0.37823953729E+02  0.50528852485E+02  0.29999977612E+02 0.  0.
         12    1    1    2    0    0  0.63941141915E+01 -0.13477021358E+02  0.37823953729E+02  0.40659147515E+02  0.00000000000E+00 0. -1.
         11    1    3    3    0    0 -0.24603479708E+00  0.27541188952E+01  0.16731808231E+01  0.32319093951E+01  0.51100000000E-03 0. -1.
        -11    1    3    3    0    0 -0.12252117518E+01 -0.62224141735E+01 -0.35883118979E+01  0.72866703316E+01  0.51100000000E-03 0.  1.
        -12    1    3    3    0    0 -0.49228676426E+01  0.16945316636E+02 -0.35908822655E+02  0.40010272758E+02  0.00000000000E+00 0.  1.
</event>
<event>
 7    1  0.5642630E-013  0.5052885E+02  0.7816164E-02  0.1300439E+00
        -11   -1    0    0    0    0  0.00000000000E+00  0.00000000000E+00  0.45593999997E+02  0.45594000000E+02  0.51100000000E-03 0.  1.
         11   -1    0    0    0    0 -0.00000000000E+00 -0.00000000000E+00 -0.45593999997E+02  0.45594000000E+02  0.51100000000E-03 0. -1.
    9900012    2    1    2    0    0  0.75167949906E+00 -0.31224157557E+02  0.26031773560E+02  0.50528852543E+02  0.29999977790E+02 0.  0.
         12    1    1    2    0    0 -0.75167949906E+00  0.31224157557E+02 -0.26031773560E+02  0.40659147457E+02  0.00000000000E+00 0. -1.
         11    1    3    3    0    0  0.19234539811E+01 -0.90127749034E+01  0.11185674160E+02  0.14493070529E+02  0.51100000000E-03 0. -1.
        -11    1    3    3    0    0  0.30170361009E+01 -0.26211951740E+02  0.91891778432E+01  0.27939397104E+02  0.51100000000E-03 0.  1.
         12    1    3    3    0    0 -0.41888105830E+01  0.40005690860E+01  0.56569215570E+01  0.80963849102E+01  0.00000000000E+00 0. -1.
</event>
<event>
 7    1  0.5642630E-013  0.5052886E+02  0.7816164E-02  0.1300439E+00
        -11   -1    0    0    0    0  0.00000000000E+00  0.00000000000E+00  0.45593999997E+02  0.45594000000E+02  0.51100000000E-03 0.  1.
         11   -1    0    0    0    0 -0.00000000000E+00 -0.00000000000E+00 -0.45593999997E+02  0.45594000000E+02  0.51100000000E-03 0. -1.
    9900012    2    1    2    0    0  0.22566217097E+02  0.31409407824E+02  0.12545155744E+02  0.50528856052E+02  0.29999988455E+02 0.  0.
         12    1    1    2    0    0 -0.22566217097E+02 -0.31409407824E+02 -0.12545155744E+02  0.40659143948E+02  0.00000000000E+00 0. -1.
         11    1    3    3    0    0 -0.41277777481E+01  0.73973823730E+01  0.64239427362E+01  0.10631408921E+02  0.51100000000E-03 0.  1.
        -11    1    3    3    0    0  0.12971291641E+02  0.21848628945E+02  0.54632207662E+01  0.25989685935E+02  0.51100000000E-03 0. -1.
        -12    1    3    3    0    0  0.13722703204E+02  0.21633965062E+01  0.65799224210E+00  0.13907761195E+02  0.00000000000E+00 0.  1.
</event>
<event>
 7    1  0.5642630E-013  0.5052891E+02  0.7816164E-02  0.1300439E+00
        -11   -1    0    0    0    0  0.00000000000E+00  0.00000000000E+00  0.45593999997E+02  0.45594000000E+02  0.51100000000E-03 0. -1.
         11   -1    0    0    0    0 -0.00000000000E+00 -0.00000000000E+00 -0.45593999997E+02  0.45594000000E+02  0.51100000000E-03 0.  1.
    9900012    2    1    2    0    0  0.38980085890E+02  0.60445996233E+01  0.98578407166E+01  0.50528913633E+02  0.30000163478E+02 0.  0.
         12    1    1    2    0    0 -0.38980085890E+02 -0.60445996233E+01 -0.98578407166E+01  0.40659086367E+02  0.00000000000E+00 0. -1.
         11    1    3    3    0    0  0.99696762140E+01  0.10661391486E+02  0.63977027999E+01  0.15937073558E+02  0.51100000000E-03 0. -1.
        -11    1    3    3    0    0  0.65082048731E+01  0.63107676672E+01  0.30778855874E+01  0.95737087469E+01  0.51100000000E-03 0.  1.
         12    1    3    3    0    0  0.22502204803E+02 -0.10927559530E+02  0.38225232933E+00  0.25018131328E+02  0.00000000000E+00 0. -1.
</event>
<event>
 7    1  0.5642630E-013  0.5052886E+02  0.7816164E-02  0.1300439E+00
        -11   -1    0    0    0    0  0.00000000000E+00  0.00000000000E+00  0.45593999997E+02  0.45594000000E+02  0.51100000000E-03 0.  1.
         11   -1    0    0    0    0 -0.00000000000E+00 -0.00000000000E+00 -0.45593999997E+02  0.45594000000E+02  0.51100000000E-03 0. -1.
    9900012    2    1    2    0    0 -0.26040723933E+02 -0.23705178872E+02  0.20325130231E+02  0.50528859241E+02  0.29999998150E+02 0.  0.
         12    1    1    2    0    0  0.26040723933E+02  0.23705178872E+02 -0.20325130231E+02  0.40659140759E+02  0.00000000000E+00 0. -1.
         11    1    3    3    0    0 -0.21349408270E+01 -0.41853111412E+01 -0.72382662887E+01  0.86294438298E+01  0.51100000000E-03 0. -1.
        -11    1    3    3    0    0 -0.42533805218E+01 -0.90849245150E+00  0.25330104658E+01  0.50331646783E+01  0.51100000000E-03 0.  1.
         12    1    3    3    0    0 -0.19652402584E+02 -0.18611375280E+02  0.25030386054E+02  0.36866250733E+02  0.00000000000E+00 0. -1.
</event>
<event>
 7    1  0.5642630E-013  0.5052886E+02  0.7816164E-02  0.1300439E+00
        -11   -1    0    0    0    0  0.00000000000E+00  0.00000000000E+00  0.45593999997E+02  0.45594000000E+02  0.51100000000E-03 0.  1.
         11   -1    0    0    0    0 -0.00000000000E+00 -0.00000000000E+00 -0.45593999997E+02  0.45594000000E+02  0.51100000000E-03 0. -1.
    9900012    2    1    2    0    0 -0.32071953410E+02 -0.21803924044E+02 -0.12212481313E+02  0.50528855898E+02  0.29999987989E+02 0.  0.
         12    1    1    2    0    0  0.32071953410E+02  0.21803924044E+02  0.12212481313E+02  0.40659144102E+02  0.00000000000E+00 0. -1.
         11    1    3    3    0    0  0.79816683376E+00 -0.36132357074E+01 -0.77517501759E+01  0.85896550351E+01  0.51100000000E-03 0. -1.
        -11    1    3    3    0    0  0.64773886814E+00  0.14003973296E+01  0.20581576939E+01  0.25722930774E+01  0.51100000000E-03 0.  1.
        -12    1    3    3    0    0 -0.33517859112E+02 -0.19591085666E+02 -0.65188888311E+01  0.39366907786E+02  0.00000000000E+00 0.  1.
</event>
<event>
 7    1  0.5642630E-013  0.5052886E+02  0.7816164E-02  0.1300439E+00
        -11   -1    0    0    0    0  0.00000000000E+00  0.00000000000E+00  0.45593999997E+02  0.45594000000E+02  0.51100000000E-03 0.  1.
         11   -1    0    0    0    0 -0.00000000000E+00 -0.00000000000E+00 -0.45593999997E+02  0.45594000000E+02  0.51100000000E-03 0. -1.
    9900012    2    1    2    0    0  0.38258400482E+02 -0.60850031639E+01  0.12346383724E+02  0.50528860044E+02  0.30000000588E+02 0.  0.
         12    1    1    2    0    0 -0.38258400482E+02  0.60850031639E+01 -0.12346383724E+02  0.40659139956E+02  0.00000000000E+00 0. -1.
         11    1    3    3    0    0  0.28344163724E+01 -0.38111409951E+01 -0.32351250893E+00  0.47606063123E+01  0.51100000000E-03 0.  1.
        -11    1    3    3    0    0  0.25666168554E+02 -0.13312746906E+02  0.11022308170E+02  0.30943056023E+02  0.51100000000E-03 0. -1.
        -12    1    3    3    0    0  0.97578155554E+01  0.11038884737E+02  0.16475880635E+01  0.14825197708E+02  0.00000000000E+00 0.  1.
</event>
<event>
 7    1  0.5642630E-013  0.5052886E+02  0.7816164E-02  0.1300439E+00
        -11   -1    0    0    0    0  0.00000000000E+00  0.00000000000E+00  0.45593999997E+02  0.45594000000E+02  0.51100000000E-03 0.  1.
         11   -1    0    0    0    0 -0.00000000000E+00 -0.00000000000E+00 -0.45593999997E+02  0.45594000000E+02  0.51100000000E-03 0. -1.
    9900012    2    1    2    0    0 -0.32905111199E+02  0.68699709253E+01  0.22874063365E+02  0.50528860580E+02  0.30000002220E+02 0.  0.
         12    1    1    2    0    0  0.32905111199E+02 -0.68699709253E+01 -0.22874063365E+02  0.40659139420E+02  0.00000000000E+00 0. -1.
         11    1    3    3    0    0 -0.12369768852E+02 -0.49953602273E+01  0.84669247405E+01  0.15800431009E+02  0.51100000000E-03 0. -1.
        -11    1    3    3    0    0 -0.11590629054E+02 -0.14253268075E+01  0.14614051353E+02  0.18706809872E+02  0.51100000000E-03 0.  1.
         12    1    3    3    0    0 -0.89447132926E+01  0.13290657960E+02 -0.20691272872E+00  0.16021619699E+02  0.00000000000E+00 0. -1.
</event>
<event>
 7    1  0.5642630E-013  0.5052886E+02  0.7816164E-02  0.1300439E+00
        -11   -1    0    0    0    0  0.00000000000E+00  0.00000000000E+00  0.45593999997E+02  0.45594000000E+02  0.51100000000E-03 0. -1.
         11   -1    0    0    0    0 -0.00000000000E+00 -0.00000000000E+00 -0.45593999997E+02  0.45594000000E+02  0.51100000000E-03 0.  1.
    9900012    2    1    2    0    0  0.28266023119E+02  0.70227722481E+01 -0.28370377301E+02  0.50528859561E+02  0.29999999122E+02 0.  0.
         12    1    1    2    0    0 -0.28266023119E+02 -0.70227722481E+01  0.28370377301E+02  0.40659140439E+02  0.00000000000E+00 0. -1.
         11    1    3    3    0    0  0.51262849992E+01 -0.28007425559E+01 -0.29562160428E+01  0.65469206739E+01  0.51100000000E-03 0. -1.
        -11    1    3    3    0    0  0.18085734461E+02 -0.54402268152E+01 -0.87139742177E+01  0.20799596288E+02  0.51100000000E-03 0.  1.
        -12    1    3    3    0    0  0.50540036585E+01  0.15263741619E+02 -0.16700187041E+02  0.23182342599E+02  0.00000000000E+00 0.  1.
</event>
<event>
 7    1  0.5642630E-013  0.5052886E+02  0.7816164E-02  0.1300439E+00
        -11   -1    0    0    0    0  0.00000000000E+00  0.00000000000E+00  0.45593999997E+02  0.45594000000E+02  0.51100000000E-03 0. -1.
         11   -1    0    0    0    0 -0.00000000000E+00 -0.00000000000E+00 -0.45593999997E+02  0.45594000000E+02  0.51100000000E-03 0.  1.
    9900012    2    1    2    0    0  0.17043347733E+02  0.36672887254E+02  0.42177244698E+01  0.50528861283E+02  0.30000004357E+02 0.  0.
         12    1    1    2    0    0 -0.17043347733E+02 -0.36672887254E+02 -0.42177244698E+01  0.40659138717E+02  0.00000000000E+00 0. -1.
         11    1    3    3    0    0  0.34842413353E+01  0.19131523179E+02 -0.33811094285E+01  0.19737958812E+02  0.51100000000E-03 0. -1.
        -11    1    3    3    0    0  0.48112368135E+01  0.17617373617E+02 -0.13043013103E+01  0.18309042985E+02  0.51100000000E-03 0.  1.
         12    1    3    3    0    0  0.87478695839E+01 -0.76009542050E-01  0.89031352086E+01  0.12481859487E+02  0.00000000000E+00 0. -1.
</event>
<event>
 7    1  0.5642630E-013  0.5052889E+02  0.7816164E-02  0.1300439E+00
        -11   -1    0    0    0    0  0.00000000000E+00  0.00000000000E+00  0.45593999997E+02  0.45594000000E+02  0.51100000000E-03 0. -1.
         11   -1    0    0    0    0 -0.00000000000E+00 -0.00000000000E+00 -0.45593999997E+02  0.45594000000E+02  0.51100000000E-03 0.  1.
    9900012    2    1    2    0    0 -0.29998513960E+02 -0.20267261628E+02 -0.18506505664E+02  0.50528886808E+02  0.30000081940E+02 0.  0.
         12    1    1    2    0    0  0.29998513960E+02  0.20267261628E+02  0.18506505664E+02  0.40659113192E+02  0.00000000000E+00 0. -1.
         11    1    3    3    0    0 -0.26159108879E+01  0.52057072952E+01 -0.54415164181E+01  0.79719808960E+01  0.51100000000E-03 0. -1.
        -11    1    3    3    0    0 -0.98547423264E+01 -0.22935881743E+01 -0.83453687424E+01  0.13115703288E+02  0.51100000000E-03 0.  1.
         12    1    3    3    0    0 -0.17527860745E+02 -0.23179380749E+02 -0.47196205034E+01  0.29441202624E+02  0.00000000000E+00 0. -1.
</event>
<event>
 7    1  0.5642630E-013  0.5052886E+02  0.7816164E-02  0.1300439E+00
        -11   -1    0    0    0    0  0.00000000000E+00  0.00000000000E+00  0.45593999997E+02  0.45594000000E+02  0.51100000000E-03 0.  1.
         11   -1    0    0    0    0 -0.00000000000E+00 -0.00000000000E+00 -0.45593999997E+02  0.45594000000E+02  0.51100000000E-03 0. -1.
    9900012    2    1    2    0    0 -0.25827083669E+02  0.98608295577E+01  0.29814276326E+02  0.50528864701E+02  0.30000014745E+02 0.  0.
         12    1    1    2    0    0  0.25827083669E+02 -0.98608295577E+01 -0.29814276326E+02  0.40659135299E+02  0.00000000000E+00 0. -1.
         11    1    3    3    0    0 -0.44889891810E+01  0.34164553174E+01 -0.78321747848E+00  0.56953156789E+01  0.51100000000E-03 0. -1.
        -11    1    3    3    0    0 -0.12773487013E+02  0.72739379913E+01  0.18373471686E+01  0.14813777008E+02  0.51100000000E-03 0.  1.
         12    1    3    3    0    0 -0.85646074754E+01 -0.82956375098E+00  0.28760146636E+02  0.30019772014E+02  0.00000000000E+00 0. -1.
</event>
<event>
 7    1  0.5642630E-013  0.5052885E+02  0.7816164E-02  0.1300439E+00
        -11   -1    0    0    0    0  0.00000000000E+00  0.00000000000E+00  0.45593999997E+02  0.45594000000E+02  0.51100000000E-03 0.  1.
         11   -1    0    0    0    0 -0.00000000000E+00 -0.00000000000E+00 -0.45593999997E+02  0.45594000000E+02  0.51100000000E-03 0. -1.
    9900012    2    1    2    0    0  0.49944499664E+01 -0.40278073982E+02 -0.24287104022E+01  0.50528850865E+02  0.29999972689E+02 0.  0.
         12    1    1    2    0    0 -0.49944499664E+01  0.40278073982E+02  0.24287104022E+01  0.40659149135E+02  0.00000000000E+00 0. -1.
         11    1    3    3    0    0 -0.27877937588E+01 -0.37578110473E+01 -0.68408280564E+01  0.82879350062E+01  0.51100000000E-03 0. -1.
        -11    1    3    3    0    0 -0.34362487071E+01 -0.60719784814E+01 -0.48484496100E+01  0.84961280438E+01  0.51100000000E-03 0.  1.
        -12    1    3    3    0    0  0.11218492432E+02 -0.30448284454E+02  0.92605672641E+01  0.33744787815E+02  0.00000000000E+00 0.  1.
</event>
<event>
 7    1  0.5642630E-013  0.5052886E+02  0.7816164E-02  0.1300439E+00
        -11   -1    0    0    0    0  0.00000000000E+00  0.00000000000E+00  0.45593999997E+02  0.45594000000E+02  0.51100000000E-03 0.  1.
         11   -1    0    0    0    0 -0.00000000000E+00 -0.00000000000E+00 -0.45593999997E+02  0.45594000000E+02  0.51100000000E-03 0. -1.
    9900012    2    1    2    0    0 -0.10077359745E+02  0.39388178850E+02 -0.42885258691E+00  0.50528859243E+02  0.29999998154E+02 0.  0.
         12    1    1    2    0    0  0.10077359745E+02 -0.39388178850E+02  0.42885258691E+00  0.40659140757E+02  0.00000000000E+00 0. -1.
         11    1    3    3    0    0 -0.56881980815E+01  0.19029941644E+01 -0.41359404626E+01  0.72858072974E+01  0.51100000000E-03 0.  1.
        -11    1    3    3    0    0 -0.89326669778E+01  0.61172772711E+01  0.40129733842E+01  0.11546323059E+02  0.51100000000E-03 0. -1.
        -12    1    3    3    0    0  0.45435053144E+01  0.31367907415E+02 -0.30588550849E+00  0.31696728886E+02  0.00000000000E+00 0.  1.
</event>
<event>
 7    1  0.5642630E-013  0.5052886E+02  0.7816164E-02  0.1300439E+00
        -11   -1    0    0    0    0  0.00000000000E+00  0.00000000000E+00  0.45593999997E+02  0.45594000000E+02  0.51100000000E-03 0.  1.
         11   -1    0    0    0    0 -0.00000000000E+00 -0.00000000000E+00 -0.45593999997E+02  0.45594000000E+02  0.51100000000E-03 0. -1.
    9900012    2    1    2    0    0  0.16553269803E+02 -0.52571562703E+01  0.36762991393E+02  0.50528856264E+02  0.29999989100E+02 0.  0.
         12    1    1    2    0    0 -0.16553269803E+02  0.52571562703E+01 -0.36762991393E+02  0.40659143736E+02  0.00000000000E+00 0. -1.
         11    1    3    3    0    0  0.17182704586E+02 -0.47583190444E+01  0.98788116271E+01  0.20383273939E+02  0.51100000000E-03 0. -1.
        -11    1    3    3    0    0  0.63299468628E+01  0.96842503564E+00  0.10740063822E+02  0.12504201114E+02  0.51100000000E-03 0.  1.
         12    1    3    3    0    0 -0.69593816466E+01 -0.14672622615E+01  0.16144115944E+02  0.17641381212E+02  0.00000000000E+00 0. -1.
</event>
<event>
 7    1  0.5642630E-013  0.5052886E+02  0.7816164E-02  0.1300439E+00
        -11   -1    0    0    0    0  0.00000000000E+00  0.00000000000E+00  0.45593999997E+02  0.45594000000E+02  0.51100000000E-03 0.  1.
         11   -1    0    0    0    0 -0.00000000000E+00 -0.00000000000E+00 -0.45593999997E+02  0.45594000000E+02  0.51100000000E-03 0. -1.
    9900012    2    1    2    0    0 -0.13740345540E+02  0.35038516080E+02  0.15384104854E+02  0.50528863427E+02  0.30000010873E+02 0.  0.
         12    1    1    2    0    0  0.13740345540E+02 -0.35038516080E+02 -0.15384104854E+02  0.40659136573E+02  0.00000000000E+00 0. -1.
         11    1    3    3    0    0 -0.13048955720E+01 -0.14615664062E+01  0.25486121793E+01  0.32147088694E+01  0.51100000000E-03 0. -1.
        -11    1    3    3    0    0 -0.30788386550E-01  0.27935336579E+02  0.67013154194E+00  0.27943390171E+02  0.51100000000E-03 0.  1.
         12    1    3    3    0    0 -0.12404661582E+02  0.85647459072E+01  0.12165361133E+02  0.19370764387E+02  0.00000000000E+00 0. -1.
</event>
<event>
 7    1  0.5642630E-013  0.5052886E+02  0.7816164E-02  0.1300439E+00
        -11   -1    0    0    0    0  0.00000000000E+00  0.00000000000E+00  0.45593999997E+02  0.45594000000E+02  0.51100000000E-03 0.  1.
         11   -1    0    0    0    0 -0.00000000000E+00 -0.00000000000E+00 -0.45593999997E+02  0.45594000000E+02  0.51100000000E-03 0. -1.
    9900012    2    1    2    0    0 -0.25543733980E+01 -0.40512679092E+02  0.23159098720E+01  0.50528862906E+02  0.30000009289E+02 0.  0.
         12    1    1    2    0    0  0.25543733980E+01  0.40512679092E+02 -0.23159098720E+01  0.40659137094E+02  0.00000000000E+00 0. -1.
         11    1    3    3    0    0  0.40202651612E+01 -0.98759039198E+01 -0.16940537287E+01  0.10796565588E+02  0.51100000000E-03 0. -1.
        -11    1    3    3    0    0  0.87760592845E+01 -0.11438914443E+02 -0.16405897700E+01  0.14510669015E+02  0.51100000000E-03 0.  1.
        -12    1    3    3    0    0 -0.15350697844E+02 -0.19197860729E+02  0.56505533707E+01  0.25221628303E+02  0.00000000000E+00 0.  1.
</event>
<event>
 7    1  0.5642630E-013  0.5052886E+02  0.7816164E-02  0.1300439E+00
        -11   -1    0    0    0    0  0.00000000000E+00  0.00000000000E+00  0.45593999997E+02  0.45594000000E+02  0.51100000000E-03 0.  1.
         11   -1    0    0    0    0 -0.00000000000E+00 -0.00000000000E+00 -0.45593999997E+02  0.45594000000E+02  0.51100000000E-03 0. -1.
    9900012    2    1    2    0    0 -0.26420392894E+02  0.43278747386E+01  0.30600617480E+02  0.50528862643E+02  0.30000008489E+02 0.  0.
         12    1    1    2    0    0  0.26420392894E+02 -0.43278747386E+01 -0.30600617480E+02  0.40659137357E+02  0.00000000000E+00 0. -1.
         11    1    3    3    0    0 -0.22418013649E+02 -0.19307123227E+01  0.28747305471E+02  0.36506198900E+02  0.51100000000E-03 0.  1.
        -11    1    3    3    0    0  0.33537713037E+01  0.27825211245E+01  0.36571357553E+01  0.56890111584E+01  0.51100000000E-03 0. -1.
        -12    1    3    3    0    0 -0.73561505488E+01  0.34760659369E+01 -0.18038237455E+01  0.83336525845E+01  0.00000000000E+00 0.  1.
</event>
<event>
 7    1  0.5642630E-013  0.5052886E+02  0.7816164E-02  0.1300439E+00
        -11   -1    0    0    0    0  0.00000000000E+00  0.00000000000E+00  0.45593999997E+02  0.45594000000E+02  0.51100000000E-03 0. -1.
         11   -1    0    0    0    0 -0.00000000000E+00 -0.00000000000E+00 -0.45593999997E+02  0.45594000000E+02  0.51100000000E-03 0.  1.
    9900012    2    1    2    0    0  0.39656375489E+02  0.45726346514E+01  0.77219466057E+01  0.50528861250E+02  0.30000004254E+02 0.  0.
         12    1    1    2    0    0 -0.39656375489E+02 -0.45726346514E+01 -0.77219466057E+01  0.40659138750E+02  0.00000000000E+00 0. -1.
         11    1    3    3    0    0  0.11754172023E+02 -0.94583675804E+01 -0.38021982471E+01  0.15558855646E+02  0.51100000000E-03 0. -1.
        -11    1    3    3    0    0  0.21764212641E+02  0.12715164467E+02  0.45976833957E+01  0.25622159397E+02  0.51100000000E-03 0.  1.
        -12    1    3    3    0    0  0.61379908248E+01  0.13158377644E+01  0.69264614571E+01  0.93478462067E+01  0.00000000000E+00 0.  1.
</event>
<event>
 7    1  0.5642630E-013  0.5052887E+02  0.7816164E-02  0.1300439E+00
        -11   -1    0    0    0    0  0.00000000000E+00  0.00000000000E+00  0.45593999997E+02  0.45594000000E+02  0.51100000000E-03 0.  1.
         11   -1    0    0    0    0 -0.00000000000E+00 -0.00000000000E+00 -0.45593999997E+02  0.45594000000E+02  0.51100000000E-03 0. -1.
    9900012    2    1    2    0    0  0.44887220028E+01 -0.37700203074E+02  0.14550285790E+02  0.50528871214E+02  0.30000034542E+02 0.  0.
         12    1    1    2    0    0 -0.44887220028E+01  0.37700203074E+02 -0.14550285790E+02  0.40659128786E+02  0.00000000000E+00 0. -1.
         11    1    3    3    0    0  0.23262814219E+01 -0.10972066440E+02  0.74856093137E+01  0.13484516093E+02  0.51100000000E-03 0.  1.
        -11    1    3    3    0    0 -0.16596555312E+01 -0.92517367591E+01  0.14817423475E+02  0.17547225657E+02  0.51100000000E-03 0. -1.
         12    1    3    3    0    0  0.38220961122E+01 -0.17476399875E+02 -0.77527469993E+01  0.19497129464E+02  0.00000000000E+00 0. -1.
</event>
<event>
 7    1  0.5642630E-013  0.5052886E+02  0.7816164E-02  0.1300439E+00
        -11   -1    0    0    0    0  0.00000000000E+00  0.00000000000E+00  0.45593999997E+02  0.45594000000E+02  0.51100000000E-03 0.  1.
         11   -1    0    0    0    0 -0.00000000000E+00 -0.00000000000E+00 -0.45593999997E+02  0.45594000000E+02  0.51100000000E-03 0. -1.
    9900012    2    1    2    0    0 -0.49956117321E+01 -0.28513264391E+02  0.28551764498E+02  0.50528860329E+02  0.30000001457E+02 0.  0.
         12    1    1    2    0    0  0.49956117321E+01  0.28513264391E+02 -0.28551764498E+02  0.40659139671E+02  0.00000000000E+00 0. -1.
         11    1    3    3    0    0  0.49617767072E+01 -0.12241932854E+02  0.73918021774E+01  0.15136805732E+02  0.51100000000E-03 0.  1.
        -11    1    3    3    0    0 -0.39890039270E+01 -0.17962602881E+01 -0.38882008729E+01  0.58529317134E+01  0.51100000000E-03 0. -1.
        -12    1    3    3    0    0 -0.59683845123E+01 -0.14475071250E+02  0.25048163193E+02  0.29539122883E+02  0.00000000000E+00 0.  1.
</event>
<event>
 7    1  0.5642630E-013  0.5052886E+02  0.7816164E-02  0.1300439E+00
        -11   -1    0    0    0    0  0.00000000000E+00  0.00000000000E+00  0.45593999997E+02  0.45594000000E+02  0.51100000000E-03 0.  1.
         11   -1    0    0    0    0 -0.00000000000E+00 -0.00000000000E+00 -0.45593999997E+02  0.45594000000E+02  0.51100000000E-03 0. -1.
    9900012    2    1    2    0    0 -0.10724775310E+02 -0.22839489863E+02  0.31882639434E+02  0.50528858347E+02  0.29999995431E+02 0.  0.
         12    1    1    2    0    0  0.10724775310E+02  0.22839489863E+02 -0.31882639434E+02  0.40659141653E+02  0.00000000000E+00 0. -1.
         11    1    3    3    0    0 -0.15907951935E+02 -0.92471140910E+01  0.80364176656E+01  0.20078746548E+02  0.51100000000E-03 0. -1.
        -11    1    3    3    0    0  0.45042724347E+01 -0.75465398968E+01  0.39333603172E+01  0.96286062453E+01  0.51100000000E-03 0.  1.
        -12    1    3    3    0    0  0.67890419014E+00 -0.60458358757E+01  0.19912861452E+02  0.20821505554E+02  0.00000000000E+00 0.  1.
</event>
<event>
 7    1  0.5642630E-013  0.5052886E+02  0.7816164E-02  0.1300439E+00
        -11   -1    0    0    0    0  0.00000000000E+00  0.00000000000E+00  0.45593999997E+02  0.45594000000E+02  0.51100000000E-03 0.  1.
         11   -1    0    0    0    0 -0.00000000000E+00 -0.00000000000E+00 -0.45593999997E+02  0.45594000000E+02  0.51100000000E-03 0. -1.
    9900012    2    1    2    0    0 -0.18710764031E+02 -0.34567694762E+02  0.10399398517E+02  0.50528859560E+02  0.29999999120E+02 0.  0.
         12    1    1    2    0    0  0.18710764031E+02  0.34567694762E+02 -0.10399398517E+02  0.40659140440E+02  0.00000000000E+00 0. -1.
         11    1    3    3    0    0 -0.75570500263E+01 -0.75313410961E+01  0.85343112340E+00  0.10703198062E+02  0.51100000000E-03 0. -1.
        -11    1    3    3    0    0 -0.18673535799E+02 -0.20248874360E+02  0.10864750900E+02  0.29610144621E+02  0.51100000000E-03 0.  1.
         12    1    3    3    0    0  0.75198217942E+01 -0.67874793053E+01 -0.13187835062E+01  0.10215516877E+02  0.00000000000E+00 0. -1.
</event>
<event>
 7    1  0.5642630E-013  0.5052885E+02  0.7816164E-02  0.1300439E+00
        -11   -1    0    0    0    0  0.00000000000E+00  0.00000000000E+00  0.45593999997E+02  0.45594000000E+02  0.51100000000E-03 0. -1.
         11   -1    0    0    0    0 -0.00000000000E+00 -0.00000000000E+00 -0.45593999997E+02  0.45594000000E+02  0.51100000000E-03 0.  1.
    9900012    2    1    2    0    0 -0.16769627220E+02  0.13466388700E+02 -0.34505103021E+02  0.50528853966E+02  0.29999982114E+02 0.  0.
         12    1    1    2    0    0  0.16769627220E+02 -0.13466388700E+02  0.34505103021E+02  0.40659146034E+02  0.00000000000E+00 0. -1.
         11    1    3    3    0    0 -0.12760820281E+02 -0.59390781501E+01 -0.16645833543E+02  0.21798966905E+02  0.51100000000E-03 0.  1.
        -11    1    3    3    0    0  0.10817249306E+00 -0.12725730465E+01 -0.35178305533E+00  0.13247245095E+01  0.51100000000E-03 0. -1.
        -12    1    3    3    0    0 -0.41169794321E+01  0.20678039897E+02 -0.17507486423E+02  0.27405162552E+02  0.00000000000E+00 0.  1.
</event>
<event>
 7    1  0.5642630E-013  0.5052886E+02  0.7816164E-02  0.1300439E+00
        -11   -1    0    0    0    0  0.00000000000E+00  0.00000000000E+00  0.45593999997E+02  0.45594000000E+02  0.51100000000E-03 0. -1.
         11   -1    0    0    0    0 -0.00000000000E+00 -0.00000000000E+00 -0.45593999997E+02  0.45594000000E+02  0.51100000000E-03 0.  1.
    9900012    2    1    2    0    0  0.52704694204E+01 -0.34605331452E+02  0.20684750748E+02  0.50528859252E+02  0.29999998183E+02 0.  0.
         12    1    1    2    0    0 -0.52704694204E+01  0.34605331452E+02 -0.20684750748E+02  0.40659140748E+02  0.00000000000E+00 0. -1.
         11    1    3    3    0    0  0.33697678804E+01 -0.20973915798E+02  0.40328429943E+01  0.21622310291E+02  0.51100000000E-03 0. -1.
        -11    1    3    3    0    0 -0.82599230124E+00 -0.16664476326E+02  0.63949845031E+01  0.17868487949E+02  0.51100000000E-03 0.  1.
         12    1    3    3    0    0  0.27266938412E+01  0.30330606717E+01  0.10256923251E+02  0.11038061012E+02  0.00000000000E+00 0. -1.
</event>
<event>
 7    1  0.5642630E-013  0.5052887E+02  0.7816164E-02  0.1300439E+00
        -11   -1    0    0    0    0  0.00000000000E+00  0.00000000000E+00  0.45593999997E+02  0.45594000000E+02  0.51100000000E-03 0.  1.
         11   -1    0    0    0    0 -0.00000000000E+00 -0.00000000000E+00 -0.45593999997E+02  0.45594000000E+02  0.51100000000E-03 0. -1.
    9900012    2    1    2    0    0 -0.17484123803E+02 -0.26920693611E+02  0.24954890527E+02  0.50528869526E+02  0.30000029412E+02 0.  0.
         12    1    1    2    0    0  0.17484123803E+02  0.26920693611E+02 -0.24954890527E+02  0.40659130474E+02  0.00000000000E+00 0. -1.
         11    1    3    3    0    0 -0.21670264564E+02 -0.15858906263E+02  0.16242260494E+02  0.31383376178E+02  0.51100000000E-03 0. -1.
        -11    1    3    3    0    0 -0.63344142639E+00 -0.39586657875E+00  0.73207272559E+01  0.73587367262E+01  0.51100000000E-03 0.  1.
         12    1    3    3    0    0  0.48195821868E+01 -0.10665920770E+02  0.13919027769E+01  0.11786756622E+02  0.00000000000E+00 0. -1.
</event>
<event>
 7    1  0.5642630E-013  0.5052886E+02  0.7816164E-02  0.1300439E+00
        -11   -1    0    0    0    0  0.00000000000E+00  0.00000000000E+00  0.45593999997E+02  0.45594000000E+02  0.51100000000E-03 0.  1.
         11   -1    0    0    0    0 -0.00000000000E+00 -0.00000000000E+00 -0.45593999997E+02  0.45594000000E+02  0.51100000000E-03 0. -1.
    9900012    2    1    2    0    0 -0.18333919256E+02 -0.21816070654E+02  0.29001592984E+02  0.50528856752E+02  0.29999990582E+02 0.  0.
         12    1    1    2    0    0  0.18333919256E+02  0.21816070654E+02 -0.29001592984E+02  0.40659143248E+02  0.00000000000E+00 0. -1.
         11    1    3    3    0    0 -0.19797936709E+02 -0.98364431162E+01  0.18617895895E+02  0.28902248337E+02  0.51100000000E-03 0. -1.
        -11    1    3    3    0    0  0.96701439728E+00 -0.12251071338E+02  0.13617931050E+02  0.18343170721E+02  0.51100000000E-03 0.  1.
        -12    1    3    3    0    0  0.49700305536E+00  0.27144379978E+00 -0.32342339609E+01  0.32834376935E+01  0.00000000000E+00 0.  1.
</event>
<event>
 7    1  0.5642630E-013  0.5052889E+02  0.7816164E-02  0.1300439E+00
        -11   -1    0    0    0    0  0.00000000000E+00  0.00000000000E+00  0.45593999997E+02  0.45594000000E+02  0.51100000000E-03 0. -1.
         11   -1    0    0    0    0 -0.00000000000E+00 -0.00000000000E+00 -0.45593999997E+02  0.45594000000E+02  0.51100000000E-03 0.  1.
    9900012    2    1    2    0    0 -0.34517977857E+02 -0.14015156196E+02 -0.16286432743E+02  0.50528889212E+02  0.30000089249E+02 0.  0.
         12    1    1    2    0    0  0.34517977857E+02  0.14015156196E+02  0.16286432743E+02  0.40659110788E+02  0.00000000000E+00 0. -1.
         11    1    3    3    0    0 -0.33917812982E+00 -0.18158423704E+01  0.14646534108E+01  0.23574425110E+01  0.51100000000E-03 0. -1.
        -11    1    3    3    0    0 -0.26492364966E+02 -0.87025979517E+01 -0.24687684168E+02  0.37243286139E+02  0.51100000000E-03 0.  1.
        -12    1    3    3    0    0 -0.76864347619E+01 -0.34967158745E+01  0.69365980142E+01  0.10928160562E+02  0.00000000000E+00 0.  1.
</event>
<event>
 7    1  0.5642630E-013  0.5052884E+02  0.7816164E-02  0.1300439E+00
        -11   -1    0    0    0    0  0.00000000000E+00  0.00000000000E+00  0.45593999997E+02  0.45594000000E+02  0.51100000000E-03 0. -1.
         11   -1    0    0    0    0 -0.00000000000E+00 -0.00000000000E+00 -0.45593999997E+02  0.45594000000E+02  0.51100000000E-03 0.  1.
    9900012    2    1    2    0    0  0.21019700591E+02 -0.21974184155E+02 -0.26990264332E+02  0.50528844193E+02  0.29999952409E+02 0.  0.
         12    1    1    2    0    0 -0.21019700591E+02  0.21974184155E+02  0.26990264332E+02  0.40659155807E+02  0.00000000000E+00 0. -1.
         11    1    3    3    0    0  0.61053585725E+01 -0.28595809277E+01  0.39955454060E+01  0.78368992423E+01  0.51100000000E-03 0. -1.
        -11    1    3    3    0    0  0.10711577956E+02 -0.21593835205E+02 -0.22901733900E+02  0.33249376491E+02  0.51100000000E-03 0.  1.
         12    1    3    3    0    0  0.42027640630E+01  0.24792319774E+01 -0.80840758377E+01  0.94425684597E+01  0.00000000000E+00 0. -1.
</event>
<event>
 7    1  0.5642630E-013  0.5052886E+02  0.7816164E-02  0.1300439E+00
        -11   -1    0    0    0    0  0.00000000000E+00  0.00000000000E+00  0.45593999997E+02  0.45594000000E+02  0.51100000000E-03 0.  1.
         11   -1    0    0    0    0 -0.00000000000E+00 -0.00000000000E+00 -0.45593999997E+02  0.45594000000E+02  0.51100000000E-03 0. -1.
    9900012    2    1    2    0    0  0.21957619470E+02  0.13326301933E+02  0.31518859695E+02  0.50528857209E+02  0.29999991971E+02 0.  0.
         12    1    1    2    0    0 -0.21957619470E+02 -0.13326301933E+02 -0.31518859695E+02  0.40659142791E+02  0.00000000000E+00 0. -1.
         11    1    3    3    0    0  0.17314702661E+02  0.18489308903E+02  0.31858040117E+02  0.40701206276E+02  0.51100000000E-03 0.  1.
        -11    1    3    3    0    0  0.11917701048E+01  0.11907945398E+00  0.26033594909E+01  0.28656546894E+01  0.51100000000E-03 0. -1.
        -12    1    3    3    0    0  0.34511467045E+01 -0.52820864232E+01 -0.29425399125E+01  0.69619962435E+01  0.00000000000E+00 0.  1.
</event>
<event>
 7    1  0.5642630E-013  0.5052886E+02  0.7816164E-02  0.1300439E+00
        -11   -1    0    0    0    0  0.00000000000E+00  0.00000000000E+00  0.45593999997E+02  0.45594000000E+02  0.51100000000E-03 0. -1.
         11   -1    0    0    0    0 -0.00000000000E+00 -0.00000000000E+00 -0.45593999997E+02  0.45594000000E+02  0.51100000000E-03 0.  1.
    9900012    2    1    2    0    0 -0.19319773264E+02 -0.20080946583E+02 -0.29608575186E+02  0.50528858602E+02  0.29999996207E+02 0.  0.
         12    1    1    2    0    0  0.19319773264E+02  0.20080946583E+02  0.29608575186E+02  0.40659141398E+02  0.00000000000E+00 0. -1.
         11    1    3    3    0    0 -0.14688779095E+02 -0.57456094187E+01 -0.24476542440E+02  0.29118265556E+02  0.51100000000E-03 0. -1.
        -11    1    3    3    0    0 -0.75911263617E+01 -0.67607997981E+01 -0.78419071204E+01  0.12838579396E+02  0.51100000000E-03 0.  1.
         12    1    3    3    0    0  0.29601321924E+01 -0.75745373662E+01  0.27098743741E+01  0.85720136510E+01  0.00000000000E+00 0. -1.
</event>
<event>
 7    1  0.5642630E-013  0.5052886E+02  0.7816164E-02  0.1300439E+00
        -11   -1    0    0    0    0  0.00000000000E+00  0.00000000000E+00  0.45593999997E+02  0.45594000000E+02  0.51100000000E-03 0.  1.
         11   -1    0    0    0    0 -0.00000000000E+00 -0.00000000000E+00 -0.45593999997E+02  0.45594000000E+02  0.51100000000E-03 0. -1.
    9900012    2    1    2    0    0  0.16952926278E+02 -0.49834293373E+01  0.36618697949E+02  0.50528864288E+02  0.30000013491E+02 0.  0.
         12    1    1    2    0    0 -0.16952926278E+02  0.49834293373E+01 -0.36618697949E+02  0.40659135712E+02  0.00000000000E+00 0. -1.
         11    1    3    3    0    0 -0.26030229875E+01  0.57894987892E+01  0.49449069225E+01  0.80464979734E+01  0.51100000000E-03 0. -1.
        -11    1    3    3    0    0  0.25187830656E+01 -0.25186620206E+01  0.19838796708E+02  0.20156035860E+02  0.51100000000E-03 0.  1.
        -12    1    3    3    0    0  0.17037166200E+02 -0.82542661058E+01  0.11834994318E+02  0.22326330455E+02  0.00000000000E+00 0.  1.
</event>
<event>
 7    1  0.5642630E-013  0.5052885E+02  0.7816164E-02  0.1300439E+00
        -11   -1    0    0    0    0  0.00000000000E+00  0.00000000000E+00  0.45593999997E+02  0.45594000000E+02  0.51100000000E-03 0.  1.
         11   -1    0    0    0    0 -0.00000000000E+00 -0.00000000000E+00 -0.45593999997E+02  0.45594000000E+02  0.51100000000E-03 0. -1.
    9900012    2    1    2    0    0  0.10995537366E+01  0.11877532849E+02  0.38870059678E+02  0.50528851652E+02  0.29999975082E+02 0.  0.
         12    1    1    2    0    0 -0.10995537366E+01 -0.11877532849E+02 -0.38870059678E+02  0.40659148348E+02  0.00000000000E+00 0. -1.
         11    1    3    3    0    0  0.66898926605E+01 -0.27951934629E+01  0.86321996919E+01  0.11273093723E+02  0.51100000000E-03 0.  1.
        -11    1    3    3    0    0  0.60626076136E+01  0.10853622271E+01  0.13094510839E+02  0.14470640504E+02  0.51100000000E-03 0. -1.
        -12    1    3    3    0    0 -0.11652946537E+02  0.13587364085E+02  0.17143349147E+02  0.24785117425E+02  0.00000000000E+00 0.  1.
</event>
<event>
 7    1  0.5642630E-013  0.5052886E+02  0.7816164E-02  0.1300439E+00
        -11   -1    0    0    0    0  0.00000000000E+00  0.00000000000E+00  0.45593999997E+02  0.45594000000E+02  0.51100000000E-03 0.  1.
         11   -1    0    0    0    0 -0.00000000000E+00 -0.00000000000E+00 -0.45593999997E+02  0.45594000000E+02  0.51100000000E-03 0. -1.
    9900012    2    1    2    0    0 -0.17410137461E+02 -0.20857560091E+02  0.30249210605E+02  0.50528862753E+02  0.30000008825E+02 0.  0.
         12    1    1    2    0    0  0.17410137461E+02  0.20857560091E+02 -0.30249210605E+02  0.40659137247E+02  0.00000000000E+00 0. -1.
         11    1    3    3    0    0 -0.37667098993E+01  0.49951692656E+01  0.64717889442E+01  0.90013261165E+01  0.51100000000E-03 0. -1.
        -11    1    3    3    0    0 -0.73817942169E+01 -0.79431313944E+00  0.93607029641E+01  0.11947576301E+02  0.51100000000E-03 0.  1.
        -12    1    3    3    0    0 -0.62616333447E+01 -0.25058416218E+02  0.14416718697E+02  0.29579960336E+02  0.00000000000E+00 0.  1.
</event>
<event>
 7    1  0.5642630E-013  0.5052886E+02  0.7816164E-02  0.1300439E+00
        -11   -1    0    0    0    0  0.00000000000E+00  0.00000000000E+00  0.45593999997E+02  0.45594000000E+02  0.51100000000E-03 0.  1.
         11   -1    0    0    0    0 -0.00000000000E+00 -0.00000000000E+00 -0.45593999997E+02  0.45594000000E+02  0.51100000000E-03 0. -1.
    9900012    2    1    2    0    0  0.12491320869E+02  0.25911282705E+02  0.28735660400E+02  0.50528857767E+02  0.29999993670E+02 0.  0.
         12    1    1    2    0    0 -0.12491320869E+02 -0.25911282705E+02 -0.28735660400E+02  0.40659142233E+02  0.00000000000E+00 0. -1.
         11    1    3    3    0    0  0.53957969774E+01  0.73620559952E+01 -0.40193923200E+01  0.99734652143E+01  0.51100000000E-03 0. -1.
        -11    1    3    3    0    0 -0.16564763246E+01  0.28639039543E+00 -0.37829810581E+00  0.17230911150E+01  0.51100000000E-03 0.  1.
        -12    1    3    3    0    0  0.87520002166E+01  0.18262836314E+02  0.33133350826E+02  0.38832301438E+02  0.00000000000E+00 0.  1.
</event>
<event>
 7    1  0.5642630E-013  0.5052886E+02  0.7816164E-02  0.1300439E+00
        -11   -1    0    0    0    0  0.00000000000E+00  0.00000000000E+00  0.45593999997E+02  0.45594000000E+02  0.51100000000E-03 0. -1.
         11   -1    0    0    0    0 -0.00000000000E+00 -0.00000000000E+00 -0.45593999997E+02  0.45594000000E+02  0.51100000000E-03 0.  1.
    9900012    2    1    2    0    0 -0.15050402142E+02  0.37716237955E+02 -0.20337949146E+01  0.50528861644E+02  0.30000005452E+02 0.  0.
         12    1    1    2    0    0  0.15050402142E+02 -0.37716237955E+02  0.20337949146E+01  0.40659138356E+02  0.00000000000E+00 0. -1.
         11    1    3    3    0    0 -0.10489922175E+01 -0.94009599120E+00  0.29090191575E+01  0.32321135291E+01  0.51100000000E-03 0. -1.
        -11    1    3    3    0    0 -0.91593180947E+01  0.36829792754E+02 -0.10821877750E+02  0.39464411570E+02  0.51100000000E-03 0.  1.
         12    1    3    3    0    0 -0.48420918299E+01  0.18265411927E+01  0.58790636784E+01  0.78323365449E+01  0.00000000000E+00 0. -1.
</event>
<event>
 7    1  0.5642630E-013  0.5052886E+02  0.7816164E-02  0.1300439E+00
        -11   -1    0    0    0    0  0.00000000000E+00  0.00000000000E+00  0.45593999997E+02  0.45594000000E+02  0.51100000000E-03 0.  1.
         11   -1    0    0    0    0 -0.00000000000E+00 -0.00000000000E+00 -0.45593999997E+02  0.45594000000E+02  0.51100000000E-03 0. -1.
    9900012    2    1    2    0    0 -0.30411243044E+02 -0.16181668077E+02  0.21598044714E+02  0.50528860552E+02  0.30000002132E+02 0.  0.
         12    1    1    2    0    0  0.30411243044E+02  0.16181668077E+02 -0.21598044714E+02  0.40659139448E+02  0.00000000000E+00 0. -1.
         11    1    3    3    0    0 -0.45790863446E+01 -0.19606946988E+01  0.70062511886E+01  0.85965057688E+01  0.51100000000E-03 0. -1.
        -11    1    3    3    0    0 -0.16312693663E+02 -0.10831599379E+02  0.21963115102E+02  0.29424580625E+02  0.51100000000E-03 0.  1.
         12    1    3    3    0    0 -0.95194630362E+01 -0.33893739985E+01 -0.73713215772E+01  0.12507774158E+02  0.00000000000E+00 0. -1.
</event>
<event>
 7    1  0.5642630E-013  0.5052887E+02  0.7816164E-02  0.1300439E+00
        -11   -1    0    0    0    0  0.00000000000E+00  0.00000000000E+00  0.45593999997E+02  0.45594000000E+02  0.51100000000E-03 0.  1.
         11   -1    0    0    0    0 -0.00000000000E+00 -0.00000000000E+00 -0.45593999997E+02  0.45594000000E+02  0.51100000000E-03 0. -1.
    9900012    2    1    2    0    0  0.29814020583E+02 -0.27638845682E+02  0.61897198666E+00  0.50528871378E+02  0.30000035041E+02 0.  0.
         12    1    1    2    0    0 -0.29814020583E+02  0.27638845682E+02 -0.61897198666E+00  0.40659128622E+02  0.00000000000E+00 0. -1.
         11    1    3    3    0    0  0.21022943053E+01 -0.55478857023E+00  0.55790050836E+01  0.59877148970E+01  0.51100000000E-03 0. -1.
        -11    1    3    3    0    0  0.13010845961E+02 -0.15990131108E+02  0.79020245736E+01  0.22077327694E+02  0.51100000000E-03 0.  1.
         12    1    3    3    0    0  0.14700880316E+02 -0.11093926004E+02 -0.12862057671E+02  0.22463828787E+02  0.00000000000E+00 0. -1.
</event>
<event>
 7    1  0.5642630E-013  0.5052884E+02  0.7816164E-02  0.1300439E+00
        -11   -1    0    0    0    0  0.00000000000E+00  0.00000000000E+00  0.45593999997E+02  0.45594000000E+02  0.51100000000E-03 0.  1.
         11   -1    0    0    0    0 -0.00000000000E+00 -0.00000000000E+00 -0.45593999997E+02  0.45594000000E+02  0.51100000000E-03 0. -1.
    9900012    2    1    2    0    0  0.74657315684E+01  0.34769303391E+02  0.19711045404E+02  0.50528844610E+02  0.29999953677E+02 0.  0.
         12    1    1    2    0    0 -0.74657315684E+01 -0.34769303391E+02 -0.19711045404E+02  0.40659155390E+02  0.00000000000E+00 0. -1.
         11    1    3    3    0    0  0.21589178133E+01  0.90378811006E+01  0.94315324258E+01  0.13240016053E+02  0.51100000000E-03 0. -1.
        -11    1    3    3    0    0  0.57660858249E+01  0.26313748795E+02  0.16125659015E+02  0.31395827753E+02  0.51100000000E-03 0.  1.
         12    1    3    3    0    0 -0.45927206977E+00 -0.58232650486E+00 -0.58461460371E+01  0.58930008043E+01  0.00000000000E+00 0. -1.
</event>
<event>
 7    1  0.5642630E-013  0.5052886E+02  0.7816164E-02  0.1300439E+00
        -11   -1    0    0    0    0  0.00000000000E+00  0.00000000000E+00  0.45593999997E+02  0.45594000000E+02  0.51100000000E-03 0. -1.
         11   -1    0    0    0    0 -0.00000000000E+00 -0.00000000000E+00 -0.45593999997E+02  0.45594000000E+02  0.51100000000E-03 0.  1.
    9900012    2    1    2    0    0 -0.91128332637E+01 -0.36030140539E+02 -0.16490928427E+02  0.50528862310E+02  0.30000007476E+02 0.  0.
         12    1    1    2    0    0  0.91128332637E+01  0.36030140539E+02  0.16490928427E+02  0.40659137690E+02  0.00000000000E+00 0. -1.
         11    1    3    3    0    0  0.71568502714E+00 -0.16579021818E+02 -0.30899113028E+01  0.16879683694E+02  0.51100000000E-03 0. -1.
        -11    1    3    3    0    0 -0.71401174448E+01 -0.24295749025E+02 -0.10857812492E+02  0.27552800043E+02  0.51100000000E-03 0.  1.
         12    1    3    3    0    0 -0.26884008460E+01  0.48446303046E+01 -0.25432046329E+01  0.60963785727E+01  0.00000000000E+00 0. -1.
</event>
<event>
 7    1  0.5642630E-013  0.5052889E+02  0.7816164E-02  0.1300439E+00
        -11   -1    0    0    0    0  0.00000000000E+00  0.00000000000E+00  0.45593999997E+02  0.45594000000E+02  0.51100000000E-03 0.  1.
         11   -1    0    0    0    0 -0.00000000000E+00 -0.00000000000E+00 -0.45593999997E+02  0.45594000000E+02  0.51100000000E-03 0. -1.
    9900012    2    1    2    0    0  0.33754393452E+02 -0.19983738414E+02  0.10698344449E+02  0.50528887218E+02  0.30000083187E+02 0.  0.
         12    1    1    2    0    0 -0.33754393452E+02  0.19983738414E+02 -0.10698344449E+02  0.40659112782E+02  0.00000000000E+00 0. -1.
         11    1    3    3    0    0  0.19496609942E+02 -0.11623397146E+02  0.14349841606E+02  0.26854033493E+02  0.51100000000E-03 0. -1.
        -11    1    3    3    0    0  0.14439109481E+02 -0.24831828216E+01  0.28318785092E+01  0.14922252367E+02  0.51100000000E-03 0.  1.
         12    1    3    3    0    0 -0.18132597202E+00 -0.58771584461E+01 -0.64833756664E+01  0.87526013585E+01  0.00000000000E+00 0. -1.
</event>
<event>
 7    1  0.5642630E-013  0.5052886E+02  0.7816164E-02  0.1300439E+00
        -11   -1    0    0    0    0  0.00000000000E+00  0.00000000000E+00  0.45593999997E+02  0.45594000000E+02  0.51100000000E-03 0.  1.
         11   -1    0    0    0    0 -0.00000000000E+00 -0.00000000000E+00 -0.45593999997E+02  0.45594000000E+02  0.51100000000E-03 0. -1.
    9900012    2    1    2    0    0  0.33028410228E+02 -0.19823341642E+02  0.13012476544E+02  0.50528864473E+02  0.30000014051E+02 0.  0.
         12    1    1    2    0    0 -0.33028410228E+02  0.19823341642E+02 -0.13012476544E+02  0.40659135527E+02  0.00000000000E+00 0. -1.
         11    1    3    3    0    0  0.16291343866E+02 -0.10537301453E+02 -0.36033659220E+01  0.19733901112E+02  0.51100000000E-03 0. -1.
        -11    1    3    3    0    0  0.18825552102E+02 -0.31228388129E+01  0.10119730274E+02  0.21600057298E+02  0.51100000000E-03 0.  1.
        -12    1    3    3    0    0 -0.20884857401E+01 -0.61632013766E+01  0.64961121921E+01  0.91949060630E+01  0.00000000000E+00 0.  1.
</event>
<event>
 7    1  0.5642630E-013  0.5052886E+02  0.7816164E-02  0.1300439E+00
        -11   -1    0    0    0    0  0.00000000000E+00  0.00000000000E+00  0.45593999997E+02  0.45594000000E+02  0.51100000000E-03 0. -1.
         11   -1    0    0    0    0 -0.00000000000E+00 -0.00000000000E+00 -0.45593999997E+02  0.45594000000E+02  0.51100000000E-03 0.  1.
    9900012    2    1    2    0    0  0.21730687187E+02  0.11348286942E+01 -0.34346109884E+02  0.50528857535E+02  0.29999992964E+02 0.  0.
         12    1    1    2    0    0 -0.21730687187E+02 -0.11348286942E+01  0.34346109884E+02  0.40659142465E+02  0.00000000000E+00 0. -1.
         11    1    3    3    0    0  0.48463608678E+01 -0.78256630772E+01 -0.21157961491E+02  0.23073524893E+02  0.51100000000E-03 0. -1.
        -11    1    3    3    0    0  0.10146905862E+02 -0.70836938590E+00 -0.11815989559E+02  0.15590994044E+02  0.51100000000E-03 0.  1.
        -12    1    3    3    0    0  0.67374204576E+01  0.96688611573E+01 -0.13721588336E+01  0.11864338598E+02  0.00000000000E+00 0.  1.
</event>
<event>
 7    1  0.5642630E-013  0.5052885E+02  0.7816164E-02  0.1300439E+00
        -11   -1    0    0    0    0  0.00000000000E+00  0.00000000000E+00  0.45593999997E+02  0.45594000000E+02  0.51100000000E-03 0. -1.
         11   -1    0    0    0    0 -0.00000000000E+00 -0.00000000000E+00 -0.45593999997E+02  0.45594000000E+02  0.51100000000E-03 0.  1.
    9900012    2    1    2    0    0  0.19666295163E+01 -0.21471433719E+02 -0.34471386160E+02  0.50528848984E+02  0.29999966971E+02 0.  0.
         12    1    1    2    0    0 -0.19666295163E+01  0.21471433719E+02  0.34471386160E+02  0.40659151016E+02  0.00000000000E+00 0. -1.
         11    1    3    3    0    0  0.43014671168E+00  0.33793585941E+01 -0.90918896288E+01  0.97091476445E+01  0.51100000000E-03 0. -1.
        -11    1    3    3    0    0  0.31536052169E+01  0.27425868129E+01 -0.47659208904E+01  0.63388493029E+01  0.51100000000E-03 0.  1.
        -12    1    3    3    0    0 -0.16171224122E+01 -0.27593379126E+02 -0.20613575641E+02  0.34480852036E+02  0.00000000000E+00 0.  1.
</event>
<event>
 7    1  0.5642630E-013  0.5052887E+02  0.7816164E-02  0.1300439E+00
        -11   -1    0    0    0    0  0.00000000000E+00  0.00000000000E+00  0.45593999997E+02  0.45594000000E+02  0.51100000000E-03 0.  1.
         11   -1    0    0    0    0 -0.00000000000E+00 -0.00000000000E+00 -0.45593999997E+02  0.45594000000E+02  0.51100000000E-03 0. -1.
    9900012    2    1    2    0    0 -0.26648841160E+02 -0.22460150833E+02  0.20941476876E+02  0.50528873542E+02  0.30000041618E+02 0.  0.
         12    1    1    2    0    0  0.26648841160E+02  0.22460150833E+02 -0.20941476876E+02  0.40659126458E+02  0.00000000000E+00 0. -1.
         11    1    3    3    0    0 -0.83508809220E+01 -0.26229986865E+00 -0.27063355948E+01  0.87823838454E+01  0.51100000000E-03 0. -1.
        -11    1    3    3    0    0 -0.38476968773E+01 -0.14328173494E+01 -0.29372082643E+01  0.50482600433E+01  0.51100000000E-03 0.  1.
        -12    1    3    3    0    0 -0.14450263360E+02 -0.20765033615E+02  0.26585020735E+02  0.36698229653E+02  0.00000000000E+00 0.  1.
</event>
<event>
 7    1  0.5642630E-013  0.5052886E+02  0.7816164E-02  0.1300439E+00
        -11   -1    0    0    0    0  0.00000000000E+00  0.00000000000E+00  0.45593999997E+02  0.45594000000E+02  0.51100000000E-03 0.  1.
         11   -1    0    0    0    0 -0.00000000000E+00 -0.00000000000E+00 -0.45593999997E+02  0.45594000000E+02  0.51100000000E-03 0. -1.
    9900012    2    1    2    0    0 -0.15097645518E+02 -0.12160956939E+02  0.35739865337E+02  0.50528858984E+02  0.29999997368E+02 0.  0.
         12    1    1    2    0    0  0.15097645518E+02  0.12160956939E+02 -0.35739865337E+02  0.40659141016E+02  0.00000000000E+00 0. -1.
         11    1    3    3    0    0 -0.12882763077E+02 -0.48050373242E+01  0.14348111745E+02  0.19872651536E+02  0.51100000000E-03 0. -1.
        -11    1    3    3    0    0 -0.31925346642E+01 -0.12926031843E+02  0.66826188301E+01  0.14897381363E+02  0.51100000000E-03 0.  1.
         12    1    3    3    0    0  0.97765222380E+00  0.55701122282E+01  0.14709134763E+02  0.15758826085E+02  0.00000000000E+00 0. -1.
</event>
<event>
 7    1  0.5642630E-013  0.5052898E+02  0.7816164E-02  0.1300438E+00
        -11   -1    0    0    0    0  0.00000000000E+00  0.00000000000E+00  0.45593999997E+02  0.45594000000E+02  0.51100000000E-03 0.  1.
         11   -1    0    0    0    0 -0.00000000000E+00 -0.00000000000E+00 -0.45593999997E+02  0.45594000000E+02  0.51100000000E-03 0. -1.
    9900012    2    1    2    0    0 -0.95100260018E+01 -0.43990833144E+01  0.39285660825E+02  0.50528982858E+02  0.30000373891E+02 0.  0.
         12    1    1    2    0    0  0.95100260018E+01  0.43990833144E+01 -0.39285660825E+02  0.40659017142E+02  0.00000000000E+00 0. -1.
         11    1    3    3    0    0 -0.49348570698E+01 -0.39282813394E+00  0.36284813162E+01  0.61378339148E+01  0.51100000000E-03 0. -1.
        -11    1    3    3    0    0 -0.81638528460E+01 -0.13686372592E+02  0.24120746823E+02  0.28909785810E+02  0.51100000000E-03 0.  1.
         12    1    3    3    0    0  0.35886839140E+01  0.96801174117E+01  0.11536432685E+02  0.15481363133E+02  0.00000000000E+00 0. -1.
</event>
<event>
 7    1  0.5642630E-013  0.5052877E+02  0.7816164E-02  0.1300439E+00
        -11   -1    0    0    0    0  0.00000000000E+00  0.00000000000E+00  0.45593999997E+02  0.45594000000E+02  0.51100000000E-03 0. -1.
         11   -1    0    0    0    0 -0.00000000000E+00 -0.00000000000E+00 -0.45593999997E+02  0.45594000000E+02  0.51100000000E-03 0.  1.
    9900012    2    1    2    0    0  0.22751940963E+02  0.28512242918E+02 -0.17960341877E+02  0.50528773568E+02  0.29999737735E+02 0.  0.
         12    1    1    2    0    0 -0.22751940963E+02 -0.28512242918E+02  0.17960341877E+02  0.40659226432E+02  0.00000000000E+00 0. -1.
         11    1    3    3    0    0  0.59013407788E+01 -0.15909841958E+01 -0.96253167654E+01  0.11401919873E+02  0.51100000000E-03 0.  1.
        -11    1    3    3    0    0  0.85791379901E+01  0.18495963538E+01 -0.23448219801E+01  0.90840963065E+01  0.51100000000E-03 0. -1.
         12    1    3    3    0    0  0.82714621937E+01  0.28253630760E+02 -0.59902031312E+01  0.30042757388E+02  0.00000000000E+00 0. -1.
</event>
<event>
 7    1  0.5642630E-013  0.5052887E+02  0.7816164E-02  0.1300439E+00
        -11   -1    0    0    0    0  0.00000000000E+00  0.00000000000E+00  0.45593999997E+02  0.45594000000E+02  0.51100000000E-03 0.  1.
         11   -1    0    0    0    0 -0.00000000000E+00 -0.00000000000E+00 -0.45593999997E+02  0.45594000000E+02  0.51100000000E-03 0. -1.
    9900012    2    1    2    0    0  0.80275758127E+00 -0.11005908910E+01  0.40636305951E+02  0.50528867184E+02  0.30000022291E+02 0.  0.
         12    1    1    2    0    0 -0.80275758127E+00  0.11005908910E+01 -0.40636305951E+02  0.40659132816E+02  0.00000000000E+00 0. -1.
         11    1    3    3    0    0 -0.24732771300E+00  0.11864903210E+01 -0.17481081123E+01  0.21271606692E+01  0.51100000000E-03 0.  1.
        -11    1    3    3    0    0  0.64025158237E+01  0.49466520615E+01  0.40931185847E+01  0.90672595363E+01  0.51100000000E-03 0. -1.
        -12    1    3    3    0    0 -0.53524305294E+01 -0.72337332735E+01  0.38291295479E+02  0.39334446978E+02  0.00000000000E+00 0.  1.
</event>
<event>
 7    1  0.5642630E-013  0.5052886E+02  0.7816164E-02  0.1300439E+00
        -11   -1    0    0    0    0  0.00000000000E+00  0.00000000000E+00  0.45593999997E+02  0.45594000000E+02  0.51100000000E-03 0.  1.
         11   -1    0    0    0    0 -0.00000000000E+00 -0.00000000000E+00 -0.45593999997E+02  0.45594000000E+02  0.51100000000E-03 0. -1.
    9900012    2    1    2    0    0 -0.28374827510E+02 -0.26464644815E+02  0.12151441558E+02  0.50528858428E+02  0.29999995679E+02 0.  0.
         12    1    1    2    0    0  0.28374827510E+02  0.26464644815E+02 -0.12151441558E+02  0.40659141572E+02  0.00000000000E+00 0. -1.
         11    1    3    3    0    0  0.21693402106E+01  0.12231762827E+01 -0.16255233604E+01  0.29739743820E+01  0.51100000000E-03 0. -1.
        -11    1    3    3    0    0 -0.11523318597E+02 -0.18862983633E+02  0.14733854032E+02  0.26564741254E+02  0.51100000000E-03 0.  1.
         12    1    3    3    0    0 -0.19020849123E+02 -0.88248374655E+01 -0.95688911354E+00  0.20990142792E+02  0.00000000000E+00 0. -1.
</event>
<event>
 7    1  0.5642630E-013  0.5052886E+02  0.7816164E-02  0.1300439E+00
        -11   -1    0    0    0    0  0.00000000000E+00  0.00000000000E+00  0.45593999997E+02  0.45594000000E+02  0.51100000000E-03 0.  1.
         11   -1    0    0    0    0 -0.00000000000E+00 -0.00000000000E+00 -0.45593999997E+02  0.45594000000E+02  0.51100000000E-03 0. -1.
    9900012    2    1    2    0    0  0.26722837337E+02  0.24480411071E+02  0.18432723156E+02  0.50528857799E+02  0.29999993765E+02 0.  0.
         12    1    1    2    0    0 -0.26722837337E+02 -0.24480411071E+02 -0.18432723156E+02  0.40659142201E+02  0.00000000000E+00 0. -1.
         11    1    3    3    0    0  0.94961100347E+01  0.10972579661E+02  0.14884027466E+02  0.20787204816E+02  0.51100000000E-03 0. -1.
        -11    1    3    3    0    0  0.80956244755E+01  0.10204561667E+02  0.11356834322E+02  0.17281490114E+02  0.51100000000E-03 0.  1.
        -12    1    3    3    0    0  0.91311028273E+01  0.33032697435E+01 -0.78081386315E+01  0.12460162869E+02  0.00000000000E+00 0.  1.
</event>
<event>
 7    1  0.5642630E-013  0.5052884E+02  0.7816164E-02  0.1300439E+00
        -11   -1    0    0    0    0  0.00000000000E+00  0.00000000000E+00  0.45593999997E+02  0.45594000000E+02  0.51100000000E-03 0. -1.
         11   -1    0    0    0    0 -0.00000000000E+00 -0.00000000000E+00 -0.45593999997E+02  0.45594000000E+02  0.51100000000E-03 0.  1.
    9900012    2    1    2    0    0 -0.27483877256E+02 -0.21402727218E+02 -0.20969668756E+02  0.50528840526E+02  0.29999941264E+02 0.  0.
         12    1    1    2    0    0  0.27483877256E+02  0.21402727218E+02  0.20969668756E+02  0.40659159474E+02  0.00000000000E+00 0. -1.
         11    1    3    3    0    0  0.13525054342E+00 -0.37895362471E+01  0.86125754161E+00  0.38885270337E+01  0.51100000000E-03 0. -1.
        -11    1    3    3    0    0  0.42962025144E+01 -0.82864892216E+00 -0.55718189581E+01  0.70844323586E+01  0.51100000000E-03 0.  1.
         12    1    3    3    0    0 -0.31915330314E+02 -0.16784542049E+02 -0.16259107339E+02  0.39555881134E+02  0.00000000000E+00 0. -1.
</event>
<event>
 7    1  0.5642630E-013  0.5052886E+02  0.7816164E-02  0.1300439E+00
        -11   -1    0    0    0    0  0.00000000000E+00  0.00000000000E+00  0.45593999997E+02  0.45594000000E+02  0.51100000000E-03 0.  1.
         11   -1    0    0    0    0 -0.00000000000E+00 -0.00000000000E+00 -0.45593999997E+02  0.45594000000E+02  0.51100000000E-03 0. -1.
    9900012    2    1    2    0    0 -0.31811358010E+02  0.95609607750E+00  0.25303933813E+02  0.50528859766E+02  0.29999999746E+02 0.  0.
         12    1    1    2    0    0  0.31811358010E+02 -0.95609607750E+00 -0.25303933813E+02  0.40659140234E+02  0.00000000000E+00 0. -1.
         11    1    3    3    0    0 -0.18370808584E+02  0.10994536088E+02  0.19016455403E+02  0.28635502583E+02  0.51100000000E-03 0. -1.
        -11    1    3    3    0    0  0.24573763325E+01 -0.18249804476E+01  0.62054387567E+00  0.31231918027E+01  0.51100000000E-03 0.  1.
        -12    1    3    3    0    0 -0.15897925758E+02 -0.82134595633E+01  0.56669345347E+01  0.18770165381E+02  0.00000000000E+00 0.  1.
</event>
<event>
 7    1  0.5642630E-013  0.5052886E+02  0.7816164E-02  0.1300439E+00
        -11   -1    0    0    0    0  0.00000000000E+00  0.00000000000E+00  0.45593999997E+02  0.45594000000E+02  0.51100000000E-03 0.  1.
         11   -1    0    0    0    0 -0.00000000000E+00 -0.00000000000E+00 -0.45593999997E+02  0.45594000000E+02  0.51100000000E-03 0. -1.
    9900012    2    1    2    0    0 -0.11896024938E+02 -0.21326394623E+01  0.38821411651E+02  0.50528861261E+02  0.30000004289E+02 0.  0.
         12    1    1    2    0    0  0.11896024938E+02  0.21326394623E+01 -0.38821411651E+02  0.40659138739E+02  0.00000000000E+00 0. -1.
         11    1    3    3    0    0 -0.15144791914E+02  0.11185686202E+00  0.20586039163E+02  0.25557039006E+02  0.51100000000E-03 0. -1.
        -11    1    3    3    0    0 -0.59642291086E+01 -0.15872150149E+01  0.12911863231E+02  0.14311096839E+02  0.51100000000E-03 0.  1.
         12    1    3    3    0    0  0.92129960851E+01 -0.65728130941E+00  0.53235092572E+01  0.10660725416E+02  0.00000000000E+00 0. -1.
</event>
<event>
 7    1  0.5642630E-013  0.5052886E+02  0.7816164E-02  0.1300439E+00
        -11   -1    0    0    0    0  0.00000000000E+00  0.00000000000E+00  0.45593999997E+02  0.45594000000E+02  0.51100000000E-03 0.  1.
         11   -1    0    0    0    0 -0.00000000000E+00 -0.00000000000E+00 -0.45593999997E+02  0.45594000000E+02  0.51100000000E-03 0. -1.
    9900012    2    1    2    0    0 -0.38744547776E+02  0.92450259023E+01  0.81581305802E+01  0.50528861041E+02  0.30000003620E+02 0.  0.
         12    1    1    2    0    0  0.38744547776E+02 -0.92450259023E+01 -0.81581305802E+01  0.40659138959E+02  0.00000000000E+00 0. -1.
         11    1    3    3    0    0 -0.70699576323E+01 -0.47659924989E+01  0.43717582825E+01  0.95818190425E+01  0.51100000000E-03 0.  1.
        -11    1    3    3    0    0 -0.14126558196E+02  0.68428141247E+01 -0.89889230488E+01  0.18088241746E+02  0.51100000000E-03 0. -1.
         12    1    3    3    0    0 -0.17548031948E+02  0.71682042765E+01  0.12775295346E+02  0.22858800253E+02  0.00000000000E+00 0. -1.
</event>
<event>
 7    1  0.5642630E-013  0.5052884E+02  0.7816164E-02  0.1300439E+00
        -11   -1    0    0    0    0  0.00000000000E+00  0.00000000000E+00  0.45593999997E+02  0.45594000000E+02  0.51100000000E-03 0.  1.
         11   -1    0    0    0    0 -0.00000000000E+00 -0.00000000000E+00 -0.45593999997E+02  0.45594000000E+02  0.51100000000E-03 0. -1.
    9900012    2    1    2    0    0  0.40293437730E+01 -0.85617818108E+01  0.39542732336E+02  0.50528838675E+02  0.29999935638E+02 0.  0.
         12    1    1    2    0    0 -0.40293437730E+01  0.85617818108E+01 -0.39542732336E+02  0.40659161325E+02  0.00000000000E+00 0. -1.
         11    1    3    3    0    0  0.39993751227E+01 -0.61829501818E+01  0.69341364553E+00  0.73962623715E+01  0.51100000000E-03 0. -1.
        -11    1    3    3    0    0 -0.92261894147E+01 -0.14974469299E+01  0.17317228600E+02  0.19678702322E+02  0.51100000000E-03 0.  1.
        -12    1    3    3    0    0  0.92561580649E+01 -0.88138469917E+00  0.21532090091E+02  0.23453873982E+02  0.00000000000E+00 0.  1.
</event>
<event>
 7    1  0.5642630E-013  0.5052886E+02  0.7816164E-02  0.1300439E+00
        -11   -1    0    0    0    0  0.00000000000E+00  0.00000000000E+00  0.45593999997E+02  0.45594000000E+02  0.51100000000E-03 0. -1.
         11   -1    0    0    0    0 -0.00000000000E+00 -0.00000000000E+00 -0.45593999997E+02  0.45594000000E+02  0.51100000000E-03 0.  1.
    9900012    2    1    2    0    0  0.13067692989E+02 -0.38372290006E+02  0.31573193534E+01  0.50528857045E+02  0.29999991474E+02 0.  0.
         12    1    1    2    0    0 -0.13067692989E+02  0.38372290006E+02 -0.31573193534E+01  0.40659142955E+02  0.00000000000E+00 0. -1.
         11    1    3    3    0    0  0.57041394269E+01 -0.20832137402E+02  0.23387433938E+01  0.21725212917E+02  0.51100000000E-03 0. -1.
        -11    1    3    3    0    0  0.93019756897E+00 -0.18466169608E+02 -0.59463899346E+01  0.19422261481E+02  0.51100000000E-03 0.  1.
         12    1    3    3    0    0  0.64333559927E+01  0.92601700492E+00  0.67649658942E+01  0.93813826471E+01  0.00000000000E+00 0. -1.
</event>
<event>
 7    1  0.5642630E-013  0.5052886E+02  0.7816164E-02  0.1300439E+00
        -11   -1    0    0    0    0  0.00000000000E+00  0.00000000000E+00  0.45593999997E+02  0.45594000000E+02  0.51100000000E-03 0.  1.
         11   -1    0    0    0    0 -0.00000000000E+00 -0.00000000000E+00 -0.45593999997E+02  0.45594000000E+02  0.51100000000E-03 0. -1.
    9900012    2    1    2    0    0  0.62210453946E+01  0.25514769098E+02  0.31039671276E+02  0.50528855385E+02  0.29999986427E+02 0.  0.
         12    1    1    2    0    0 -0.62210453946E+01 -0.25514769098E+02 -0.31039671276E+02  0.40659144615E+02  0.00000000000E+00 0. -1.
         11    1    3    3    0    0  0.12905827948E+02  0.17685507819E+01  0.67610835837E+01  0.14676526101E+02  0.51100000000E-03 0. -1.
        -11    1    3    3    0    0  0.18294174818E+01  0.32737321867E+01  0.14285932464E+01  0.40130997592E+01  0.51100000000E-03 0.  1.
        -12    1    3    3    0    0 -0.85142000353E+01  0.20472486129E+02  0.22849994446E+02  0.31839229525E+02  0.00000000000E+00 0.  1.
</event>
<event>
 7    1  0.5642630E-013  0.5052885E+02  0.7816164E-02  0.1300439E+00
        -11   -1    0    0    0    0  0.00000000000E+00  0.00000000000E+00  0.45593999997E+02  0.45594000000E+02  0.51100000000E-03 0.  1.
         11   -1    0    0    0    0 -0.00000000000E+00 -0.00000000000E+00 -0.45593999997E+02  0.45594000000E+02  0.51100000000E-03 0. -1.
    9900012    2    1    2    0    0  0.20223436142E+02  0.34378190267E+02  0.78942672551E+01  0.50528846161E+02  0.29999958391E+02 0.  0.
         12    1    1    2    0    0 -0.20223436142E+02 -0.34378190267E+02 -0.78942672551E+01  0.40659153839E+02  0.00000000000E+00 0. -1.
         11    1    3    3    0    0  0.68776787111E+01  0.14066191881E+01 -0.32434252155E+01  0.77331008906E+01  0.51100000000E-03 0. -1.
        -11    1    3    3    0    0  0.15396486076E+02  0.11093862710E+02  0.23173212731E+01  0.19117937950E+02  0.51100000000E-03 0.  1.
        -12    1    3    3    0    0 -0.20507286451E+01  0.21877708368E+02  0.88203711976E+01  0.23677807320E+02  0.00000000000E+00 0.  1.
</event>
<event>
 7    1  0.5642630E-013  0.5052885E+02  0.7816164E-02  0.1300439E+00
        -11   -1    0    0    0    0  0.00000000000E+00  0.00000000000E+00  0.45593999997E+02  0.45594000000E+02  0.51100000000E-03 0.  1.
         11   -1    0    0    0    0 -0.00000000000E+00 -0.00000000000E+00 -0.45593999997E+02  0.45594000000E+02  0.51100000000E-03 0. -1.
    9900012    2    1    2    0    0 -0.10500694722E+02  0.38535539173E+02  0.76101459884E+01  0.50528847390E+02  0.29999962127E+02 0.  0.
         12    1    1    2    0    0  0.10500694722E+02 -0.38535539173E+02 -0.76101459884E+01  0.40659152610E+02  0.00000000000E+00 0. -1.
         11    1    3    3    0    0 -0.16182346388E+02  0.22559432215E+02  0.88286840191E+01  0.29133176590E+02  0.51100000000E-03 0. -1.
        -11    1    3    3    0    0  0.21507511996E+01  0.14282691492E+02  0.38904901091E+01  0.14958506628E+02  0.51100000000E-03 0.  1.
         12    1    3    3    0    0  0.35309004667E+01  0.16934154661E+01 -0.51090281398E+01  0.64371641722E+01  0.00000000000E+00 0. -1.
</event>
<event>
 7    1  0.5642630E-013  0.5052886E+02  0.7816164E-02  0.1300439E+00
        -11   -1    0    0    0    0  0.00000000000E+00  0.00000000000E+00  0.45593999997E+02  0.45594000000E+02  0.51100000000E-03 0. -1.
         11   -1    0    0    0    0 -0.00000000000E+00 -0.00000000000E+00 -0.45593999997E+02  0.45594000000E+02  0.51100000000E-03 0.  1.
    9900012    2    1    2    0    0  0.24618971605E+02  0.29774887011E+02  0.12669965545E+02  0.50528859744E+02  0.29999999679E+02 0.  0.
         12    1    1    2    0    0 -0.24618971605E+02 -0.29774887011E+02 -0.12669965545E+02  0.40659140256E+02  0.00000000000E+00 0. -1.
         11    1    3    3    0    0 -0.24360187514E+01  0.46637879518E+01 -0.41057838749E+00  0.52776585992E+01  0.51100000000E-03 0. -1.
        -11    1    3    3    0    0  0.42441081847E+01  0.16658064097E+02 -0.86273176986E+00  0.17211852315E+02  0.51100000000E-03 0.  1.
         12    1    3    3    0    0  0.22810882172E+02  0.84530349625E+01  0.13943275702E+02  0.28039348830E+02  0.00000000000E+00 0. -1.
</event>
<event>
 7    1  0.5642630E-013  0.5052885E+02  0.7816164E-02  0.1300439E+00
        -11   -1    0    0    0    0  0.00000000000E+00  0.00000000000E+00  0.45593999997E+02  0.45594000000E+02  0.51100000000E-03 0.  1.
         11   -1    0    0    0    0 -0.00000000000E+00 -0.00000000000E+00 -0.45593999997E+02  0.45594000000E+02  0.51100000000E-03 0. -1.
    9900012    2    1    2    0    0 -0.33899830097E+02 -0.20877027070E+02  0.82533256238E+01  0.50528854365E+02  0.29999983328E+02 0.  0.
         12    1    1    2    0    0  0.33899830097E+02  0.20877027070E+02 -0.82533256238E+01  0.40659145635E+02  0.00000000000E+00 0. -1.
         11    1    3    3    0    0  0.28494639431E+01 -0.10845437877E+02  0.54805803274E+00  0.11226902305E+02  0.51100000000E-03 0. -1.
        -11    1    3    3    0    0 -0.55850355695E+01 -0.37133670420E+01  0.71919604238E+00  0.67452917142E+01  0.51100000000E-03 0.  1.
         12    1    3    3    0    0 -0.31164258471E+02 -0.63182221513E+01  0.69860715487E+01  0.32556660346E+02  0.00000000000E+00 0. -1.
</event>
<event>
 7    1  0.5642630E-013  0.5052886E+02  0.7816164E-02  0.1300439E+00
        -11   -1    0    0    0    0  0.00000000000E+00  0.00000000000E+00  0.45593999997E+02  0.45594000000E+02  0.51100000000E-03 0. -1.
         11   -1    0    0    0    0 -0.00000000000E+00 -0.00000000000E+00 -0.45593999997E+02  0.45594000000E+02  0.51100000000E-03 0.  1.
    9900012    2    1    2    0    0 -0.26992545409E+02  0.30298355385E+02  0.25647349609E+01  0.50528859427E+02  0.29999998713E+02 0.  0.
         12    1    1    2    0    0  0.26992545409E+02 -0.30298355385E+02 -0.25647349609E+01  0.40659140573E+02  0.00000000000E+00 0. -1.
         11    1    3    3    0    0 -0.10556777060E+02  0.16733121750E+02  0.47359308949E+00  0.19790583520E+02  0.51100000000E-03 0. -1.
        -11    1    3    3    0    0  0.81454873640E+00  0.67107614567E+01 -0.72884791068E+01  0.99408116833E+01  0.51100000000E-03 0.  1.
         12    1    3    3    0    0 -0.17250317086E+02  0.68544721785E+01  0.93796209782E+01  0.20797464223E+02  0.00000000000E+00 0. -1.
</event>
<event>
 7    1  0.5642630E-013  0.5052885E+02  0.7816164E-02  0.1300439E+00
        -11   -1    0    0    0    0  0.00000000000E+00  0.00000000000E+00  0.45593999997E+02  0.45594000000E+02  0.51100000000E-03 0.  1.
         11   -1    0    0    0    0 -0.00000000000E+00 -0.00000000000E+00 -0.45593999997E+02  0.45594000000E+02  0.51100000000E-03 0. -1.
    9900012    2    1    2    0    0  0.38059321877E+02 -0.12491068503E+02  0.69733366001E+01  0.50528853459E+02  0.29999980573E+02 0.  0.
         12    1    1    2    0    0 -0.38059321877E+02  0.12491068503E+02 -0.69733366001E+01  0.40659146541E+02  0.00000000000E+00 0. -1.
         11    1    3    3    0    0  0.20171719695E+02 -0.31207190905E+01  0.11656102118E+02  0.23505358537E+02  0.51100000000E-03 0. -1.
        -11    1    3    3    0    0  0.20871633669E+02 -0.89870168879E+01 -0.17012650981E+01  0.22787844737E+02  0.51100000000E-03 0.  1.
         12    1    3    3    0    0 -0.29840314865E+01 -0.38333252475E+00 -0.29815004198E+01  0.42356501851E+01  0.00000000000E+00 0. -1.
</event>
<event>
 7    1  0.5642630E-013  0.5052886E+02  0.7816164E-02  0.1300439E+00
        -11   -1    0    0    0    0  0.00000000000E+00  0.00000000000E+00  0.45593999997E+02  0.45594000000E+02  0.51100000000E-03 0.  1.
         11   -1    0    0    0    0 -0.00000000000E+00 -0.00000000000E+00 -0.45593999997E+02  0.45594000000E+02  0.51100000000E-03 0. -1.
    9900012    2    1    2    0    0 -0.18558278055E+02 -0.36151136236E+02  0.13606010928E+01  0.50528861164E+02  0.30000003995E+02 0.  0.
         12    1    1    2    0    0  0.18558278055E+02  0.36151136236E+02 -0.13606010928E+01  0.40659138836E+02  0.00000000000E+00 0. -1.
         11    1    3    3    0    0 -0.10794524618E+02 -0.12115111840E+02 -0.21032627730E+01  0.16362194571E+02  0.51100000000E-03 0. -1.
        -11    1    3    3    0    0 -0.97123580334E+01 -0.16321430591E+02  0.12024632376E+02  0.22479118736E+02  0.51100000000E-03 0.  1.
         12    1    3    3    0    0  0.19486045956E+01 -0.77145938045E+01 -0.85607685101E+01  0.11687547858E+02  0.00000000000E+00 0. -1.
</event>
<event>
 7    1  0.5642630E-013  0.5052886E+02  0.7816164E-02  0.1300439E+00
        -11   -1    0    0    0    0  0.00000000000E+00  0.00000000000E+00  0.45593999997E+02  0.45594000000E+02  0.51100000000E-03 0. -1.
         11   -1    0    0    0    0 -0.00000000000E+00 -0.00000000000E+00 -0.45593999997E+02  0.45594000000E+02  0.51100000000E-03 0.  1.
    9900012    2    1    2    0    0  0.10111773427E+02  0.20571677909E+02 -0.33581594297E+02  0.50528863642E+02  0.30000011527E+02 0.  0.
         12    1    1    2    0    0 -0.10111773427E+02 -0.20571677909E+02  0.33581594297E+02  0.40659136358E+02  0.00000000000E+00 0. -1.
         11    1    3    3    0    0 -0.53941922311E+01  0.24222742191E+01 -0.83333404218E+01  0.10218086174E+02  0.51100000000E-03 0. -1.
        -11    1    3    3    0    0  0.91019991186E+01  0.94018020689E+01 -0.26343279634E+02  0.29414429320E+02  0.51100000000E-03 0.  1.
        -12    1    3    3    0    0  0.64039665391E+01  0.87476016208E+01  0.10950257586E+01  0.10896348148E+02  0.00000000000E+00 0.  1.
</event>
<event>
 7    1  0.5642630E-013  0.5052881E+02  0.7816164E-02  0.1300439E+00
        -11   -1    0    0    0    0  0.00000000000E+00  0.00000000000E+00  0.45593999997E+02  0.45594000000E+02  0.51100000000E-03 0.  1.
         11   -1    0    0    0    0 -0.00000000000E+00 -0.00000000000E+00 -0.45593999997E+02  0.45594000000E+02  0.51100000000E-03 0. -1.
    9900012    2    1    2    0    0  0.28839947749E+02  0.81865255492E+01  0.27466492908E+02  0.50528806459E+02  0.29999837711E+02 0.  0.
         12    1    1    2    0    0 -0.28839947749E+02 -0.81865255492E+01 -0.27466492908E+02  0.40659193541E+02  0.00000000000E+00 0. -1.
         11    1    3    3    0    0  0.12649466740E+02  0.69570339898E+00  0.12787738712E+02  0.18000535372E+02  0.51100000000E-03 0. -1.
        -11    1    3    3    0    0  0.20487165288E+02  0.11153005265E+02  0.12602618208E+02  0.26513005374E+02  0.51100000000E-03 0.  1.
         12    1    3    3    0    0 -0.42966842791E+01 -0.36621831150E+01  0.20761359885E+01  0.60152657136E+01  0.00000000000E+00 0. -1.
</event>
<event>
 7    1  0.5642630E-013  0.5052883E+02  0.7816164E-02  0.1300439E+00
        -11   -1    0    0    0    0  0.00000000000E+00  0.00000000000E+00  0.45593999997E+02  0.45594000000E+02  0.51100000000E-03 0.  1.
         11   -1    0    0    0    0 -0.00000000000E+00 -0.00000000000E+00 -0.45593999997E+02  0.45594000000E+02  0.51100000000E-03 0. -1.
    9900012    2    1    2    0    0 -0.25149204498E+02 -0.19789187954E+02 -0.25081346335E+02  0.50528826610E+02  0.29999898964E+02 0.  0.
         12    1    1    2    0    0  0.25149204498E+02  0.19789187954E+02  0.25081346335E+02  0.40659173390E+02  0.00000000000E+00 0. -1.
         11    1    3    3    0    0 -0.80088754832E+01 -0.37844528317E+01 -0.22034598895E+01  0.91279464003E+01  0.51100000000E-03 0. -1.
        -11    1    3    3    0    0 -0.23356769912E+02 -0.11576445875E+02 -0.13650578115E+02  0.29426027305E+02  0.51100000000E-03 0.  1.
         12    1    3    3    0    0  0.62164408966E+01 -0.44282892472E+01 -0.92273083304E+01  0.11974852905E+02  0.00000000000E+00 0. -1.
</event>
<event>
 7    1  0.5642630E-013  0.5052886E+02  0.7816164E-02  0.1300439E+00
        -11   -1    0    0    0    0  0.00000000000E+00  0.00000000000E+00  0.45593999997E+02  0.45594000000E+02  0.51100000000E-03 0.  1.
         11   -1    0    0    0    0 -0.00000000000E+00 -0.00000000000E+00 -0.45593999997E+02  0.45594000000E+02  0.51100000000E-03 0. -1.
    9900012    2    1    2    0    0  0.13616733039E+02  0.28962329699E+02  0.25078545522E+02  0.50528863195E+02  0.30000010166E+02 0.  0.
         12    1    1    2    0    0 -0.13616733039E+02 -0.28962329699E+02 -0.25078545522E+02  0.40659136805E+02  0.00000000000E+00 0. -1.
         11    1    3    3    0    0  0.69569379367E+01 -0.18275495539E+01  0.27738121793E+00  0.71983236540E+01  0.51100000000E-03 0. -1.
        -11    1    3    3    0    0  0.33818001475E+01  0.28524532631E+00  0.72004312956E+01  0.79601600636E+01  0.51100000000E-03 0.  1.
         12    1    3    3    0    0  0.32779949553E+01  0.30504633926E+02  0.17600733009E+02  0.35370379477E+02  0.00000000000E+00 0. -1.
</event>
<event>
 7    1  0.5642630E-013  0.5052885E+02  0.7816164E-02  0.1300439E+00
        -11   -1    0    0    0    0  0.00000000000E+00  0.00000000000E+00  0.45593999997E+02  0.45594000000E+02  0.51100000000E-03 0.  1.
         11   -1    0    0    0    0 -0.00000000000E+00 -0.00000000000E+00 -0.45593999997E+02  0.45594000000E+02  0.51100000000E-03 0. -1.
    9900012    2    1    2    0    0  0.19563479537E+02  0.15682543424E+02  0.32007720597E+02  0.50528854932E+02  0.29999985052E+02 0.  0.
         12    1    1    2    0    0 -0.19563479537E+02 -0.15682543424E+02 -0.32007720597E+02  0.40659145068E+02  0.00000000000E+00 0. -1.
         11    1    3    3    0    0 -0.26963817457E+01  0.40816857059E+01  0.89779855416E+01  0.10224228938E+02  0.51100000000E-03 0. -1.
        -11    1    3    3    0    0  0.92324601224E+01  0.91295834081E+01  0.23704656091E+02  0.27027732679E+02  0.51100000000E-03 0.  1.
         12    1    3    3    0    0  0.13027401160E+02  0.24712743104E+01 -0.67492103626E+00  0.13276893316E+02  0.00000000000E+00 0. -1.
</event>
<event>
 7    1  0.5642630E-013  0.5052886E+02  0.7816164E-02  0.1300439E+00
        -11   -1    0    0    0    0  0.00000000000E+00  0.00000000000E+00  0.45593999997E+02  0.45594000000E+02  0.51100000000E-03 0. -1.
         11   -1    0    0    0    0 -0.00000000000E+00 -0.00000000000E+00 -0.45593999997E+02  0.45594000000E+02  0.51100000000E-03 0.  1.
    9900012    2    1    2    0    0 -0.24321793140E+02 -0.32541197934E+02 -0.16390684007E+01  0.50528859211E+02  0.29999998057E+02 0.  0.
         12    1    1    2    0    0  0.24321793140E+02  0.32541197934E+02  0.16390684007E+01  0.40659140789E+02  0.00000000000E+00 0. -1.
         11    1    3    3    0    0  0.38775416623E+01 -0.24508534048E+01  0.36415405992E+01  0.58568617835E+01  0.51100000000E-03 0. -1.
        -11    1    3    3    0    0 -0.67818473817E+01 -0.49029119610E+01 -0.78970671973E+01  0.11506331743E+02  0.51100000000E-03 0.  1.
         12    1    3    3    0    0 -0.21417487420E+02 -0.25187432568E+02  0.26164581974E+01  0.33165665684E+02  0.00000000000E+00 0. -1.
</event>
<event>
 7    1  0.5642630E-013  0.5052887E+02  0.7816164E-02  0.1300439E+00
        -11   -1    0    0    0    0  0.00000000000E+00  0.00000000000E+00  0.45593999997E+02  0.45594000000E+02  0.51100000000E-03 0. -1.
         11   -1    0    0    0    0 -0.00000000000E+00 -0.00000000000E+00 -0.45593999997E+02  0.45594000000E+02  0.51100000000E-03 0.  1.
    9900012    2    1    2    0    0  0.37288877755E+02 -0.13034048137E+02 -0.96342266817E+01  0.50528866477E+02  0.30000020143E+02 0.  0.
         12    1    1    2    0    0 -0.37288877755E+02  0.13034048137E+02  0.96342266817E+01  0.40659133523E+02  0.00000000000E+00 0. -1.
         11    1    3    3    0    0  0.46538650671E+01 -0.10828487322E+02 -0.54983603270E+01  0.13005635866E+02  0.51100000000E-03 0. -1.
        -11    1    3    3    0    0  0.68363084171E-01 -0.45814745222E+01 -0.12108778929E+01  0.47392834734E+01  0.51100000000E-03 0.  1.
        -12    1    3    3    0    0  0.32566649604E+02  0.23759137070E+01 -0.29249884618E+01  0.32783947137E+02  0.00000000000E+00 0.  1.
</event>
<event>
 7    1  0.5642630E-013  0.5052886E+02  0.7816164E-02  0.1300439E+00
        -11   -1    0    0    0    0  0.00000000000E+00  0.00000000000E+00  0.45593999997E+02  0.45594000000E+02  0.51100000000E-03 0.  1.
         11   -1    0    0    0    0 -0.00000000000E+00 -0.00000000000E+00 -0.45593999997E+02  0.45594000000E+02  0.51100000000E-03 0. -1.
    9900012    2    1    2    0    0 -0.19316108703E+02 -0.35300144762E+02  0.58269466263E+01  0.50528861020E+02  0.30000003556E+02 0.  0.
         12    1    1    2    0    0  0.19316108703E+02  0.35300144762E+02 -0.58269466263E+01  0.40659138980E+02  0.00000000000E+00 0. -1.
         11    1    3    3    0    0 -0.53103328804E+00 -0.49881367257E+01 -0.79806448838E+01  0.94262504407E+01  0.51100000000E-03 0. -1.
        -11    1    3    3    0    0 -0.16131007366E+01 -0.10152541609E+02 -0.16923519749E+01  0.10418265238E+02  0.51100000000E-03 0.  1.
        -12    1    3    3    0    0 -0.17171974678E+02 -0.20159466427E+02  0.15499943485E+02  0.30684345341E+02  0.00000000000E+00 0.  1.
</event>
<event>
 7    1  0.5642630E-013  0.5052883E+02  0.7816164E-02  0.1300439E+00
        -11   -1    0    0    0    0  0.00000000000E+00  0.00000000000E+00  0.45593999997E+02  0.45594000000E+02  0.51100000000E-03 0.  1.
         11   -1    0    0    0    0 -0.00000000000E+00 -0.00000000000E+00 -0.45593999997E+02  0.45594000000E+02  0.51100000000E-03 0. -1.
    9900012    2    1    2    0    0  0.35027251544E+02 -0.10668865807E+02  0.17675843896E+02  0.50528825073E+02  0.29999894292E+02 0.  0.
         12    1    1    2    0    0 -0.35027251544E+02  0.10668865807E+02 -0.17675843896E+02  0.40659174927E+02  0.00000000000E+00 0. -1.
         11    1    3    3    0    0  0.11589201852E+02 -0.12487010475E+02  0.16128472887E+02  0.23459809635E+02  0.51100000000E-03 0. -1.
        -11    1    3    3    0    0  0.13010487771E+01 -0.36488626465E+01  0.17858190804E+01  0.42656859451E+01  0.51100000000E-03 0.  1.
         12    1    3    3    0    0  0.22137000915E+02  0.54670073146E+01 -0.23844807213E+00  0.22803329493E+02  0.00000000000E+00 0. -1.
</event>
<event>
 7    1  0.5642630E-013  0.5052886E+02  0.7816164E-02  0.1300439E+00
        -11   -1    0    0    0    0  0.00000000000E+00  0.00000000000E+00  0.45593999997E+02  0.45594000000E+02  0.51100000000E-03 0.  1.
         11   -1    0    0    0    0 -0.00000000000E+00 -0.00000000000E+00 -0.45593999997E+02  0.45594000000E+02  0.51100000000E-03 0. -1.
    9900012    2    1    2    0    0  0.15219974128E+02  0.27651263504E+02  0.25630567072E+02  0.50528856449E+02  0.29999989663E+02 0.  0.
         12    1    1    2    0    0 -0.15219974128E+02 -0.27651263504E+02 -0.25630567072E+02  0.40659143551E+02  0.00000000000E+00 0. -1.
         11    1    3    3    0    0 -0.12500165860E+01 -0.33291108646E+01 -0.63771695179E+00  0.36127833848E+01  0.51100000000E-03 0. -1.
        -11    1    3    3    0    0 -0.24545270692E+01  0.75331916346E+01  0.18588051377E+01  0.81381101085E+01  0.51100000000E-03 0.  1.
        -12    1    3    3    0    0  0.18924517783E+02  0.23447182734E+02  0.24409478887E+02  0.38777962956E+02  0.00000000000E+00 0.  1.
</event>
<event>
 7    1  0.5642630E-013  0.5052886E+02  0.7816164E-02  0.1300439E+00
        -11   -1    0    0    0    0  0.00000000000E+00  0.00000000000E+00  0.45593999997E+02  0.45594000000E+02  0.51100000000E-03 0.  1.
         11   -1    0    0    0    0 -0.00000000000E+00 -0.00000000000E+00 -0.45593999997E+02  0.45594000000E+02  0.51100000000E-03 0. -1.
    9900012    2    1    2    0    0 -0.17703820056E+02  0.39940764391E+01  0.36383891470E+02  0.50528862655E+02  0.30000008526E+02 0.  0.
         12    1    1    2    0    0  0.17703820056E+02 -0.39940764391E+01 -0.36383891470E+02  0.40659137345E+02  0.00000000000E+00 0. -1.
         11    1    3    3    0    0 -0.50737535403E+01  0.90228306281E+01  0.58364392457E+01  0.11883537809E+02  0.51100000000E-03 0. -1.
        -11    1    3    3    0    0  0.35357044175E+00  0.63758476556E+01  0.85645411416E+01  0.10683061856E+02  0.51100000000E-03 0.  1.
        -12    1    3    3    0    0 -0.12983636957E+02 -0.11404601845E+02  0.21982911083E+02  0.27962262990E+02  0.00000000000E+00 0.  1.
</event>
<event>
 7    1  0.5642630E-013  0.5052886E+02  0.7816164E-02  0.1300439E+00
        -11   -1    0    0    0    0  0.00000000000E+00  0.00000000000E+00  0.45593999997E+02  0.45594000000E+02  0.51100000000E-03 0.  1.
         11   -1    0    0    0    0 -0.00000000000E+00 -0.00000000000E+00 -0.45593999997E+02  0.45594000000E+02  0.51100000000E-03 0. -1.
    9900012    2    1    2    0    0 -0.38224213763E+02  0.12191155860E+02  0.65917547404E+01  0.50528855524E+02  0.29999986851E+02 0.  0.
         12    1    1    2    0    0  0.38224213763E+02 -0.12191155860E+02 -0.65917547404E+01  0.40659144476E+02  0.00000000000E+00 0. -1.
         11    1    3    3    0    0  0.40972737542E+01 -0.29028653492E+00  0.87465406175E-01  0.41084752583E+01  0.51100000000E-03 0. -1.
        -11    1    3    3    0    0 -0.64233948656E+01 -0.26181619038E+01 -0.10664068660E-03  0.69364813577E+01  0.51100000000E-03 0.  1.
        -12    1    3    3    0    0 -0.35898092651E+02  0.15099604299E+02  0.65043959750E+01  0.39483898908E+02  0.00000000000E+00 0.  1.
</event>
<event>
 7    1  0.5642630E-013  0.5052886E+02  0.7816164E-02  0.1300439E+00
        -11   -1    0    0    0    0  0.00000000000E+00  0.00000000000E+00  0.45593999997E+02  0.45594000000E+02  0.51100000000E-03 0.  1.
         11   -1    0    0    0    0 -0.00000000000E+00 -0.00000000000E+00 -0.45593999997E+02  0.45594000000E+02  0.51100000000E-03 0. -1.
    9900012    2    1    2    0    0  0.96848050730E+01 -0.26693569715E+01  0.39398534369E+02  0.50528862942E+02  0.30000009397E+02 0.  0.
         12    1    1    2    0    0 -0.96848050730E+01  0.26693569715E+01 -0.39398534369E+02  0.40659137058E+02  0.00000000000E+00 0. -1.
         11    1    3    3    0    0 -0.20613336101E+01  0.31368581725E+01  0.19193652462E+02  0.19557230646E+02  0.51100000000E-03 0.  1.
        -11    1    3    3    0    0  0.93695038385E-01  0.43512842694E+01  0.13387005313E+02  0.14076731335E+02  0.51100000000E-03 0. -1.
         12    1    3    3    0    0  0.11652443645E+02 -0.10157499413E+02  0.68178765931E+01  0.16894900961E+02  0.00000000000E+00 0. -1.
</event>
<event>
 7    1  0.5642630E-013  0.5052887E+02  0.7816164E-02  0.1300439E+00
        -11   -1    0    0    0    0  0.00000000000E+00  0.00000000000E+00  0.45593999997E+02  0.45594000000E+02  0.51100000000E-03 0. -1.
         11   -1    0    0    0    0 -0.00000000000E+00 -0.00000000000E+00 -0.45593999997E+02  0.45594000000E+02  0.51100000000E-03 0.  1.
    9900012    2    1    2    0    0  0.26702656098E+02 -0.30097789033E+02  0.58528705138E+01  0.50528870144E+02  0.30000031290E+02 0.  0.
         12    1    1    2    0    0 -0.26702656098E+02  0.30097789033E+02 -0.58528705138E+01  0.40659129856E+02  0.00000000000E+00 0. -1.
         11    1    3    3    0    0  0.23726551878E+01  0.34844969040E+01 -0.66734263728E+00  0.42680859610E+01  0.51100000000E-03 0. -1.
        -11    1    3    3    0    0  0.19050692988E+02 -0.98656873640E+01  0.19988731476E+01  0.21546604944E+02  0.51100000000E-03 0.  1.
        -12    1    3    3    0    0  0.52793079222E+01 -0.23716598573E+02  0.45213400034E+01  0.24714179239E+02  0.00000000000E+00 0.  1.
</event>
<event>
 7    1  0.5642630E-013  0.5052887E+02  0.7816164E-02  0.1300439E+00
        -11   -1    0    0    0    0  0.00000000000E+00  0.00000000000E+00  0.45593999997E+02  0.45594000000E+02  0.51100000000E-03 0.  1.
         11   -1    0    0    0    0 -0.00000000000E+00 -0.00000000000E+00 -0.45593999997E+02  0.45594000000E+02  0.51100000000E-03 0. -1.
    9900012    2    1    2    0    0 -0.53642238856E+01  0.24261923166E+02  0.32183057080E+02  0.50528868472E+02  0.30000026206E+02 0.  0.
         12    1    1    2    0    0  0.53642238856E+01 -0.24261923166E+02 -0.32183057080E+02  0.40659131528E+02  0.00000000000E+00 0. -1.
         11    1    3    3    0    0  0.52185687471E+00  0.46850701321E+01  0.17583098557E+02  0.18204053720E+02  0.51100000000E-03 0. -1.
        -11    1    3    3    0    0 -0.96321879214E-01  0.29465910422E+01  0.14416203399E+02  0.14714570921E+02  0.51100000000E-03 0.  1.
        -12    1    3    3    0    0 -0.57897588811E+01  0.16630261992E+02  0.18375512449E+00  0.17610243830E+02  0.00000000000E+00 0.  1.
</event>
<event>
 7    1  0.5642630E-013  0.5052890E+02  0.7816164E-02  0.1300439E+00
        -11   -1    0    0    0    0  0.00000000000E+00  0.00000000000E+00  0.45593999997E+02  0.45594000000E+02  0.51100000000E-03 0.  1.
         11   -1    0    0    0    0 -0.00000000000E+00 -0.00000000000E+00 -0.45593999997E+02  0.45594000000E+02  0.51100000000E-03 0. -1.
    9900012    2    1    2    0    0  0.96320012585E+01  0.22978520419E+02  0.32130585722E+02  0.50528900309E+02  0.30000122979E+02 0.  0.
         12    1    1    2    0    0 -0.96320012585E+01 -0.22978520419E+02 -0.32130585722E+02  0.40659099691E+02  0.00000000000E+00 0. -1.
         11    1    3    3    0    0  0.16923584171E+02  0.24120696893E+02  0.30183532885E+02  0.42181291795E+02  0.51100000000E-03 0.  1.
        -11    1    3    3    0    0 -0.25554602653E+01 -0.34752869307E+00 -0.93920692205E+00  0.27446790820E+01  0.51100000000E-03 0. -1.
        -12    1    3    3    0    0 -0.47361226474E+01 -0.79464778092E+00  0.28862597582E+01  0.56029294319E+01  0.00000000000E+00 0.  1.
</event>
<event>
 7    1  0.5642630E-013  0.5052886E+02  0.7816164E-02  0.1300439E+00
        -11   -1    0    0    0    0  0.00000000000E+00  0.00000000000E+00  0.45593999997E+02  0.45594000000E+02  0.51100000000E-03 0.  1.
         11   -1    0    0    0    0 -0.00000000000E+00 -0.00000000000E+00 -0.45593999997E+02  0.45594000000E+02  0.51100000000E-03 0. -1.
    9900012    2    1    2    0    0  0.85173807044E+01  0.26246214394E+02  0.29862283433E+02  0.50528861840E+02  0.30000006049E+02 0.  0.
         12    1    1    2    0    0 -0.85173807044E+01 -0.26246214394E+02 -0.29862283433E+02  0.40659138160E+02  0.00000000000E+00 0. -1.
         11    1    3    3    0    0 -0.74999529336E+00  0.71431331872E+01  0.12147316633E+01  0.72843955099E+01  0.51100000000E-03 0. -1.
        -11    1    3    3    0    0  0.12991660705E+02  0.12603700160E+02  0.30555550763E+02  0.35514478573E+02  0.51100000000E-03 0.  1.
         12    1    3    3    0    0 -0.37242847073E+01  0.64993810467E+01 -0.19079989934E+01  0.77299877574E+01  0.00000000000E+00 0. -1.
</event>
<event>
 7    1  0.5642630E-013  0.5052886E+02  0.7816164E-02  0.1300439E+00
        -11   -1    0    0    0    0  0.00000000000E+00  0.00000000000E+00  0.45593999997E+02  0.45594000000E+02  0.51100000000E-03 0.  1.
         11   -1    0    0    0    0 -0.00000000000E+00 -0.00000000000E+00 -0.45593999997E+02  0.45594000000E+02  0.51100000000E-03 0. -1.
    9900012    2    1    2    0    0 -0.20257322867E+02 -0.35215011225E+02  0.16460359793E+01  0.50528861054E+02  0.30000003661E+02 0.  0.
         12    1    1    2    0    0  0.20257322867E+02  0.35215011225E+02 -0.16460359793E+01  0.40659138946E+02  0.00000000000E+00 0. -1.
         11    1    3    3    0    0 -0.13301649294E+02 -0.47047328759E+01  0.46695576880E+01  0.14861801864E+02  0.51100000000E-03 0. -1.
        -11    1    3    3    0    0 -0.11534197207E+02 -0.27485900415E+02 -0.40588803779E+01  0.30083000798E+02  0.51100000000E-03 0.  1.
         12    1    3    3    0    0  0.45785236341E+01 -0.30243779343E+01  0.10353586692E+01  0.55840583925E+01  0.00000000000E+00 0. -1.
</event>
<event>
 7    1  0.5642630E-013  0.5052885E+02  0.7816164E-02  0.1300439E+00
        -11   -1    0    0    0    0  0.00000000000E+00  0.00000000000E+00  0.45593999997E+02  0.45594000000E+02  0.51100000000E-03 0.  1.
         11   -1    0    0    0    0 -0.00000000000E+00 -0.00000000000E+00 -0.45593999997E+02  0.45594000000E+02  0.51100000000E-03 0. -1.
    9900012    2    1    2    0    0  0.29199080750E+01 -0.10280208897E+02  0.39229554696E+02  0.50528849495E+02  0.29999968524E+02 0.  0.
         12    1    1    2    0    0 -0.29199080750E+01  0.10280208897E+02 -0.39229554696E+02  0.40659150505E+02  0.00000000000E+00 0. -1.
         11    1    3    3    0    0  0.14262492832E+01 -0.11322934952E+01  0.64633413551E+01  0.67149875138E+01  0.51100000000E-03 0. -1.
        -11    1    3    3    0    0  0.12294882627E+02 -0.12705799882E+02  0.20964954343E+02  0.27425003196E+02  0.51100000000E-03 0.  1.
         12    1    3    3    0    0 -0.10801223836E+02  0.35578844794E+01  0.11801258999E+02  0.16388858785E+02  0.00000000000E+00 0. -1.
</event>
<event>
 7    1  0.5642630E-013  0.5052886E+02  0.7816164E-02  0.1300439E+00
        -11   -1    0    0    0    0  0.00000000000E+00  0.00000000000E+00  0.45593999997E+02  0.45594000000E+02  0.51100000000E-03 0.  1.
         11   -1    0    0    0    0 -0.00000000000E+00 -0.00000000000E+00 -0.45593999997E+02  0.45594000000E+02  0.51100000000E-03 0. -1.
    9900012    2    1    2    0    0  0.91139344704E+01  0.17078514153E+01  0.39587687169E+02  0.50528861625E+02  0.30000005397E+02 0.  0.
         12    1    1    2    0    0 -0.91139344704E+01 -0.17078514153E+01 -0.39587687169E+02  0.40659138375E+02  0.00000000000E+00 0. -1.
         11    1    3    3    0    0  0.12358430692E+02  0.82884873277E+01  0.28055286044E+02  0.31757344137E+02  0.51100000000E-03 0. -1.
        -11    1    3    3    0    0  0.41277814952E+01 -0.74825164332E+00  0.73926153219E+01  0.84999542441E+01  0.51100000000E-03 0.  1.
         12    1    3    3    0    0 -0.73722777164E+01 -0.58323842691E+01  0.41397858025E+01  0.10271563244E+02  0.00000000000E+00 0. -1.
</event>
<event>
 7    1  0.5642630E-013  0.5052885E+02  0.7816164E-02  0.1300439E+00
        -11   -1    0    0    0    0  0.00000000000E+00  0.00000000000E+00  0.45593999997E+02  0.45594000000E+02  0.51100000000E-03 0.  1.
         11   -1    0    0    0    0 -0.00000000000E+00 -0.00000000000E+00 -0.45593999997E+02  0.45594000000E+02  0.51100000000E-03 0. -1.
    9900012    2    1    2    0    0 -0.19214800778E+02 -0.28766443122E+02  0.21364683862E+02  0.50528849304E+02  0.29999967943E+02 0.  0.
         12    1    1    2    0    0  0.19214800778E+02  0.28766443122E+02 -0.21364683862E+02  0.40659150696E+02  0.00000000000E+00 0. -1.
         11    1    3    3    0    0 -0.16716437012E+02 -0.17484775447E+02  0.11657112894E+01  0.24218082539E+02  0.51100000000E-03 0.  1.
        -11    1    3    3    0    0  0.49166854740E+01 -0.30763284447E+01  0.68311991781E+01  0.89611871547E+01  0.51100000000E-03 0. -1.
        -12    1    3    3    0    0 -0.74150492398E+01 -0.82053392306E+01  0.13367773394E+02  0.17349579610E+02  0.00000000000E+00 0.  1.
</event>
<event>
 7    1  0.5642630E-013  0.5052886E+02  0.7816164E-02  0.1300439E+00
        -11   -1    0    0    0    0  0.00000000000E+00  0.00000000000E+00  0.45593999997E+02  0.45594000000E+02  0.51100000000E-03 0.  1.
         11   -1    0    0    0    0 -0.00000000000E+00 -0.00000000000E+00 -0.45593999997E+02  0.45594000000E+02  0.51100000000E-03 0. -1.
    9900012    2    1    2    0    0  0.36135887525E+02 -0.14580731719E+02  0.11608871896E+02  0.50528855748E+02  0.29999987530E+02 0.  0.
         12    1    1    2    0    0 -0.36135887525E+02  0.14580731719E+02 -0.11608871896E+02  0.40659144252E+02  0.00000000000E+00 0. -1.
         11    1    3    3    0    0  0.80103175872E+01  0.47459229358E+01 -0.24118210124E+01  0.96179963203E+01  0.51100000000E-03 0. -1.
        -11    1    3    3    0    0  0.14360571268E+02 -0.15712718243E+00  0.22431443213E+01  0.14535556157E+02  0.51100000000E-03 0.  1.
        -12    1    3    3    0    0  0.13764998670E+02 -0.19169527472E+02  0.11777548587E+02  0.26375303270E+02  0.00000000000E+00 0.  1.
</event>
<event>
 7    1  0.5642630E-013  0.5052879E+02  0.7816164E-02  0.1300439E+00
        -11   -1    0    0    0    0  0.00000000000E+00  0.00000000000E+00  0.45593999997E+02  0.45594000000E+02  0.51100000000E-03 0.  1.
         11   -1    0    0    0    0 -0.00000000000E+00 -0.00000000000E+00 -0.45593999997E+02  0.45594000000E+02  0.51100000000E-03 0. -1.
    9900012    2    1    2    0    0 -0.10552363366E+01 -0.20885678049E+02  0.34868983142E+02  0.50528793703E+02  0.29999798940E+02 0.  0.
         12    1    1    2    0    0  0.10552363366E+01  0.20885678049E+02 -0.34868983142E+02  0.40659206297E+02  0.00000000000E+00 0. -1.
         11    1    3    3    0    0 -0.17903188698E+01  0.59796318806E+01  0.76808756827E+01  0.98973274472E+01  0.51100000000E-03 0. -1.
        -11    1    3    3    0    0  0.22231910829E+01 -0.16326143982E+02  0.71899747833E+01  0.17977243770E+02  0.51100000000E-03 0.  1.
        -12    1    3    3    0    0 -0.14881085496E+01 -0.10539165948E+02  0.19998132676E+02  0.22654222486E+02  0.00000000000E+00 0.  1.
</event>
<event>
 7    1  0.5642630E-013  0.5052886E+02  0.7816164E-02  0.1300439E+00
        -11   -1    0    0    0    0  0.00000000000E+00  0.00000000000E+00  0.45593999997E+02  0.45594000000E+02  0.51100000000E-03 0. -1.
         11   -1    0    0    0    0 -0.00000000000E+00 -0.00000000000E+00 -0.45593999997E+02  0.45594000000E+02  0.51100000000E-03 0.  1.
    9900012    2    1    2    0    0 -0.82552425933E+01  0.23604140303E+02 -0.32060278483E+02  0.50528856795E+02  0.29999990715E+02 0.  0.
         12    1    1    2    0    0  0.82552425933E+01 -0.23604140303E+02  0.32060278483E+02  0.40659143205E+02  0.00000000000E+00 0. -1.
         11    1    3    3    0    0  0.36751846861E+01  0.15679356662E+02 -0.99216003245E+01  0.18915267935E+02  0.51100000000E-03 0.  1.
        -11    1    3    3    0    0 -0.63045856436E+01 -0.47142380857E+01 -0.12426879075E+02  0.14710512047E+02  0.51100000000E-03 0. -1.
         12    1    3    3    0    0 -0.56258416358E+01  0.12639021727E+02 -0.97117990839E+01  0.16903076814E+02  0.00000000000E+00 0. -1.
</event>
<event>
 7    1  0.5642630E-013  0.5052886E+02  0.7816164E-02  0.1300439E+00
        -11   -1    0    0    0    0  0.00000000000E+00  0.00000000000E+00  0.45593999997E+02  0.45594000000E+02  0.51100000000E-03 0. -1.
         11   -1    0    0    0    0 -0.00000000000E+00 -0.00000000000E+00 -0.45593999997E+02  0.45594000000E+02  0.51100000000E-03 0.  1.
    9900012    2    1    2    0    0 -0.91712886003E+01  0.78045956664E+01 -0.38834794529E+02  0.50528861861E+02  0.30000006113E+02 0.  0.
         12    1    1    2    0    0  0.91712886003E+01 -0.78045956664E+01  0.38834794529E+02  0.40659138139E+02  0.00000000000E+00 0. -1.
         11    1    3    3    0    0 -0.13690638508E+01 -0.36075213134E+01  0.28400218318E+01  0.47910614815E+01  0.51100000000E-03 0. -1.
        -11    1    3    3    0    0  0.19384891310E+01 -0.49580735387E+00 -0.97179535534E+00  0.22243991361E+01  0.51100000000E-03 0.  1.
        -12    1    3    3    0    0 -0.97407138805E+01  0.11907924334E+02 -0.40703021005E+02  0.43513401244E+02  0.00000000000E+00 0.  1.
</event>
<event>
 7    1  0.5642630E-013  0.5052886E+02  0.7816164E-02  0.1300439E+00
        -11   -1    0    0    0    0  0.00000000000E+00  0.00000000000E+00  0.45593999997E+02  0.45594000000E+02  0.51100000000E-03 0.  1.
         11   -1    0    0    0    0 -0.00000000000E+00 -0.00000000000E+00 -0.45593999997E+02  0.45594000000E+02  0.51100000000E-03 0. -1.
    9900012    2    1    2    0    0  0.33240168849E+02 -0.21022748482E+02 -0.10310227344E+02  0.50528861215E+02  0.30000004149E+02 0.  0.
         12    1    1    2    0    0 -0.33240168849E+02  0.21022748482E+02  0.10310227344E+02  0.40659138785E+02  0.00000000000E+00 0. -1.
         11    1    3    3    0    0  0.86596693742E+01 -0.28615685466E+01 -0.13259851949E+02  0.16093542872E+02  0.51100000000E-03 0. -1.
        -11    1    3    3    0    0  0.30289742039E+00  0.15947712341E-01  0.40748113579E+01  0.40860848058E+01  0.51100000000E-03 0.  1.
        -12    1    3    3    0    0  0.24277602054E+02 -0.18177127648E+02 -0.11251867526E+01  0.30349233537E+02  0.00000000000E+00 0.  1.
</event>
<event>
 7    1  0.5642630E-013  0.5052888E+02  0.7816164E-02  0.1300439E+00
        -11   -1    0    0    0    0  0.00000000000E+00  0.00000000000E+00  0.45593999997E+02  0.45594000000E+02  0.51100000000E-03 0. -1.
         11   -1    0    0    0    0 -0.00000000000E+00 -0.00000000000E+00 -0.45593999997E+02  0.45594000000E+02  0.51100000000E-03 0.  1.
    9900012    2    1    2    0    0 -0.25670100297E+01 -0.30889198659E+02 -0.26314098768E+02  0.50528881364E+02  0.30000065394E+02 0.  0.
         12    1    1    2    0    0  0.25670100297E+01  0.30889198659E+02  0.26314098768E+02  0.40659118636E+02  0.00000000000E+00 0. -1.
         11    1    3    3    0    0  0.98108147581E+00 -0.96558031367E+01 -0.90704288094E+01  0.13284191135E+02  0.51100000000E-03 0. -1.
        -11    1    3    3    0    0 -0.14211911189E+02 -0.14127021116E+02 -0.12280601522E+02  0.23502432198E+02  0.51100000000E-03 0.  1.
         12    1    3    3    0    0  0.10663819684E+02 -0.71063744071E+01 -0.49630684366E+01  0.13742258030E+02  0.00000000000E+00 0. -1.
</event>
<event>
 7    1  0.5642630E-013  0.5052886E+02  0.7816164E-02  0.1300439E+00
        -11   -1    0    0    0    0  0.00000000000E+00  0.00000000000E+00  0.45593999997E+02  0.45594000000E+02  0.51100000000E-03 0.  1.
         11   -1    0    0    0    0 -0.00000000000E+00 -0.00000000000E+00 -0.45593999997E+02  0.45594000000E+02  0.51100000000E-03 0. -1.
    9900012    2    1    2    0    0  0.83790087206E+00  0.26319898542E+02  0.30979455461E+02  0.50528858373E+02  0.29999995512E+02 0.  0.
         12    1    1    2    0    0 -0.83790087206E+00 -0.26319898542E+02 -0.30979455461E+02  0.40659141627E+02  0.00000000000E+00 0. -1.
         11    1    3    3    0    0 -0.28201011624E+01 -0.22230237606E+01  0.17640922337E+00  0.35952643410E+01  0.51100000000E-03 0. -1.
        -11    1    3    3    0    0 -0.23310057846E+01  0.25690328344E+01  0.16145488998E+02  0.16513943591E+02  0.51100000000E-03 0.  1.
         12    1    3    3    0    0  0.59890078191E+01  0.25973889468E+02  0.14657557240E+02  0.30419650442E+02  0.00000000000E+00 0. -1.
</event>
<event>
 7    1  0.5642630E-013  0.5052886E+02  0.7816164E-02  0.1300439E+00
        -11   -1    0    0    0    0  0.00000000000E+00  0.00000000000E+00  0.45593999997E+02  0.45594000000E+02  0.51100000000E-03 0. -1.
         11   -1    0    0    0    0 -0.00000000000E+00 -0.00000000000E+00 -0.45593999997E+02  0.45594000000E+02  0.51100000000E-03 0.  1.
    9900012    2    1    2    0    0  0.69307558518E+01 -0.18780946862E+02 -0.35389358113E+02  0.50528855772E+02  0.29999987604E+02 0.  0.
         12    1    1    2    0    0 -0.69307558518E+01  0.18780946862E+02  0.35389358113E+02  0.40659144228E+02  0.00000000000E+00 0. -1.
         11    1    3    3    0    0  0.10179480464E+02 -0.16575576837E+02 -0.18234350218E+02  0.26662016017E+02  0.51100000000E-03 0. -1.
        -11    1    3    3    0    0  0.21973780009E+01 -0.64997519052E+01 -0.15175305933E+02  0.16654283393E+02  0.51100000000E-03 0.  1.
        -12    1    3    3    0    0 -0.54461026130E+01  0.42943818804E+01 -0.19797019620E+01  0.72125563612E+01  0.00000000000E+00 0.  1.
</event>
<event>
 7    1  0.5642630E-013  0.5052889E+02  0.7816164E-02  0.1300439E+00
        -11   -1    0    0    0    0  0.00000000000E+00  0.00000000000E+00  0.45593999997E+02  0.45594000000E+02  0.51100000000E-03 0.  1.
         11   -1    0    0    0    0 -0.00000000000E+00 -0.00000000000E+00 -0.45593999997E+02  0.45594000000E+02  0.51100000000E-03 0. -1.
    9900012    2    1    2    0    0 -0.10766301071E+02  0.33094691845E+02  0.21023592305E+02  0.50528889084E+02  0.30000088859E+02 0.  0.
         12    1    1    2    0    0  0.10766301071E+02 -0.33094691845E+02 -0.21023592305E+02  0.40659110916E+02  0.00000000000E+00 0. -1.
         11    1    3    3    0    0  0.70572463761E+01  0.92496937737E+01  0.10043403430E+02  0.15369824789E+02  0.51100000000E-03 0. -1.
        -11    1    3    3    0    0 -0.16529494988E+01  0.32927623021E+01  0.80389488815E+01  0.88430325683E+01  0.51100000000E-03 0.  1.
         12    1    3    3    0    0 -0.16170597948E+02  0.20552235770E+02  0.29412399932E+01  0.26316031727E+02  0.00000000000E+00 0. -1.
</event>
<event>
 7    1  0.5642630E-013  0.5052886E+02  0.7816164E-02  0.1300439E+00
        -11   -1    0    0    0    0  0.00000000000E+00  0.00000000000E+00  0.45593999997E+02  0.45594000000E+02  0.51100000000E-03 0.  1.
         11   -1    0    0    0    0 -0.00000000000E+00 -0.00000000000E+00 -0.45593999997E+02  0.45594000000E+02  0.51100000000E-03 0. -1.
    9900012    2    1    2    0    0 -0.64635002937E+01 -0.13963226496E+02  0.37635315110E+02  0.50528862359E+02  0.30000007628E+02 0.  0.
         12    1    1    2    0    0  0.64635002937E+01  0.13963226496E+02 -0.37635315110E+02  0.40659137641E+02  0.00000000000E+00 0. -1.
         11    1    3    3    0    0  0.11595641998E+01  0.67758268634E+01  0.97264364302E+01  0.11910498928E+02  0.51100000000E-03 0. -1.
        -11    1    3    3    0    0 -0.28873300101E+01 -0.25777964282E+01 -0.11388730669E+01  0.40346921984E+01  0.51100000000E-03 0.  1.
        -12    1    3    3    0    0 -0.47357344834E+01 -0.18161256931E+02  0.29047751747E+02  0.34583671233E+02  0.00000000000E+00 0.  1.
</event>
<event>
 7    1  0.5642630E-013  0.5052888E+02  0.7816164E-02  0.1300439E+00
        -11   -1    0    0    0    0  0.00000000000E+00  0.00000000000E+00  0.45593999997E+02  0.45594000000E+02  0.51100000000E-03 0.  1.
         11   -1    0    0    0    0 -0.00000000000E+00 -0.00000000000E+00 -0.45593999997E+02  0.45594000000E+02  0.51100000000E-03 0. -1.
    9900012    2    1    2    0    0  0.27297339938E+02  0.23380244773E+02  0.19010089745E+02  0.50528878939E+02  0.30000058024E+02 0.  0.
         12    1    1    2    0    0 -0.27297339938E+02 -0.23380244773E+02 -0.19010089745E+02  0.40659121061E+02  0.00000000000E+00 0. -1.
         11    1    3    3    0    0  0.97013777683E+01  0.14571266365E+02  0.53578430449E+01  0.18306966336E+02  0.51100000000E-03 0. -1.
        -11    1    3    3    0    0  0.16730975862E+02  0.14441415361E+02  0.64214135031E+01  0.23015529161E+02  0.51100000000E-03 0.  1.
         12    1    3    3    0    0  0.86498630755E+00 -0.56324369537E+01  0.72308331969E+01  0.92063834415E+01  0.00000000000E+00 0. -1.
</event>
<event>
 7    1  0.5642630E-013  0.5052885E+02  0.7816164E-02  0.1300439E+00
        -11   -1    0    0    0    0  0.00000000000E+00  0.00000000000E+00  0.45593999997E+02  0.45594000000E+02  0.51100000000E-03 0.  1.
         11   -1    0    0    0    0 -0.00000000000E+00 -0.00000000000E+00 -0.45593999997E+02  0.45594000000E+02  0.51100000000E-03 0. -1.
    9900012    2    1    2    0    0 -0.40394174205E+02  0.31272822742E+01 -0.34200858796E+01  0.50528853532E+02  0.29999980795E+02 0.  0.
         12    1    1    2    0    0  0.40394174205E+02 -0.31272822742E+01  0.34200858796E+01  0.40659146468E+02  0.00000000000E+00 0. -1.
         11    1    3    3    0    0 -0.16310559589E+02 -0.13068688462E+01 -0.10871226476E+01  0.16398905335E+02  0.51100000000E-03 0. -1.
        -11    1    3    3    0    0 -0.19433715796E+02 -0.27463206279E+01 -0.10537673711E+02  0.22276762649E+02  0.51100000000E-03 0.  1.
         12    1    3    3    0    0 -0.46498988198E+01  0.71804717483E+01  0.82047104790E+01  0.11853185547E+02  0.00000000000E+00 0. -1.
</event>
<event>
 7    1  0.5642630E-013  0.5052885E+02  0.7816164E-02  0.1300439E+00
        -11   -1    0    0    0    0  0.00000000000E+00  0.00000000000E+00  0.45593999997E+02  0.45594000000E+02  0.51100000000E-03 0.  1.
         11   -1    0    0    0    0 -0.00000000000E+00 -0.00000000000E+00 -0.45593999997E+02  0.45594000000E+02  0.51100000000E-03 0. -1.
    9900012    2    1    2    0    0  0.11627085942E+02  0.33685352136E+02  0.19577390876E+02  0.50528852080E+02  0.29999976382E+02 0.  0.
         12    1    1    2    0    0 -0.11627085942E+02 -0.33685352136E+02 -0.19577390876E+02  0.40659147920E+02  0.00000000000E+00 0. -1.
         11    1    3    3    0    0  0.62797997710E+01  0.58965497301E+01  0.33618426524E+01  0.92470087144E+01  0.51100000000E-03 0. -1.
        -11    1    3    3    0    0  0.70947186068E+01  0.11129989951E+02  0.20138452408E+02  0.24078392265E+02  0.51100000000E-03 0.  1.
         12    1    3    3    0    0 -0.17474324353E+01  0.16658812455E+02 -0.39229041842E+01  0.17203451100E+02  0.00000000000E+00 0. -1.
</event>
<event>
 7    1  0.5642630E-013  0.5052886E+02  0.7816164E-02  0.1300439E+00
        -11   -1    0    0    0    0  0.00000000000E+00  0.00000000000E+00  0.45593999997E+02  0.45594000000E+02  0.51100000000E-03 0. -1.
         11   -1    0    0    0    0 -0.00000000000E+00 -0.00000000000E+00 -0.45593999997E+02  0.45594000000E+02  0.51100000000E-03 0.  1.
    9900012    2    1    2    0    0 -0.40584701144E+02  0.24419772585E+01 -0.29016468258E+00  0.50528863076E+02  0.30000009804E+02 0.  0.
         12    1    1    2    0    0  0.40584701144E+02 -0.24419772585E+01  0.29016468258E+00  0.40659136924E+02  0.00000000000E+00 0. -1.
         11    1    3    3    0    0 -0.88715887565E+00  0.27476487323E+01 -0.35320975360E+00  0.29088454442E+01  0.51100000000E-03 0. -1.
        -11    1    3    3    0    0 -0.35716378317E+02  0.94759995779E+01 -0.12795814556E+01  0.36974201506E+02  0.51100000000E-03 0.  1.
         12    1    3    3    0    0 -0.39811639517E+01 -0.97816710518E+01  0.13426265266E+01  0.10645816125E+02  0.00000000000E+00 0. -1.
</event>
<event>
 7    1  0.5642630E-013  0.5052887E+02  0.7816164E-02  0.1300439E+00
        -11   -1    0    0    0    0  0.00000000000E+00  0.00000000000E+00  0.45593999997E+02  0.45594000000E+02  0.51100000000E-03 0. -1.
         11   -1    0    0    0    0 -0.00000000000E+00 -0.00000000000E+00 -0.45593999997E+02  0.45594000000E+02  0.51100000000E-03 0.  1.
    9900012    2    1    2    0    0 -0.11906379706E+02 -0.38788920587E+02 -0.26120477654E+01  0.50528867797E+02  0.30000024155E+02 0.  0.
         12    1    1    2    0    0  0.11906379706E+02  0.38788920587E+02  0.26120477654E+01  0.40659132203E+02  0.00000000000E+00 0. -1.
         11    1    3    3    0    0 -0.39270370247E+01 -0.12196256457E+01  0.88099234505E+01  0.97223380919E+01  0.51100000000E-03 0. -1.
        -11    1    3    3    0    0 -0.18967628499E+01 -0.53941590310E+01  0.96137681597E+00  0.57981813186E+01  0.51100000000E-03 0.  1.
        -12    1    3    3    0    0 -0.60825798309E+01 -0.32175135910E+02 -0.12383348032E+02  0.35008348386E+02  0.00000000000E+00 0.  1.
</event>
<event>
 7    1  0.5642630E-013  0.5052886E+02  0.7816164E-02  0.1300439E+00
        -11   -1    0    0    0    0  0.00000000000E+00  0.00000000000E+00  0.45593999997E+02  0.45594000000E+02  0.51100000000E-03 0.  1.
         11   -1    0    0    0    0 -0.00000000000E+00 -0.00000000000E+00 -0.45593999997E+02  0.45594000000E+02  0.51100000000E-03 0. -1.
    9900012    2    1    2    0    0 -0.14953358474E+01 -0.14309853092E+02  0.38028380235E+02  0.50528860460E+02  0.30000001854E+02 0.  0.
         12    1    1    2    0    0  0.14953358474E+01  0.14309853092E+02 -0.38028380235E+02  0.40659139540E+02  0.00000000000E+00 0. -1.
         11    1    3    3    0    0  0.34750429617E+01 -0.12535114140E+02  0.94679857982E+01  0.16088746546E+02  0.51100000000E-03 0. -1.
        -11    1    3    3    0    0  0.29276181013E+01 -0.21537399731E+01  0.25815577624E+02  0.26070166704E+02  0.51100000000E-03 0.  1.
        -12    1    3    3    0    0 -0.78979969104E+01  0.37900102080E+00  0.27448168128E+01  0.83699472104E+01  0.00000000000E+00 0.  1.
</event>
<event>
 7    1  0.5642630E-013  0.5052886E+02  0.7816164E-02  0.1300439E+00
        -11   -1    0    0    0    0  0.00000000000E+00  0.00000000000E+00  0.45593999997E+02  0.45594000000E+02  0.51100000000E-03 0. -1.
         11   -1    0    0    0    0 -0.00000000000E+00 -0.00000000000E+00 -0.45593999997E+02  0.45594000000E+02  0.51100000000E-03 0.  1.
    9900012    2    1    2    0    0 -0.38242657577E+02  0.33493920355E+01  0.13395769841E+02  0.50528856684E+02  0.29999990378E+02 0.  0.
         12    1    1    2    0    0  0.38242657577E+02 -0.33493920355E+01 -0.13395769841E+02  0.40659143316E+02  0.00000000000E+00 0. -1.
         11    1    3    3    0    0 -0.21847683558E+01 -0.19618831672E+01 -0.57547073202E+00  0.29922174311E+01  0.51100000000E-03 0. -1.
        -11    1    3    3    0    0 -0.22833730726E+02 -0.58730536017E+01  0.18109890985E+02  0.29729449528E+02  0.51100000000E-03 0.  1.
         12    1    3    3    0    0 -0.13224158495E+02  0.11184328804E+02 -0.41386504118E+01  0.17807189726E+02  0.00000000000E+00 0. -1.
</event>
<event>
 7    1  0.5892644E-013  0.5052886E+02  0.7816164E-02  0.1300439E+00
        -11   -1    0    0    0    0  0.00000000000E+00  0.00000000000E+00  0.45593999997E+02  0.45594000000E+02  0.51100000000E-03 0.  1.
         11   -1    0    0    0    0 -0.00000000000E+00 -0.00000000000E+00 -0.45593999997E+02  0.45594000000E+02  0.51100000000E-03 0. -1.
    9900012    2    1    2    0    0 -0.37730380430E+02 -0.15011507621E+02  0.20587944794E+01  0.50528860767E+02  0.30000002788E+02 0.  0.
         12    1    1    2    0    0  0.37730380430E+02  0.15011507621E+02 -0.20587944794E+01  0.40659139233E+02  0.00000000000E+00 0. -1.
         11    1    3    3    0    0 -0.19334029023E+01  0.24697680406E+01 -0.25751070651E+01  0.40581988141E+01  0.51100000000E-03 0. -1.
        -11    1    3    3    0    0 -0.31853887927E+01 -0.72680301934E+01 -0.67842002529E+01  0.10440131129E+02  0.51100000000E-03 0.  1.
        -12    1    3    3    0    0 -0.32611588735E+02 -0.10213245468E+02  0.11418101797E+02  0.36030530824E+02  0.00000000000E+00 0.  1.
</event>
<event>
 7    1  0.5642630E-013  0.5052885E+02  0.7816164E-02  0.1300439E+00
        -11   -1    0    0    0    0  0.00000000000E+00  0.00000000000E+00  0.45593999997E+02  0.45594000000E+02  0.51100000000E-03 0.  1.
         11   -1    0    0    0    0 -0.00000000000E+00 -0.00000000000E+00 -0.45593999997E+02  0.45594000000E+02  0.51100000000E-03 0. -1.
    9900012    2    1    2    0    0 -0.18541615238E+01  0.15260455096E+02  0.37641027188E+02  0.50528851799E+02  0.29999975527E+02 0.  0.
         12    1    1    2    0    0  0.18541615238E+01 -0.15260455096E+02 -0.37641027188E+02  0.40659148201E+02  0.00000000000E+00 0. -1.
         11    1    3    3    0    0  0.11040244512E+02  0.10788927375E+02  0.13506853237E+02  0.20511534253E+02  0.51100000000E-03 0.  1.
        -11    1    3    3    0    0  0.93960418991E+00  0.25405898587E+01  0.80446393764E+00  0.28257061687E+01  0.51100000000E-03 0. -1.
        -12    1    3    3    0    0 -0.13834010226E+02  0.19309378620E+01  0.23329710014E+02  0.27191611377E+02  0.00000000000E+00 0.  1.
</event>
<event>
 7    1  0.5642630E-013  0.5052886E+02  0.7816164E-02  0.1300439E+00
        -11   -1    0    0    0    0  0.00000000000E+00  0.00000000000E+00  0.45593999997E+02  0.45594000000E+02  0.51100000000E-03 0.  1.
         11   -1    0    0    0    0 -0.00000000000E+00 -0.00000000000E+00 -0.45593999997E+02  0.45594000000E+02  0.51100000000E-03 0. -1.
    9900012    2    1    2    0    0  0.37473832054E+02  0.15741913244E+02  0.10342964344E+01  0.50528859693E+02  0.29999999524E+02 0.  0.
         12    1    1    2    0    0 -0.37473832054E+02 -0.15741913244E+02 -0.10342964344E+01  0.40659140307E+02  0.00000000000E+00 0. -1.
         11    1    3    3    0    0  0.69321543869E+01  0.49079778772E+01 -0.89473948724E+01  0.12336891284E+02  0.51100000000E-03 0. -1.
        -11    1    3    3    0    0  0.60059480296E+01  0.10761272922E+02  0.36303405472E+01  0.12847403605E+02  0.51100000000E-03 0.  1.
        -12    1    3    3    0    0  0.24535729637E+02  0.72662444433E-01  0.63513507596E+01  0.25344564805E+02  0.00000000000E+00 0.  1.
</event>
<event>
 7    1  0.5642630E-013  0.5052885E+02  0.7816164E-02  0.1300439E+00
        -11   -1    0    0    0    0  0.00000000000E+00  0.00000000000E+00  0.45593999997E+02  0.45594000000E+02  0.51100000000E-03 0.  1.
         11   -1    0    0    0    0 -0.00000000000E+00 -0.00000000000E+00 -0.45593999997E+02  0.45594000000E+02  0.51100000000E-03 0. -1.
    9900012    2    1    2    0    0 -0.22888627964E+02  0.33380537519E+02  0.38751310541E+01  0.50528853234E+02  0.29999979889E+02 0.  0.
         12    1    1    2    0    0  0.22888627964E+02 -0.33380537519E+02 -0.38751310541E+01  0.40659146766E+02  0.00000000000E+00 0. -1.
         11    1    3    3    0    0 -0.75412493127E+01  0.59347608250E+01  0.24076499799E+01  0.98938670869E+01  0.51100000000E-03 0. -1.
        -11    1    3    3    0    0 -0.17796814080E+02  0.18203077258E+02  0.10447242797E+02  0.27517694224E+02  0.51100000000E-03 0.  1.
         12    1    3    3    0    0  0.24494354295E+01  0.92426994358E+01 -0.89797617232E+01  0.13117291923E+02  0.00000000000E+00 0. -1.
</event>
<event>
 7    1  0.5642630E-013  0.5052885E+02  0.7816164E-02  0.1300439E+00
        -11   -1    0    0    0    0  0.00000000000E+00  0.00000000000E+00  0.45593999997E+02  0.45594000000E+02  0.51100000000E-03 0. -1.
         11   -1    0    0    0    0 -0.00000000000E+00 -0.00000000000E+00 -0.45593999997E+02  0.45594000000E+02  0.51100000000E-03 0.  1.
    9900012    2    1    2    0    0  0.85343264271E+01  0.47139792025E+01 -0.39472904187E+02  0.50528849831E+02  0.29999969548E+02 0.  0.
         12    1    1    2    0    0 -0.85343264271E+01 -0.47139792025E+01  0.39472904187E+02  0.40659150169E+02  0.00000000000E+00 0. -1.
         11    1    3    3    0    0 -0.59324285006E+01 -0.63704902789E+01 -0.10291077534E+02  0.13478988515E+02  0.51100000000E-03 0. -1.
        -11    1    3    3    0    0 -0.10667158036E+01  0.62207429994E+01 -0.10694600956E+02  0.12418132546E+02  0.51100000000E-03 0.  1.
         12    1    3    3    0    0  0.15533470731E+02  0.48637264819E+01 -0.18487225697E+02  0.24631728771E+02  0.00000000000E+00 0. -1.
</event>
<event>
 7    1  0.5642630E-013  0.5052886E+02  0.7816164E-02  0.1300439E+00
        -11   -1    0    0    0    0  0.00000000000E+00  0.00000000000E+00  0.45593999997E+02  0.45594000000E+02  0.51100000000E-03 0.  1.
         11   -1    0    0    0    0 -0.00000000000E+00 -0.00000000000E+00 -0.45593999997E+02  0.45594000000E+02  0.51100000000E-03 0. -1.
    9900012    2    1    2    0    0  0.36875384016E+02 -0.16721773068E+02  0.37086387694E+01  0.50528860285E+02  0.30000001322E+02 0.  0.
         12    1    1    2    0    0 -0.36875384016E+02  0.16721773068E+02 -0.37086387694E+01  0.40659139715E+02  0.00000000000E+00 0. -1.
         11    1    3    3    0    0  0.10839767459E+02 -0.32215629236E+01  0.17207801354E+01  0.11438536216E+02  0.51100000000E-03 0. -1.
        -11    1    3    3    0    0  0.18414518369E+02 -0.12955562125E+02  0.12763004483E+02  0.25881177725E+02  0.51100000000E-03 0.  1.
         12    1    3    3    0    0  0.76210981877E+01 -0.54464801957E+00 -0.10775145849E+02  0.13209146344E+02  0.00000000000E+00 0. -1.
</event>
<event>
 7    1  0.5642630E-013  0.5052885E+02  0.7816164E-02  0.1300439E+00
        -11   -1    0    0    0    0  0.00000000000E+00  0.00000000000E+00  0.45593999997E+02  0.45594000000E+02  0.51100000000E-03 0.  1.
         11   -1    0    0    0    0 -0.00000000000E+00 -0.00000000000E+00 -0.45593999997E+02  0.45594000000E+02  0.51100000000E-03 0. -1.
    9900012    2    1    2    0    0 -0.18366028562E+02 -0.29336573614E+02  0.21335903712E+02  0.50528851660E+02  0.29999975106E+02 0.  0.
         12    1    1    2    0    0  0.18366028562E+02  0.29336573614E+02 -0.21335903712E+02  0.40659148340E+02  0.00000000000E+00 0. -1.
         11    1    3    3    0    0 -0.13527293199E+02 -0.66722325016E+01  0.26700929632E+01  0.15317824407E+02  0.51100000000E-03 0. -1.
        -11    1    3    3    0    0 -0.99059100601E+01 -0.43800093812E+01  0.77899717834E+01  0.13341484061E+02  0.51100000000E-03 0.  1.
        -12    1    3    3    0    0  0.50671746977E+01 -0.18284331731E+02  0.10875838965E+02  0.21869543193E+02  0.00000000000E+00 0.  1.
</event>
<event>
 7    1  0.5642630E-013  0.5052883E+02  0.7816164E-02  0.1300439E+00
        -11   -1    0    0    0    0  0.00000000000E+00  0.00000000000E+00  0.45593999997E+02  0.45594000000E+02  0.51100000000E-03 0.  1.
         11   -1    0    0    0    0 -0.00000000000E+00 -0.00000000000E+00 -0.45593999997E+02  0.45594000000E+02  0.51100000000E-03 0. -1.
    9900012    2    1    2    0    0 -0.72189128684E+01 -0.51329070775E+01  0.39682594677E+02  0.50528834264E+02  0.29999922227E+02 0.  0.
         12    1    1    2    0    0  0.72189128684E+01  0.51329070775E+01 -0.39682594677E+02  0.40659165736E+02  0.00000000000E+00 0. -1.
         11    1    3    3    0    0 -0.47584585424E+01 -0.99318398257E+01  0.46687505659E+01  0.11961672213E+02  0.51100000000E-03 0. -1.
        -11    1    3    3    0    0 -0.42634566316E+01 -0.47670474817E+01  0.12578382455E+02  0.14110900382E+02  0.51100000000E-03 0.  1.
         12    1    3    3    0    0  0.18030023056E+01  0.95659802299E+01  0.22435461656E+02  0.24456261668E+02  0.00000000000E+00 0. -1.
</event>
<event>
 7    1  0.5642630E-013  0.5052886E+02  0.7816164E-02  0.1300439E+00
        -11   -1    0    0    0    0  0.00000000000E+00  0.00000000000E+00  0.45593999997E+02  0.45594000000E+02  0.51100000000E-03 0.  1.
         11   -1    0    0    0    0 -0.00000000000E+00 -0.00000000000E+00 -0.45593999997E+02  0.45594000000E+02  0.51100000000E-03 0. -1.
    9900012    2    1    2    0    0  0.14064381997E+02 -0.12376474786E+02  0.36085756771E+02  0.50528858213E+02  0.29999995025E+02 0.  0.
         12    1    1    2    0    0 -0.14064381997E+02  0.12376474786E+02 -0.36085756771E+02  0.40659141787E+02  0.00000000000E+00 0. -1.
         11    1    3    3    0    0 -0.20011279555E+01 -0.13818262930E+00  0.16806588347E+01  0.26169107575E+01  0.51100000000E-03 0. -1.
        -11    1    3    3    0    0  0.39851658604E+01 -0.49269051629E+01 -0.36560123277E+01  0.73158982920E+01  0.51100000000E-03 0.  1.
        -12    1    3    3    0    0  0.12080344092E+02 -0.73113869938E+01  0.38061110264E+02  0.40596049164E+02  0.00000000000E+00 0.  1.
</event>
<event>
 7    1  0.5642630E-013  0.5052886E+02  0.7816164E-02  0.1300439E+00
        -11   -1    0    0    0    0  0.00000000000E+00  0.00000000000E+00  0.45593999997E+02  0.45594000000E+02  0.51100000000E-03 0. -1.
         11   -1    0    0    0    0 -0.00000000000E+00 -0.00000000000E+00 -0.45593999997E+02  0.45594000000E+02  0.51100000000E-03 0.  1.
    9900012    2    1    2    0    0  0.10019297688E+02  0.36573879924E+02 -0.14667332036E+02  0.50528860217E+02  0.30000001116E+02 0.  0.
         12    1    1    2    0    0 -0.10019297688E+02 -0.36573879924E+02  0.14667332036E+02  0.40659139783E+02  0.00000000000E+00 0. -1.
         11    1    3    3    0    0 -0.53243547707E+01  0.13181792234E+02 -0.13610222763E+02  0.19681122025E+02  0.51100000000E-03 0. -1.
        -11    1    3    3    0    0  0.61642661159E-01  0.59244913680E+01  0.39290308953E+01  0.71091969887E+01  0.51100000000E-03 0.  1.
        -12    1    3    3    0    0  0.15282009798E+02  0.17467596321E+02 -0.49861401678E+01  0.23738541204E+02  0.00000000000E+00 0.  1.
</event>
<event>
 7    1  0.5642630E-013  0.5052886E+02  0.7816164E-02  0.1300439E+00
        -11   -1    0    0    0    0  0.00000000000E+00  0.00000000000E+00  0.45593999997E+02  0.45594000000E+02  0.51100000000E-03 0.  1.
         11   -1    0    0    0    0 -0.00000000000E+00 -0.00000000000E+00 -0.45593999997E+02  0.45594000000E+02  0.51100000000E-03 0. -1.
    9900012    2    1    2    0    0 -0.23638642104E+02  0.96874127896E+01  0.31631223734E+02  0.50528859797E+02  0.29999999840E+02 0.  0.
         12    1    1    2    0    0  0.23638642104E+02 -0.96874127896E+01 -0.31631223734E+02  0.40659140203E+02  0.00000000000E+00 0. -1.
         11    1    3    3    0    0 -0.67591323344E+01 -0.57058588479E+00 -0.28469084680E+01  0.73563799693E+01  0.51100000000E-03 0. -1.
        -11    1    3    3    0    0  0.85378118765E+00  0.80086074469E+01  0.94518190737E+01  0.12417875004E+02  0.51100000000E-03 0.  1.
        -12    1    3    3    0    0 -0.17733290957E+02  0.22493912275E+01  0.25026313129E+02  0.30754604824E+02  0.00000000000E+00 0.  1.
</event>
<event>
 7    1  0.5642630E-013  0.5052887E+02  0.7816164E-02  0.1300439E+00
        -11   -1    0    0    0    0  0.00000000000E+00  0.00000000000E+00  0.45593999997E+02  0.45594000000E+02  0.51100000000E-03 0.  1.
         11   -1    0    0    0    0 -0.00000000000E+00 -0.00000000000E+00 -0.45593999997E+02  0.45594000000E+02  0.51100000000E-03 0. -1.
    9900012    2    1    2    0    0  0.12074799062E+02 -0.38823699413E+02 -0.29092154265E+00  0.50528867645E+02  0.30000023694E+02 0.  0.
         12    1    1    2    0    0 -0.12074799062E+02  0.38823699413E+02  0.29092154265E+00  0.40659132355E+02  0.00000000000E+00 0. -1.
         11    1    3    3    0    0 -0.37020517530E+01 -0.17153084602E+02  0.10367120343E+00  0.17548340279E+02  0.51100000000E-03 0. -1.
        -11    1    3    3    0    0 -0.12071420958E+01 -0.13947442830E+02 -0.24420892572E+01  0.14210987079E+02  0.51100000000E-03 0.  1.
        -12    1    3    3    0    0  0.16983992911E+02 -0.77231719805E+01  0.20474965111E+01  0.18769540288E+02  0.00000000000E+00 0.  1.
</event>
<event>
 7    1  0.5642630E-013  0.5052886E+02  0.7816164E-02  0.1300439E+00
        -11   -1    0    0    0    0  0.00000000000E+00  0.00000000000E+00  0.45593999997E+02  0.45594000000E+02  0.51100000000E-03 0.  1.
         11   -1    0    0    0    0 -0.00000000000E+00 -0.00000000000E+00 -0.45593999997E+02  0.45594000000E+02  0.51100000000E-03 0. -1.
    9900012    2    1    2    0    0 -0.33668231387E+01  0.21235919743E+02  0.34508920938E+02  0.50528863146E+02  0.30000010019E+02 0.  0.
         12    1    1    2    0    0  0.33668231387E+01 -0.21235919743E+02 -0.34508920938E+02  0.40659136854E+02  0.00000000000E+00 0. -1.
         11    1    3    3    0    0 -0.28611313850E+01 -0.17197371383E+01 -0.14242478178E+01  0.36293319957E+01  0.51100000000E-03 0. -1.
        -11    1    3    3    0    0  0.76193104108E+00 -0.14409220253E+01 -0.14900477083E+01  0.22084016004E+01  0.51100000000E-03 0.  1.
        -12    1    3    3    0    0 -0.12676227948E+01  0.24396578907E+02  0.37423216465E+02  0.44691129550E+02  0.00000000000E+00 0.  1.
</event>
<event>
 7    1  0.5642630E-013  0.5052886E+02  0.7816164E-02  0.1300439E+00
        -11   -1    0    0    0    0  0.00000000000E+00  0.00000000000E+00  0.45593999997E+02  0.45594000000E+02  0.51100000000E-03 0.  1.
         11   -1    0    0    0    0 -0.00000000000E+00 -0.00000000000E+00 -0.45593999997E+02  0.45594000000E+02  0.51100000000E-03 0. -1.
    9900012    2    1    2    0    0  0.30601046630E+02  0.26714960182E+02 -0.17471544476E+01  0.50528859563E+02  0.29999999129E+02 0.  0.
         12    1    1    2    0    0 -0.30601046630E+02 -0.26714960182E+02  0.17471544476E+01  0.40659140437E+02  0.00000000000E+00 0. -1.
         11    1    3    3    0    0 -0.35683704978E+01  0.20346963273E+01 -0.28728363270E+01  0.50126286494E+01  0.51100000000E-03 0. -1.
        -11    1    3    3    0    0 -0.87566215210E+00  0.67855196519E+00  0.27955828827E+01  0.30070751387E+01  0.51100000000E-03 0.  1.
        -12    1    3    3    0    0  0.35045079280E+02  0.24001711890E+02 -0.16699010034E+01  0.42509155775E+02  0.00000000000E+00 0.  1.
</event>
<event>
 7    1  0.5642630E-013  0.5052881E+02  0.7816164E-02  0.1300439E+00
        -11   -1    0    0    0    0  0.00000000000E+00  0.00000000000E+00  0.45593999997E+02  0.45594000000E+02  0.51100000000E-03 0. -1.
         11   -1    0    0    0    0 -0.00000000000E+00 -0.00000000000E+00 -0.45593999997E+02  0.45594000000E+02  0.51100000000E-03 0.  1.
    9900012    2    1    2    0    0 -0.17608630238E+02  0.26064484485E+02  0.25763311026E+02  0.50528814010E+02  0.29999860666E+02 0.  0.
         12    1    1    2    0    0  0.17608630238E+02 -0.26064484485E+02 -0.25763311026E+02  0.40659185990E+02  0.00000000000E+00 0. -1.
         11    1    3    3    0    0 -0.86453455464E+01  0.10949349902E+02  0.22168152620E+02  0.26192694663E+02  0.51100000000E-03 0. -1.
        -11    1    3    3    0    0 -0.11136858907E+02  0.13180994743E+02  0.80293696121E+01  0.19032578001E+02  0.51100000000E-03 0.  1.
         12    1    3    3    0    0  0.21735742158E+01  0.19341398405E+01 -0.44342112059E+01  0.53035413464E+01  0.00000000000E+00 0. -1.
</event>
<event>
 7    1  0.5642630E-013  0.5052890E+02  0.7816164E-02  0.1300439E+00
        -11   -1    0    0    0    0  0.00000000000E+00  0.00000000000E+00  0.45593999997E+02  0.45594000000E+02  0.51100000000E-03 0.  1.
         11   -1    0    0    0    0 -0.00000000000E+00 -0.00000000000E+00 -0.45593999997E+02  0.45594000000E+02  0.51100000000E-03 0. -1.
    9900012    2    1    2    0    0 -0.27772682655E+02  0.23992205137E+02  0.17498978939E+02  0.50528904178E+02  0.30000134739E+02 0.  0.
         12    1    1    2    0    0  0.27772682655E+02 -0.23992205137E+02 -0.17498978939E+02  0.40659095822E+02  0.00000000000E+00 0. -1.
         11    1    3    3    0    0 -0.25034894234E+02  0.80727686157E+01  0.10980141388E+02  0.28504017745E+02  0.51100000000E-03 0. -1.
        -11    1    3    3    0    0 -0.43305133459E+01  0.82617871599E+01  0.98120374343E+01  0.13538336374E+02  0.51100000000E-03 0.  1.
        -12    1    3    3    0    0  0.15927249255E+01  0.76576493611E+01 -0.32931998833E+01  0.84865500586E+01  0.00000000000E+00 0.  1.
</event>
<event>
 7    1  0.5642630E-013  0.5052886E+02  0.7816164E-02  0.1300439E+00
        -11   -1    0    0    0    0  0.00000000000E+00  0.00000000000E+00  0.45593999997E+02  0.45594000000E+02  0.51100000000E-03 0.  1.
         11   -1    0    0    0    0 -0.00000000000E+00 -0.00000000000E+00 -0.45593999997E+02  0.45594000000E+02  0.51100000000E-03 0. -1.
    9900012    2    1    2    0    0 -0.39818931502E+01  0.40450255332E+02  0.10425315458E+01  0.50528862017E+02  0.30000006586E+02 0.  0.
         12    1    1    2    0    0  0.39818931502E+01 -0.40450255332E+02 -0.10425315458E+01  0.40659137983E+02  0.00000000000E+00 0. -1.
         11    1    3    3    0    0  0.50666295283E+01  0.11502228105E+02  0.38468275823E+01  0.13144202861E+02  0.51100000000E-03 0. -1.
        -11    1    3    3    0    0 -0.63046095250E+00  0.25146984239E+02 -0.84775859794E+01  0.26545013875E+02  0.51100000000E-03 0.  1.
        -12    1    3    3    0    0 -0.84180617260E+01  0.38010429883E+01  0.56732899430E+01  0.10839645280E+02  0.00000000000E+00 0.  1.
</event>
<event>
 7    1  0.5642630E-013  0.5052888E+02  0.7816164E-02  0.1300439E+00
        -11   -1    0    0    0    0  0.00000000000E+00  0.00000000000E+00  0.45593999997E+02  0.45594000000E+02  0.51100000000E-03 0. -1.
         11   -1    0    0    0    0 -0.00000000000E+00 -0.00000000000E+00 -0.45593999997E+02  0.45594000000E+02  0.51100000000E-03 0.  1.
    9900012    2    1    2    0    0 -0.90543177527E+01  0.19620110335E+02 -0.34441757332E+02  0.50528879896E+02  0.30000060932E+02 0.  0.
         12    1    1    2    0    0  0.90543177527E+01 -0.19620110335E+02  0.34441757332E+02  0.40659120104E+02  0.00000000000E+00 0. -1.
         11    1    3    3    0    0 -0.23497089228E+01  0.13885741380E+01 -0.76710658491E+01  0.81421447839E+01  0.51100000000E-03 0. -1.
        -11    1    3    3    0    0  0.58499021227E+01  0.17510741097E+02 -0.22502671088E+02  0.29107002851E+02  0.51100000000E-03 0.  1.
         12    1    3    3    0    0 -0.12554510953E+02  0.72079509970E+00 -0.42680203949E+01  0.13279732261E+02  0.00000000000E+00 0. -1.
</event>
<event>
 7    1  0.5642630E-013  0.5052886E+02  0.7816164E-02  0.1300439E+00
        -11   -1    0    0    0    0  0.00000000000E+00  0.00000000000E+00  0.45593999997E+02  0.45594000000E+02  0.51100000000E-03 0. -1.
         11   -1    0    0    0    0 -0.00000000000E+00 -0.00000000000E+00 -0.45593999997E+02  0.45594000000E+02  0.51100000000E-03 0.  1.
    9900012    2    1    2    0    0 -0.86479848298E+01 -0.12133053649E+02 -0.37830768956E+02  0.50528859425E+02  0.29999998709E+02 0.  0.
         12    1    1    2    0    0  0.86479848298E+01  0.12133053649E+02  0.37830768956E+02  0.40659140575E+02  0.00000000000E+00 0. -1.
         11    1    3    3    0    0 -0.12435958071E+02  0.22850763640E+01 -0.61980912816E+01  0.14081582402E+02  0.51100000000E-03 0. -1.
        -11    1    3    3    0    0 -0.30019427693E+01 -0.14977092366E+01 -0.79383324523E+01  0.86181155557E+01  0.51100000000E-03 0.  1.
        -12    1    3    3    0    0  0.67899160110E+01 -0.12920420776E+02 -0.23694345223E+02  0.27829161468E+02  0.00000000000E+00 0.  1.
</event>
<event>
 7    1  0.5642630E-013  0.5052886E+02  0.7816164E-02  0.1300439E+00
        -11   -1    0    0    0    0  0.00000000000E+00  0.00000000000E+00  0.45593999997E+02  0.45594000000E+02  0.51100000000E-03 0.  1.
         11   -1    0    0    0    0 -0.00000000000E+00 -0.00000000000E+00 -0.45593999997E+02  0.45594000000E+02  0.51100000000E-03 0. -1.
    9900012    2    1    2    0    0  0.92772395350E-01  0.60550279930E+01  0.40205640732E+02  0.50528861822E+02  0.30000005994E+02 0.  0.
         12    1    1    2    0    0 -0.92772395350E-01 -0.60550279930E+01 -0.40205640732E+02  0.40659138178E+02  0.00000000000E+00 0. -1.
         11    1    3    3    0    0 -0.16785597871E+00  0.15189793475E+01 -0.12251329151E+01  0.19586793532E+01  0.51100000000E-03 0. -1.
        -11    1    3    3    0    0  0.62991500106E+01  0.90269358470E+01  0.39207284148E+02  0.40723162846E+02  0.51100000000E-03 0.  1.
         12    1    3    3    0    0 -0.60385216366E+01 -0.44908872015E+01  0.22234894994E+01  0.78470196231E+01  0.00000000000E+00 0. -1.
</event>
<event>
 7    1  0.5642630E-013  0.5052887E+02  0.7816164E-02  0.1300439E+00
        -11   -1    0    0    0    0  0.00000000000E+00  0.00000000000E+00  0.45593999997E+02  0.45594000000E+02  0.51100000000E-03 0.  1.
         11   -1    0    0    0    0 -0.00000000000E+00 -0.00000000000E+00 -0.45593999997E+02  0.45594000000E+02  0.51100000000E-03 0. -1.
    9900012    2    1    2    0    0  0.89042415225E+01 -0.21148553289E+02  0.33565135962E+02  0.50528866027E+02  0.30000018775E+02 0.  0.
         12    1    1    2    0    0 -0.89042415225E+01  0.21148553289E+02 -0.33565135962E+02  0.40659133973E+02  0.00000000000E+00 0. -1.
         11    1    3    3    0    0  0.23857834353E+01 -0.49512865530E+00 -0.50716800398E+01  0.56266378658E+01  0.51100000000E-03 0. -1.
        -11    1    3    3    0    0 -0.30644546623E-01  0.17621830098E+00 -0.24833476178E+00  0.30604312256E+00  0.51100000000E-03 0.  1.
        -12    1    3    3    0    0  0.65491026338E+01 -0.20829642935E+02  0.38885150763E+02  0.44596185038E+02  0.00000000000E+00 0.  1.
</event>
<event>
 7    1  0.5642630E-013  0.5052882E+02  0.7816164E-02  0.1300439E+00
        -11   -1    0    0    0    0  0.00000000000E+00  0.00000000000E+00  0.45593999997E+02  0.45594000000E+02  0.51100000000E-03 0.  1.
         11   -1    0    0    0    0 -0.00000000000E+00 -0.00000000000E+00 -0.45593999997E+02  0.45594000000E+02  0.51100000000E-03 0. -1.
    9900012    2    1    2    0    0  0.24883282911E+02 -0.53583079588E+01  0.31706140246E+02  0.50528824382E+02  0.29999892193E+02 0.  0.
         12    1    1    2    0    0 -0.24883282911E+02  0.53583079588E+01 -0.31706140246E+02  0.40659175618E+02  0.00000000000E+00 0. -1.
         11    1    3    3    0    0  0.16721772855E+01 -0.52857480468E+01 -0.22617704460E+01  0.59875633692E+01  0.51100000000E-03 0. -1.
        -11    1    3    3    0    0  0.18939288555E+02 -0.51315444064E+01  0.15762483769E+02  0.25169133751E+02  0.51100000000E-03 0.  1.
         12    1    3    3    0    0  0.42718170702E+01  0.50589844944E+01  0.18205426923E+02  0.19372127262E+02  0.00000000000E+00 0. -1.
</event>
<event>
 7    1  0.5642630E-013  0.5052887E+02  0.7816164E-02  0.1300439E+00
        -11   -1    0    0    0    0  0.00000000000E+00  0.00000000000E+00  0.45593999997E+02  0.45594000000E+02  0.51100000000E-03 0.  1.
         11   -1    0    0    0    0 -0.00000000000E+00 -0.00000000000E+00 -0.45593999997E+02  0.45594000000E+02  0.51100000000E-03 0. -1.
    9900012    2    1    2    0    0  0.27280287047E+02 -0.26503677434E+02  0.14370321896E+02  0.50528866582E+02  0.30000020463E+02 0.  0.
         12    1    1    2    0    0 -0.27280287047E+02  0.26503677434E+02 -0.14370321896E+02  0.40659133418E+02  0.00000000000E+00 0. -1.
         11    1    3    3    0    0  0.91095465082E+01  0.36279366830E+01  0.48834214128E+01  0.10954157527E+02  0.51100000000E-03 0. -1.
        -11    1    3    3    0    0 -0.11814959852E+00 -0.76373205435E+01 -0.27345503288E+01  0.81129766531E+01  0.51100000000E-03 0.  1.
        -12    1    3    3    0    0  0.18288890137E+02 -0.22494293573E+02  0.12221450812E+02  0.31461732403E+02  0.00000000000E+00 0.  1.
</event>
<event>
 7    1  0.5642630E-013  0.5052886E+02  0.7816164E-02  0.1300439E+00
        -11   -1    0    0    0    0  0.00000000000E+00  0.00000000000E+00  0.45593999997E+02  0.45594000000E+02  0.51100000000E-03 0. -1.
         11   -1    0    0    0    0 -0.00000000000E+00 -0.00000000000E+00 -0.45593999997E+02  0.45594000000E+02  0.51100000000E-03 0.  1.
    9900012    2    1    2    0    0  0.40607117608E+02 -0.11258019029E+01 -0.17205516865E+01  0.50528859226E+02  0.29999998104E+02 0.  0.
         12    1    1    2    0    0 -0.40607117608E+02  0.11258019029E+01  0.17205516865E+01  0.40659140774E+02  0.00000000000E+00 0. -1.
         11    1    3    3    0    0 -0.11667413115E+01  0.44541777150E+01 -0.15759068261E+01  0.48666689830E+01  0.51100000000E-03 0. -1.
        -11    1    3    3    0    0  0.32522181955E+02  0.26440558322E+01 -0.35546805527E+01  0.32822539580E+02  0.51100000000E-03 0.  1.
         12    1    3    3    0    0  0.92516769644E+01 -0.82240354501E+01  0.34100356923E+01  0.12839650663E+02  0.00000000000E+00 0. -1.
</event>
<event>
 7    1  0.5642630E-013  0.5052886E+02  0.7816164E-02  0.1300439E+00
        -11   -1    0    0    0    0  0.00000000000E+00  0.00000000000E+00  0.45593999997E+02  0.45594000000E+02  0.51100000000E-03 0. -1.
         11   -1    0    0    0    0 -0.00000000000E+00 -0.00000000000E+00 -0.45593999997E+02  0.45594000000E+02  0.51100000000E-03 0.  1.
    9900012    2    1    2    0    0 -0.27364270431E+02 -0.82819602668E+01  0.28909709556E+02  0.50528862420E+02  0.30000007813E+02 0.  0.
         12    1    1    2    0    0  0.27364270431E+02  0.82819602668E+01 -0.28909709556E+02  0.40659137580E+02  0.00000000000E+00 0. -1.
         11    1    3    3    0    0 -0.79853608225E+00 -0.58251049826E+01  0.11686761344E+02  0.13082427103E+02  0.51100000000E-03 0. -1.
        -11    1    3    3    0    0  0.30222539704E+01 -0.16436442387E+01  0.57907417062E+00  0.34886835055E+01  0.51100000000E-03 0.  1.
         12    1    3    3    0    0 -0.29587988319E+02 -0.81321104549E+00  0.16643874041E+02  0.33957751812E+02  0.00000000000E+00 0. -1.
</event>
<event>
 7    1  0.5642630E-013  0.5052887E+02  0.7816164E-02  0.1300439E+00
        -11   -1    0    0    0    0  0.00000000000E+00  0.00000000000E+00  0.45593999997E+02  0.45594000000E+02  0.51100000000E-03 0.  1.
         11   -1    0    0    0    0 -0.00000000000E+00 -0.00000000000E+00 -0.45593999997E+02  0.45594000000E+02  0.51100000000E-03 0. -1.
    9900012    2    1    2    0    0 -0.22750488715E+01 -0.32391620056E+02  0.24469816767E+02  0.50528870277E+02  0.30000031694E+02 0.  0.
         12    1    1    2    0    0  0.22750488715E+01  0.32391620056E+02 -0.24469816767E+02  0.40659129723E+02  0.00000000000E+00 0. -1.
         11    1    3    3    0    0 -0.65861363331E+00  0.33518539600E+01  0.20941600779E+01  0.40067697189E+01  0.51100000000E-03 0. -1.
        -11    1    3    3    0    0 -0.53762591538E+01 -0.41051253192E+01 -0.12222413525E+01  0.68738701297E+01  0.51100000000E-03 0.  1.
        -12    1    3    3    0    0  0.37598239156E+01 -0.31638348697E+02  0.23597898041E+02  0.39648230429E+02  0.00000000000E+00 0.  1.
</event>
<event>
 7    1  0.5642630E-013  0.5052886E+02  0.7816164E-02  0.1300439E+00
        -11   -1    0    0    0    0  0.00000000000E+00  0.00000000000E+00  0.45593999997E+02  0.45594000000E+02  0.51100000000E-03 0.  1.
         11   -1    0    0    0    0 -0.00000000000E+00 -0.00000000000E+00 -0.45593999997E+02  0.45594000000E+02  0.51100000000E-03 0. -1.
    9900012    2    1    2    0    0  0.16169441642E+02 -0.27988962224E+02  0.24664403023E+02  0.50528860487E+02  0.30000001938E+02 0.  0.
         12    1    1    2    0    0 -0.16169441642E+02  0.27988962224E+02 -0.24664403023E+02  0.40659139513E+02  0.00000000000E+00 0. -1.
         11    1    3    3    0    0  0.20660756116E+00  0.46598027592E+01  0.83824009467E+00  0.47391027797E+01  0.51100000000E-03 0. -1.
        -11    1    3    3    0    0  0.10650137470E+01 -0.24712772745E+01  0.83021260200E+01  0.87273571235E+01  0.51100000000E-03 0.  1.
        -12    1    3    3    0    0  0.14897820334E+02 -0.30177487709E+02  0.15524036909E+02  0.37062400584E+02  0.00000000000E+00 0.  1.
</event>
<event>
 7    1  0.5642630E-013  0.5052886E+02  0.7816164E-02  0.1300439E+00
        -11   -1    0    0    0    0  0.00000000000E+00  0.00000000000E+00  0.45593999997E+02  0.45594000000E+02  0.51100000000E-03 0.  1.
         11   -1    0    0    0    0 -0.00000000000E+00 -0.00000000000E+00 -0.45593999997E+02  0.45594000000E+02  0.51100000000E-03 0. -1.
    9900012    2    1    2    0    0  0.56173555845E+01 -0.22692335638E+01  0.40205244206E+02  0.50528858760E+02  0.29999996685E+02 0.  0.
         12    1    1    2    0    0 -0.56173555845E+01  0.22692335638E+01 -0.40205244206E+02  0.40659141240E+02  0.00000000000E+00 0. -1.
         11    1    3    3    0    0  0.59726393323E+01  0.38624214001E+01  0.97942837760E+01  0.12104491506E+02  0.51100000000E-03 0. -1.
        -11    1    3    3    0    0 -0.46791409435E+00  0.15983889957E+00 -0.37025195530E+01  0.37353906590E+01  0.51100000000E-03 0.  1.
        -12    1    3    3    0    0  0.11263034657E+00 -0.62914938635E+01  0.34113479983E+02  0.34688976595E+02  0.00000000000E+00 0.  1.
</event>
<event>
 7    1  0.5642630E-013  0.5052886E+02  0.7816164E-02  0.1300439E+00
        -11   -1    0    0    0    0  0.00000000000E+00  0.00000000000E+00  0.45593999997E+02  0.45594000000E+02  0.51100000000E-03 0. -1.
         11   -1    0    0    0    0 -0.00000000000E+00 -0.00000000000E+00 -0.45593999997E+02  0.45594000000E+02  0.51100000000E-03 0.  1.
    9900012    2    1    2    0    0  0.16131516995E+02  0.34854054442E+02  0.13346711946E+02  0.50528859929E+02  0.30000000239E+02 0.  0.
         12    1    1    2    0    0 -0.16131516995E+02 -0.34854054442E+02 -0.13346711946E+02  0.40659140071E+02  0.00000000000E+00 0. -1.
         11    1    3    3    0    0  0.17279718665E+01  0.21753131018E+02  0.12565905560E+02  0.25181075804E+02  0.51100000000E-03 0. -1.
        -11    1    3    3    0    0  0.28454508326E+01  0.12807522732E+02 -0.24421391974E+01  0.13345159163E+02  0.51100000000E-03 0.  1.
         12    1    3    3    0    0  0.11558094296E+02  0.29340069155E+00  0.32229455827E+01  0.12002624961E+02  0.00000000000E+00 0. -1.
</event>
<event>
 7    1  0.5642630E-013  0.5052886E+02  0.7816164E-02  0.1300439E+00
        -11   -1    0    0    0    0  0.00000000000E+00  0.00000000000E+00  0.45593999997E+02  0.45594000000E+02  0.51100000000E-03 0.  1.
         11   -1    0    0    0    0 -0.00000000000E+00 -0.00000000000E+00 -0.45593999997E+02  0.45594000000E+02  0.51100000000E-03 0. -1.
    9900012    2    1    2    0    0 -0.65360754751E+01  0.19348578344E+02  0.35157893945E+02  0.50528864825E+02  0.30000015122E+02 0.  0.
         12    1    1    2    0    0  0.65360754751E+01 -0.19348578344E+02 -0.35157893945E+02  0.40659135175E+02  0.00000000000E+00 0. -1.
         11    1    3    3    0    0  0.68537972305E+01 -0.20357653675E+01  0.10212961977E+02  0.12466894951E+02  0.51100000000E-03 0. -1.
        -11    1    3    3    0    0 -0.48893001526E+01  0.16928009043E+02  0.98842446009E+01  0.20202995761E+02  0.51100000000E-03 0.  1.
         12    1    3    3    0    0 -0.85005725530E+01  0.44563346686E+01  0.15060687367E+02  0.17858974113E+02  0.00000000000E+00 0. -1.
</event>
<event>
 7    1  0.5642630E-013  0.5052883E+02  0.7816164E-02  0.1300439E+00
        -11   -1    0    0    0    0  0.00000000000E+00  0.00000000000E+00  0.45593999997E+02  0.45594000000E+02  0.51100000000E-03 0.  1.
         11   -1    0    0    0    0 -0.00000000000E+00 -0.00000000000E+00 -0.45593999997E+02  0.45594000000E+02  0.51100000000E-03 0. -1.
    9900012    2    1    2    0    0  0.40205213816E+02 -0.58947939516E+01 -0.13999753401E+01  0.50528834433E+02  0.29999922741E+02 0.  0.
         12    1    1    2    0    0 -0.40205213816E+02  0.58947939516E+01  0.13999753401E+01  0.40659165567E+02  0.00000000000E+00 0. -1.
         11    1    3    3    0    0  0.48494523070E+00 -0.37991690315E+01  0.10491891157E+01  0.39711025255E+01  0.51100000000E-03 0. -1.
        -11    1    3    3    0    0  0.15353943986E+02  0.99897591002E+01 -0.56547675661E+01  0.19170688023E+02  0.51100000000E-03 0.  1.
         12    1    3    3    0    0  0.24366324599E+02 -0.12085384020E+02  0.32056031102E+01  0.27387043884E+02  0.00000000000E+00 0. -1.
</event>
<event>
 7    1  0.5642630E-013  0.5052886E+02  0.7816164E-02  0.1300439E+00
        -11   -1    0    0    0    0  0.00000000000E+00  0.00000000000E+00  0.45593999997E+02  0.45594000000E+02  0.51100000000E-03 0.  1.
         11   -1    0    0    0    0 -0.00000000000E+00 -0.00000000000E+00 -0.45593999997E+02  0.45594000000E+02  0.51100000000E-03 0. -1.
    9900012    2    1    2    0    0 -0.14249892997E+02 -0.10176154195E+02  0.36695401023E+02  0.50528855630E+02  0.29999987174E+02 0.  0.
         12    1    1    2    0    0  0.14249892997E+02  0.10176154195E+02 -0.36695401023E+02  0.40659144370E+02  0.00000000000E+00 0. -1.
         11    1    3    3    0    0 -0.13165137689E+02  0.18639509441E+01  0.17204959085E+02  0.21744097610E+02  0.51100000000E-03 0. -1.
        -11    1    3    3    0    0 -0.83142366602E+01 -0.46900622582E+01  0.14426067890E+02  0.17298400222E+02  0.51100000000E-03 0.  1.
         12    1    3    3    0    0  0.72294813520E+01 -0.73500428805E+01  0.50643740488E+01  0.11486357798E+02  0.00000000000E+00 0. -1.
</event>
<event>
 7    1  0.5642630E-013  0.5052884E+02  0.7816164E-02  0.1300439E+00
        -11   -1    0    0    0    0  0.00000000000E+00  0.00000000000E+00  0.45593999997E+02  0.45594000000E+02  0.51100000000E-03 0. -1.
         11   -1    0    0    0    0 -0.00000000000E+00 -0.00000000000E+00 -0.45593999997E+02  0.45594000000E+02  0.51100000000E-03 0.  1.
    9900012    2    1    2    0    0  0.28727769360E+02  0.12112614672E+02 -0.26099171568E+02  0.50528844535E+02  0.29999953448E+02 0.  0.
         12    1    1    2    0    0 -0.28727769360E+02 -0.12112614672E+02  0.26099171568E+02  0.40659155465E+02  0.00000000000E+00 0. -1.
         11    1    3    3    0    0  0.49944831557E+01  0.50506436836E+01 -0.16086965184E+02  0.17585343691E+02  0.51100000000E-03 0. -1.
        -11    1    3    3    0    0  0.10203464671E+02  0.10435944840E+02 -0.11952702674E+02  0.18864960574E+02  0.51100000000E-03 0.  1.
         12    1    3    3    0    0  0.13529821534E+02 -0.33739738517E+01  0.19404962903E+01  0.14078540270E+02  0.00000000000E+00 0. -1.
</event>
<event>
 7    1  0.5642630E-013  0.5052886E+02  0.7816164E-02  0.1300439E+00
        -11   -1    0    0    0    0  0.00000000000E+00  0.00000000000E+00  0.45593999997E+02  0.45594000000E+02  0.51100000000E-03 0.  1.
         11   -1    0    0    0    0 -0.00000000000E+00 -0.00000000000E+00 -0.45593999997E+02  0.45594000000E+02  0.51100000000E-03 0. -1.
    9900012    2    1    2    0    0 -0.37885662275E+02  0.13527627707E+02  0.59029869014E+01  0.50528863613E+02  0.30000011438E+02 0.  0.
         12    1    1    2    0    0  0.37885662275E+02 -0.13527627707E+02 -0.59029869014E+01  0.40659136387E+02  0.00000000000E+00 0. -1.
         11    1    3    3    0    0 -0.35198994790E+01  0.55234844846E+01  0.83258366126E+01  0.10593305846E+02  0.51100000000E-03 0. -1.
        -11    1    3    3    0    0 -0.52770532614E+01 -0.55172039123E+01 -0.18370710329E+01  0.78524938952E+01  0.51100000000E-03 0.  1.
        -12    1    3    3    0    0 -0.29088709535E+02  0.13521347135E+02 -0.58577867827E+00  0.32083063871E+02  0.00000000000E+00 0.  1.
</event>
<event>
 7    1  0.5642630E-013  0.5052889E+02  0.7816164E-02  0.1300439E+00
        -11   -1    0    0    0    0  0.00000000000E+00  0.00000000000E+00  0.45593999997E+02  0.45594000000E+02  0.51100000000E-03 0.  1.
         11   -1    0    0    0    0 -0.00000000000E+00 -0.00000000000E+00 -0.45593999997E+02  0.45594000000E+02  0.51100000000E-03 0. -1.
    9900012    2    1    2    0    0  0.86945853888E+00  0.35891188819E+02 -0.19084814534E+02  0.50528886153E+02  0.30000079950E+02 0.  0.
         12    1    1    2    0    0 -0.86945853888E+00 -0.35891188819E+02  0.19084814534E+02  0.40659113847E+02  0.00000000000E+00 0. -1.
         11    1    3    3    0    0  0.18588142215E+01 -0.19087178268E+01 -0.50066692591E+00  0.27109152853E+01  0.51100000000E-03 0. -1.
        -11    1    3    3    0    0  0.65178176163E+00  0.36633024350E+01  0.50450351901E+01  0.62687306950E+01  0.51100000000E-03 0.  1.
         12    1    3    3    0    0 -0.16411374442E+01  0.34136604211E+02 -0.23629182799E+02  0.41549240173E+02  0.00000000000E+00 0. -1.
</event>
<event>
 7    1  0.5642630E-013  0.5052886E+02  0.7816164E-02  0.1300439E+00
        -11   -1    0    0    0    0  0.00000000000E+00  0.00000000000E+00  0.45593999997E+02  0.45594000000E+02  0.51100000000E-03 0.  1.
         11   -1    0    0    0    0 -0.00000000000E+00 -0.00000000000E+00 -0.45593999997E+02  0.45594000000E+02  0.51100000000E-03 0. -1.
    9900012    2    1    2    0    0  0.22843363539E+02 -0.21661686142E+02  0.25731654481E+02  0.50528856543E+02  0.29999989949E+02 0.  0.
         12    1    1    2    0    0 -0.22843363539E+02  0.21661686142E+02 -0.25731654481E+02  0.40659143457E+02  0.00000000000E+00 0. -1.
         11    1    3    3    0    0  0.18564866332E+01 -0.55663619229E+01  0.65067480449E+01  0.87617748235E+01  0.51100000000E-03 0. -1.
        -11    1    3    3    0    0  0.11700510850E+02 -0.15825792322E+01  0.21359706924E+02  0.24405810606E+02  0.51100000000E-03 0.  1.
         12    1    3    3    0    0  0.92863660559E+01 -0.14512744987E+02 -0.21348004875E+01  0.17361271114E+02  0.00000000000E+00 0. -1.
</event>
<event>
 7    1  0.5642630E-013  0.5052886E+02  0.7816164E-02  0.1300439E+00
        -11   -1    0    0    0    0  0.00000000000E+00  0.00000000000E+00  0.45593999997E+02  0.45594000000E+02  0.51100000000E-03 0.  1.
         11   -1    0    0    0    0 -0.00000000000E+00 -0.00000000000E+00 -0.45593999997E+02  0.45594000000E+02  0.51100000000E-03 0. -1.
    9900012    2    1    2    0    0  0.23932396791E+02 -0.26098681198E+02 -0.19981621248E+02  0.50528856328E+02  0.29999989295E+02 0.  0.
         12    1    1    2    0    0 -0.23932396791E+02  0.26098681198E+02  0.19981621248E+02  0.40659143672E+02  0.00000000000E+00 0. -1.
         11    1    3    3    0    0 -0.21792465936E+00 -0.87202522334E-01 -0.58442031986E+01  0.58489150041E+01  0.51100000000E-03 0. -1.
        -11    1    3    3    0    0 -0.77192522824E+00 -0.83621790662E+01 -0.11202260421E+02  0.14000448067E+02  0.51100000000E-03 0.  1.
        -12    1    3    3    0    0  0.24922246678E+02 -0.17649299609E+02 -0.29351576292E+01  0.30679493257E+02  0.00000000000E+00 0.  1.
</event>
<event>
 7    1  0.5642630E-013  0.5052887E+02  0.7816164E-02  0.1300439E+00
        -11   -1    0    0    0    0  0.00000000000E+00  0.00000000000E+00  0.45593999997E+02  0.45594000000E+02  0.51100000000E-03 0. -1.
         11   -1    0    0    0    0 -0.00000000000E+00 -0.00000000000E+00 -0.45593999997E+02  0.45594000000E+02  0.51100000000E-03 0.  1.
    9900012    2    1    2    0    0 -0.21397831733E+00  0.39398958820E+02 -0.10041975042E+02  0.50528868116E+02  0.30000025126E+02 0.  0.
         12    1    1    2    0    0  0.21397831733E+00 -0.39398958820E+02  0.10041975042E+02  0.40659131884E+02  0.00000000000E+00 0. -1.
         11    1    3    3    0    0  0.50652391814E+01  0.17740056731E+02  0.10527606355E+01  0.18479030440E+02  0.51100000000E-03 0. -1.
        -11    1    3    3    0    0  0.54154362927E+01  0.49980906851E+01  0.27776094036E+01  0.78754666526E+01  0.51100000000E-03 0.  1.
         12    1    3    3    0    0 -0.10694653791E+02  0.16660811404E+02 -0.13872345081E+02  0.24174371024E+02  0.00000000000E+00 0. -1.
</event>
<event>
 7    1  0.5642630E-013  0.5052885E+02  0.7816164E-02  0.1300439E+00
        -11   -1    0    0    0    0  0.00000000000E+00  0.00000000000E+00  0.45593999997E+02  0.45594000000E+02  0.51100000000E-03 0.  1.
         11   -1    0    0    0    0 -0.00000000000E+00 -0.00000000000E+00 -0.45593999997E+02  0.45594000000E+02  0.51100000000E-03 0. -1.
    9900012    2    1    2    0    0  0.12883067687E+02  0.76834220807E+01  0.37790974292E+02  0.50528854094E+02  0.29999982504E+02 0.  0.
         12    1    1    2    0    0 -0.12883067687E+02 -0.76834220807E+01 -0.37790974292E+02  0.40659145906E+02  0.00000000000E+00 0. -1.
         11    1    3    3    0    0 -0.99104675601E+00  0.12817940636E+02  0.25237157448E+02  0.28323062902E+02  0.51100000000E-03 0. -1.
        -11    1    3    3    0    0  0.25104830667E+01  0.32136655924E+01  0.40072842708E+01  0.57173857011E+01  0.51100000000E-03 0.  1.
         12    1    3    3    0    0  0.11363631377E+02 -0.83481841474E+01  0.85465325725E+01  0.16488405491E+02  0.00000000000E+00 0. -1.
</event>
<event>
 7    1  0.5642630E-013  0.5052887E+02  0.7816164E-02  0.1300439E+00
        -11   -1    0    0    0    0  0.00000000000E+00  0.00000000000E+00  0.45593999997E+02  0.45594000000E+02  0.51100000000E-03 0. -1.
         11   -1    0    0    0    0 -0.00000000000E+00 -0.00000000000E+00 -0.45593999997E+02  0.45594000000E+02  0.51100000000E-03 0.  1.
    9900012    2    1    2    0    0  0.30512757351E+02 -0.26848357759E+02 -0.11412367310E+01  0.50528866994E+02  0.30000021715E+02 0.  0.
         12    1    1    2    0    0 -0.30512757351E+02  0.26848357759E+02  0.11412367310E+01  0.40659133006E+02  0.00000000000E+00 0. -1.
         11    1    3    3    0    0  0.88768938255E+01 -0.10301297347E+01  0.32639056839E+01  0.95138578839E+01  0.51100000000E-03 0. -1.
        -11    1    3    3    0    0  0.19858267863E+02 -0.12791745586E+02 -0.11282396413E+02  0.26177700944E+02  0.51100000000E-03 0.  1.
         12    1    3    3    0    0  0.17775956626E+01 -0.13026482439E+02  0.68772539979E+01  0.14837308166E+02  0.00000000000E+00 0. -1.
</event>
<event>
 7    1  0.5642630E-013  0.5052885E+02  0.7816164E-02  0.1300439E+00
        -11   -1    0    0    0    0  0.00000000000E+00  0.00000000000E+00  0.45593999997E+02  0.45594000000E+02  0.51100000000E-03 0. -1.
         11   -1    0    0    0    0 -0.00000000000E+00 -0.00000000000E+00 -0.45593999997E+02  0.45594000000E+02  0.51100000000E-03 0.  1.
    9900012    2    1    2    0    0  0.14409661798E+02  0.36236409735E+02  0.11508730805E+02  0.50528848160E+02  0.29999964467E+02 0.  0.
         12    1    1    2    0    0 -0.14409661798E+02 -0.36236409735E+02 -0.11508730805E+02  0.40659151840E+02  0.00000000000E+00 0. -1.
         11    1    3    3    0    0 -0.25713169719E+01  0.96122942587E+01  0.57248377677E+01  0.11479618444E+02  0.51100000000E-03 0. -1.
        -11    1    3    3    0    0  0.28483337029E+01  0.24050998785E+02  0.28319565808E+01  0.24384083452E+02  0.51100000000E-03 0.  1.
         12    1    3    3    0    0  0.14132645067E+02  0.25731166906E+01  0.29519364564E+01  0.14665146264E+02  0.00000000000E+00 0. -1.
</event>
<event>
 7    1  0.5642630E-013  0.5052886E+02  0.7816164E-02  0.1300439E+00
        -11   -1    0    0    0    0  0.00000000000E+00  0.00000000000E+00  0.45593999997E+02  0.45594000000E+02  0.51100000000E-03 0.  1.
         11   -1    0    0    0    0 -0.00000000000E+00 -0.00000000000E+00 -0.45593999997E+02  0.45594000000E+02  0.51100000000E-03 0. -1.
    9900012    2    1    2    0    0 -0.31502434569E+01 -0.20897805234E+02  0.34735047072E+02  0.50528858438E+02  0.29999995709E+02 0.  0.
         12    1    1    2    0    0  0.31502434569E+01  0.20897805234E+02 -0.34735047072E+02  0.40659141562E+02  0.00000000000E+00 0. -1.
         11    1    3    3    0    0  0.13996316764E+01 -0.53509302031E+01 -0.36368024050E+01  0.66194980823E+01  0.51100000000E-03 0. -1.
        -11    1    3    3    0    0  0.24550480806E+01  0.10369371801E+01  0.96558042518E+01  0.10016838613E+02  0.51100000000E-03 0.  1.
        -12    1    3    3    0    0 -0.70049232139E+01 -0.16583812211E+02  0.28716045225E+02  0.33892521743E+02  0.00000000000E+00 0.  1.
</event>
<event>
 7    1  0.5642630E-013  0.5052886E+02  0.7816164E-02  0.1300439E+00
        -11   -1    0    0    0    0  0.00000000000E+00  0.00000000000E+00  0.45593999997E+02  0.45594000000E+02  0.51100000000E-03 0.  1.
         11   -1    0    0    0    0 -0.00000000000E+00 -0.00000000000E+00 -0.45593999997E+02  0.45594000000E+02  0.51100000000E-03 0. -1.
    9900012    2    1    2    0    0 -0.67748972156E+01  0.88550492960E+00  0.40080946062E+02  0.50528860947E+02  0.30000003335E+02 0.  0.
         12    1    1    2    0    0  0.67748972156E+01 -0.88550492960E+00 -0.40080946062E+02  0.40659139053E+02  0.00000000000E+00 0. -1.
         11    1    3    3    0    0  0.38344006273E+01 -0.22948902472E+01  0.49504807459E+01  0.66690635995E+01  0.51100000000E-03 0. -1.
        -11    1    3    3    0    0  0.51835737886E+01  0.66714461615E+01  0.20002436839E+02  0.21713477632E+02  0.51100000000E-03 0.  1.
         12    1    3    3    0    0 -0.15792871632E+02 -0.34910509847E+01  0.15128028477E+02  0.22146319716E+02  0.00000000000E+00 0. -1.
</event>
<event>
 7    1  0.5642630E-013  0.5052885E+02  0.7816164E-02  0.1300439E+00
        -11   -1    0    0    0    0  0.00000000000E+00  0.00000000000E+00  0.45593999997E+02  0.45594000000E+02  0.51100000000E-03 0. -1.
         11   -1    0    0    0    0 -0.00000000000E+00 -0.00000000000E+00 -0.45593999997E+02  0.45594000000E+02  0.51100000000E-03 0.  1.
    9900012    2    1    2    0    0 -0.12138338375E+02 -0.26467393498E+02 -0.28377883794E+02  0.50528850160E+02  0.29999970546E+02 0.  0.
         12    1    1    2    0    0  0.12138338375E+02  0.26467393498E+02  0.28377883794E+02  0.40659149840E+02  0.00000000000E+00 0. -1.
         11    1    3    3    0    0 -0.14010292460E+01 -0.15194441493E+02 -0.95902695427E+01  0.18022408424E+02  0.51100000000E-03 0. -1.
        -11    1    3    3    0    0 -0.16587265694E+01 -0.10976717351E+01 -0.18764694578E+02  0.18869817697E+02  0.51100000000E-03 0.  1.
         12    1    3    3    0    0 -0.90785825595E+01 -0.10175280270E+02 -0.22919673774E-01  0.13636624039E+02  0.00000000000E+00 0. -1.
</event>
<event>
 7    1  0.5642630E-013  0.5052887E+02  0.7816164E-02  0.1300439E+00
        -11   -1    0    0    0    0  0.00000000000E+00  0.00000000000E+00  0.45593999997E+02  0.45594000000E+02  0.51100000000E-03 0. -1.
         11   -1    0    0    0    0 -0.00000000000E+00 -0.00000000000E+00 -0.45593999997E+02  0.45594000000E+02  0.51100000000E-03 0.  1.
    9900012    2    1    2    0    0 -0.39669179940E+01  0.46831803245E+01 -0.40193234770E+02  0.50528871411E+02  0.30000035141E+02 0.  0.
         12    1    1    2    0    0  0.39669179940E+01 -0.46831803245E+01  0.40193234770E+02  0.40659128589E+02  0.00000000000E+00 0. -1.
         11    1    3    3    0    0 -0.79794453216E+01  0.87772447206E+01 -0.13686095976E+02  0.18111344397E+02  0.51100000000E-03 0. -1.
        -11    1    3    3    0    0 -0.37953117490E+01  0.39746712077E+01 -0.27599918201E+01  0.61497932965E+01  0.51100000000E-03 0.  1.
        -12    1    3    3    0    0  0.78078390766E+01 -0.80687356038E+01 -0.23747146974E+02  0.26267733718E+02  0.00000000000E+00 0.  1.
</event>
<event>
 7    1  0.5642630E-013  0.5052886E+02  0.7816164E-02  0.1300439E+00
        -11   -1    0    0    0    0  0.00000000000E+00  0.00000000000E+00  0.45593999997E+02  0.45594000000E+02  0.51100000000E-03 0.  1.
         11   -1    0    0    0    0 -0.00000000000E+00 -0.00000000000E+00 -0.45593999997E+02  0.45594000000E+02  0.51100000000E-03 0. -1.
    9900012    2    1    2    0    0 -0.98918372622E+01  0.17516477603E+01  0.39398589122E+02  0.50528861555E+02  0.30000005182E+02 0.  0.
         12    1    1    2    0    0  0.98918372622E+01 -0.17516477603E+01 -0.39398589122E+02  0.40659138445E+02  0.00000000000E+00 0. -1.
         11    1    3    3    0    0 -0.77029117754E+00 -0.26048733086E+01  0.18821994926E+01  0.33047524330E+01  0.51100000000E-03 0.  1.
        -11    1    3    3    0    0  0.89638042399E+01  0.43149995354E+01  0.87711864367E+01  0.13262832247E+02  0.51100000000E-03 0. -1.
         12    1    3    3    0    0 -0.18085350325E+02  0.41521533520E-01  0.28745203192E+02  0.33961276875E+02  0.00000000000E+00 0. -1.
</event>
<event>
 7    1  0.5642630E-013  0.5052886E+02  0.7816164E-02  0.1300439E+00
        -11   -1    0    0    0    0  0.00000000000E+00  0.00000000000E+00  0.45593999997E+02  0.45594000000E+02  0.51100000000E-03 0. -1.
         11   -1    0    0    0    0 -0.00000000000E+00 -0.00000000000E+00 -0.45593999997E+02  0.45594000000E+02  0.51100000000E-03 0.  1.
    9900012    2    1    2    0    0  0.70412603453E+01 -0.28236406290E+02 -0.28395274199E+02  0.50528860999E+02  0.30000003494E+02 0.  0.
         12    1    1    2    0    0 -0.70412603453E+01  0.28236406290E+02  0.28395274199E+02  0.40659139001E+02  0.00000000000E+00 0. -1.
         11    1    3    3    0    0 -0.27993567147E+01 -0.14480901105E+01  0.31947924415E+01  0.44877680410E+01  0.51100000000E-03 0. -1.
        -11    1    3    3    0    0 -0.88041855838E+00 -0.71462138946E+00  0.19320849165E+01  0.22402618048E+01  0.51100000000E-03 0.  1.
        -12    1    3    3    0    0  0.10721035618E+02 -0.26073694790E+02 -0.33522151557E+02  0.43800831154E+02  0.00000000000E+00 0.  1.
</event>
<event>
 7    1  0.5642630E-013  0.5052888E+02  0.7816164E-02  0.1300439E+00
        -11   -1    0    0    0    0  0.00000000000E+00  0.00000000000E+00  0.45593999997E+02  0.45594000000E+02  0.51100000000E-03 0.  1.
         11   -1    0    0    0    0 -0.00000000000E+00 -0.00000000000E+00 -0.45593999997E+02  0.45594000000E+02  0.51100000000E-03 0. -1.
    9900012    2    1    2    0    0 -0.23472788720E+02 -0.38428429688E+01  0.32976126561E+02  0.50528878325E+02  0.30000056157E+02 0.  0.
         12    1    1    2    0    0  0.23472788720E+02  0.38428429688E+01 -0.32976126561E+02  0.40659121675E+02  0.00000000000E+00 0. -1.
         11    1    3    3    0    0 -0.16168155012E+02 -0.14838259345E+01  0.19885680421E+02  0.25671993728E+02  0.51100000000E-03 0. -1.
        -11    1    3    3    0    0 -0.12790708582E+02  0.33278840009E+01  0.77792122920E+01  0.15336009328E+02  0.51100000000E-03 0.  1.
         12    1    3    3    0    0  0.54860748739E+01 -0.56869010352E+01  0.53112338482E+01  0.95208752694E+01  0.00000000000E+00 0. -1.
</event>
<event>
 7    1  0.5642630E-013  0.5052886E+02  0.7816164E-02  0.1300439E+00
        -11   -1    0    0    0    0  0.00000000000E+00  0.00000000000E+00  0.45593999997E+02  0.45594000000E+02  0.51100000000E-03 0.  1.
         11   -1    0    0    0    0 -0.00000000000E+00 -0.00000000000E+00 -0.45593999997E+02  0.45594000000E+02  0.51100000000E-03 0. -1.
    9900012    2    1    2    0    0 -0.20892040002E+02 -0.22979355048E+02  0.26241909962E+02  0.50528856719E+02  0.29999990483E+02 0.  0.
         12    1    1    2    0    0  0.20892040002E+02  0.22979355048E+02 -0.26241909962E+02  0.40659143281E+02  0.00000000000E+00 0. -1.
         11    1    3    3    0    0 -0.14302240208E+02 -0.76958769013E+01  0.19296401322E+00  0.16242469997E+02  0.51100000000E-03 0. -1.
        -11    1    3    3    0    0 -0.60598600764E+01 -0.49189424830E+01  0.19457162162E+01  0.80438617064E+01  0.51100000000E-03 0.  1.
         12    1    3    3    0    0 -0.52993971821E+00 -0.10364535664E+02  0.24103229733E+02  0.26242525015E+02  0.00000000000E+00 0. -1.
</event>
<event>
 7    1  0.5642630E-013  0.5052886E+02  0.7816164E-02  0.1300439E+00
        -11   -1    0    0    0    0  0.00000000000E+00  0.00000000000E+00  0.45593999997E+02  0.45594000000E+02  0.51100000000E-03 0.  1.
         11   -1    0    0    0    0 -0.00000000000E+00 -0.00000000000E+00 -0.45593999997E+02  0.45594000000E+02  0.51100000000E-03 0. -1.
    9900012    2    1    2    0    0 -0.82658021296E+00 -0.32410064114E+02  0.24537111378E+02  0.50528864182E+02  0.30000013166E+02 0.  0.
         12    1    1    2    0    0  0.82658021296E+00  0.32410064114E+02 -0.24537111378E+02  0.40659135818E+02  0.00000000000E+00 0. -1.
         11    1    3    3    0    0  0.47069879708E+01 -0.10402604595E+02  0.58337195899E+01  0.12821942233E+02  0.51100000000E-03 0. -1.
        -11    1    3    3    0    0 -0.81592776462E+01 -0.26291362194E+02  0.14275192237E+02  0.31009525172E+02  0.51100000000E-03 0.  1.
         12    1    3    3    0    0  0.26257094625E+01  0.42839026753E+01  0.44281995517E+01  0.66973967765E+01  0.00000000000E+00 0. -1.
</event>
<event>
 7    1  0.5642630E-013  0.5052895E+02  0.7816164E-02  0.1300438E+00
        -11   -1    0    0    0    0  0.00000000000E+00  0.00000000000E+00  0.45593999997E+02  0.45594000000E+02  0.51100000000E-03 0. -1.
         11   -1    0    0    0    0 -0.00000000000E+00 -0.00000000000E+00 -0.45593999997E+02  0.45594000000E+02  0.51100000000E-03 0.  1.
    9900012    2    1    2    0    0  0.26166342201E+02  0.27671056910E+02  0.14240558049E+02  0.50528949984E+02  0.30000273969E+02 0.  0.
         12    1    1    2    0    0 -0.26166342201E+02 -0.27671056910E+02 -0.14240558049E+02  0.40659050016E+02  0.00000000000E+00 0. -1.
         11    1    3    3    0    0 -0.28530897160E+01 -0.15572586065E+01  0.79489879233E+01  0.85878742749E+01  0.51100000000E-03 0.  1.
        -11    1    3    3    0    0  0.94218159796E+01  0.65444664218E+01  0.11941117964E+01  0.11533714074E+02  0.51100000000E-03 0. -1.
        -12    1    3    3    0    0  0.19597615938E+02  0.22683849094E+02  0.50974583289E+01  0.30407361635E+02  0.00000000000E+00 0.  1.
</event>
<event>
 7    1  0.5642630E-013  0.5052885E+02  0.7816164E-02  0.1300439E+00
        -11   -1    0    0    0    0  0.00000000000E+00  0.00000000000E+00  0.45593999997E+02  0.45594000000E+02  0.51100000000E-03 0. -1.
         11   -1    0    0    0    0 -0.00000000000E+00 -0.00000000000E+00 -0.45593999997E+02  0.45594000000E+02  0.51100000000E-03 0.  1.
    9900012    2    1    2    0    0  0.20051861969E+01  0.40396109271E+02  0.41592914202E+01  0.50528854398E+02  0.29999983429E+02 0.  0.
         12    1    1    2    0    0 -0.20051861969E+01 -0.40396109271E+02 -0.41592914202E+01  0.40659145602E+02  0.00000000000E+00 0. -1.
         11    1    3    3    0    0 -0.25456158917E+01  0.73832249515E+01 -0.26806219637E+01  0.82569912999E+01  0.51100000000E-03 0. -1.
        -11    1    3    3    0    0 -0.55333189043E+01  0.14844000293E+02 -0.69850242549E+01  0.17313362669E+02  0.51100000000E-03 0.  1.
         12    1    3    3    0    0  0.10084120993E+02  0.18168884027E+02  0.13824937639E+02  0.24958500430E+02  0.00000000000E+00 0. -1.
</event>
<event>
 7    1  0.5642630E-013  0.5052886E+02  0.7816164E-02  0.1300439E+00
        -11   -1    0    0    0    0  0.00000000000E+00  0.00000000000E+00  0.45593999997E+02  0.45594000000E+02  0.51100000000E-03 0. -1.
         11   -1    0    0    0    0 -0.00000000000E+00 -0.00000000000E+00 -0.45593999997E+02  0.45594000000E+02  0.51100000000E-03 0.  1.
    9900012    2    1    2    0    0 -0.29500361256E+02  0.70937169494E+01 -0.27066098763E+02  0.50528857896E+02  0.29999994060E+02 0.  0.
         12    1    1    2    0    0  0.29500361256E+02 -0.70937169494E+01  0.27066098763E+02  0.40659142104E+02  0.00000000000E+00 0. -1.
         11    1    3    3    0    0 -0.19002455112E+02  0.44118574095E+01 -0.71709266622E+01  0.20784127972E+02  0.51100000000E-03 0. -1.
        -11    1    3    3    0    0 -0.12877616990E+02 -0.25916918757E+01 -0.55191866378E+01  0.14248203659E+02  0.51100000000E-03 0.  1.
        -12    1    3    3    0    0  0.23797108457E+01  0.52735514155E+01 -0.14375985463E+02  0.15496526265E+02  0.00000000000E+00 0.  1.
</event>
<event>
 7    1  0.5642630E-013  0.5052885E+02  0.7816164E-02  0.1300439E+00
        -11   -1    0    0    0    0  0.00000000000E+00  0.00000000000E+00  0.45593999997E+02  0.45594000000E+02  0.51100000000E-03 0. -1.
         11   -1    0    0    0    0 -0.00000000000E+00 -0.00000000000E+00 -0.45593999997E+02  0.45594000000E+02  0.51100000000E-03 0.  1.
    9900012    2    1    2    0    0  0.10726724950E+01  0.10369459879E+02 -0.39300003924E+02  0.50528848104E+02  0.29999964296E+02 0.  0.
         12    1    1    2    0    0 -0.10726724950E+01 -0.10369459879E+02  0.39300003924E+02  0.40659151896E+02  0.00000000000E+00 0. -1.
         11    1    3    3    0    0 -0.43969713743E+01  0.24354875492E+01 -0.15587997482E+00  0.50288423814E+01  0.51100000000E-03 0. -1.
        -11    1    3    3    0    0 -0.21659287731E+00 -0.28864356166E+01  0.13552987475E+01  0.31961317243E+01  0.51100000000E-03 0.  1.
        -12    1    3    3    0    0  0.56862367467E+01  0.10820407946E+02 -0.40499422697E+02  0.42303873998E+02  0.00000000000E+00 0.  1.
</event>
<event>
 7    1  0.5642630E-013  0.5052894E+02  0.7816164E-02  0.1300439E+00
        -11   -1    0    0    0    0  0.00000000000E+00  0.00000000000E+00  0.45593999997E+02  0.45594000000E+02  0.51100000000E-03 0.  1.
         11   -1    0    0    0    0 -0.00000000000E+00 -0.00000000000E+00 -0.45593999997E+02  0.45594000000E+02  0.51100000000E-03 0. -1.
    9900012    2    1    2    0    0 -0.20475092522E+02 -0.34949103099E+02 -0.35341188893E+01  0.50528939294E+02  0.30000241477E+02 0.  0.
         12    1    1    2    0    0  0.20475092522E+02  0.34949103099E+02  0.35341188893E+01  0.40659060706E+02  0.00000000000E+00 0. -1.
         11    1    3    3    0    0 -0.63733492445E+01 -0.26798287225E+01  0.93979198777E-01  0.69144699671E+01  0.51100000000E-03 0. -1.
        -11    1    3    3    0    0 -0.16348616512E+02 -0.13289012158E+02 -0.10194452126E+02  0.23405169523E+02  0.51100000000E-03 0.  1.
         12    1    3    3    0    0  0.22468732350E+01 -0.18980262218E+02  0.65663540380E+01  0.20209299804E+02  0.00000000000E+00 0. -1.
</event>
<event>
 7    1  0.5642630E-013  0.5052885E+02  0.7816164E-02  0.1300439E+00
        -11   -1    0    0    0    0  0.00000000000E+00  0.00000000000E+00  0.45593999997E+02  0.45594000000E+02  0.51100000000E-03 0.  1.
         11   -1    0    0    0    0 -0.00000000000E+00 -0.00000000000E+00 -0.45593999997E+02  0.45594000000E+02  0.51100000000E-03 0. -1.
    9900012    2    1    2    0    0 -0.35198606530E+02 -0.15268269545E+02  0.13457497862E+02  0.50528853363E+02  0.29999980282E+02 0.  0.
         12    1    1    2    0    0  0.35198606530E+02  0.15268269545E+02 -0.13457497862E+02  0.40659146637E+02  0.00000000000E+00 0. -1.
         11    1    3    3    0    0 -0.22847616214E+02 -0.43959003028E+01  0.29585201478E+01  0.23454004942E+02  0.51100000000E-03 0.  1.
        -11    1    3    3    0    0 -0.15714110878E+01 -0.63099334555E+01 -0.46035186678E+01  0.79672440282E+01  0.51100000000E-03 0. -1.
        -12    1    3    3    0    0 -0.10779579228E+02 -0.45624357872E+01  0.15102496382E+02  0.19107604392E+02  0.00000000000E+00 0.  1.
</event>
<event>
 7    1  0.5642630E-013  0.5052886E+02  0.7816164E-02  0.1300439E+00
        -11   -1    0    0    0    0  0.00000000000E+00  0.00000000000E+00  0.45593999997E+02  0.45594000000E+02  0.51100000000E-03 0.  1.
         11   -1    0    0    0    0 -0.00000000000E+00 -0.00000000000E+00 -0.45593999997E+02  0.45594000000E+02  0.51100000000E-03 0. -1.
    9900012    2    1    2    0    0  0.24341799271E+02 -0.26723060573E+01  0.32457684508E+02  0.50528859637E+02  0.29999999352E+02 0.  0.
         12    1    1    2    0    0 -0.24341799271E+02  0.26723060573E+01 -0.32457684508E+02  0.40659140363E+02  0.00000000000E+00 0. -1.
         11    1    3    3    0    0  0.53790558563E+01  0.10252020812E+02  0.11186217632E+02  0.16098746467E+02  0.51100000000E-03 0. -1.
        -11    1    3    3    0    0  0.82379852427E-01 -0.67087988504E+01  0.83951274815E+01  0.10746763892E+02  0.51100000000E-03 0.  1.
        -12    1    3    3    0    0  0.18880363563E+02 -0.62155280187E+01  0.12876339395E+02  0.23683349278E+02  0.00000000000E+00 0.  1.
</event>
<event>
 7    1  0.5642630E-013  0.5052889E+02  0.7816164E-02  0.1300439E+00
        -11   -1    0    0    0    0  0.00000000000E+00  0.00000000000E+00  0.45593999997E+02  0.45594000000E+02  0.51100000000E-03 0.  1.
         11   -1    0    0    0    0 -0.00000000000E+00 -0.00000000000E+00 -0.45593999997E+02  0.45594000000E+02  0.51100000000E-03 0. -1.
    9900012    2    1    2    0    0  0.17270674440E+02 -0.57563466065E+00  0.36804292702E+02  0.50528886481E+02  0.30000080948E+02 0.  0.
         12    1    1    2    0    0 -0.17270674440E+02  0.57563466065E+00 -0.36804292702E+02  0.40659113519E+02  0.00000000000E+00 0. -1.
         11    1    3    3    0    0  0.82931971706E+01 -0.97636210890E+01  0.24780065410E+02  0.27895466622E+02  0.51100000000E-03 0. -1.
        -11    1    3    3    0    0  0.99103014090E+00 -0.21547021743E+01  0.77693629101E+01  0.81232925893E+01  0.51100000000E-03 0.  1.
         12    1    3    3    0    0  0.79864471288E+01  0.11342688603E+02  0.42548643813E+01  0.14510127270E+02  0.00000000000E+00 0. -1.
</event>
<event>
 7    1  0.5642630E-013  0.5052888E+02  0.7816164E-02  0.1300439E+00
        -11   -1    0    0    0    0  0.00000000000E+00  0.00000000000E+00  0.45593999997E+02  0.45594000000E+02  0.51100000000E-03 0. -1.
         11   -1    0    0    0    0 -0.00000000000E+00 -0.00000000000E+00 -0.45593999997E+02  0.45594000000E+02  0.51100000000E-03 0.  1.
    9900012    2    1    2    0    0 -0.11612039093E+02  0.29402230566E+02 -0.25570173327E+02  0.50528875832E+02  0.30000048578E+02 0.  0.
         12    1    1    2    0    0  0.11612039093E+02 -0.29402230566E+02  0.25570173327E+02  0.40659124168E+02  0.00000000000E+00 0. -1.
         11    1    3    3    0    0 -0.65195169877E+01  0.19851370288E+02 -0.11849125502E+02  0.24020465846E+02  0.51100000000E-03 0. -1.
        -11    1    3    3    0    0 -0.80185957390E+01  0.99345305572E+01 -0.30383178639E+00  0.12770477244E+02  0.51100000000E-03 0.  1.
         12    1    3    3    0    0  0.29260736338E+01 -0.38367027881E+00 -0.13417216038E+02  0.13737932742E+02  0.00000000000E+00 0. -1.
</event>
<event>
 7    1  0.5642630E-013  0.5052884E+02  0.7816164E-02  0.1300439E+00
        -11   -1    0    0    0    0  0.00000000000E+00  0.00000000000E+00  0.45593999997E+02  0.45594000000E+02  0.51100000000E-03 0. -1.
         11   -1    0    0    0    0 -0.00000000000E+00 -0.00000000000E+00 -0.45593999997E+02  0.45594000000E+02  0.51100000000E-03 0.  1.
    9900012    2    1    2    0    0 -0.42358795700E+01  0.38712612375E+02  0.11685829916E+02  0.50528835554E+02  0.29999926151E+02 0.  0.
         12    1    1    2    0    0  0.42358795700E+01 -0.38712612375E+02 -0.11685829916E+02  0.40659164446E+02  0.00000000000E+00 0. -1.
         11    1    3    3    0    0  0.50030830260E+01  0.82853719138E+01  0.11598752516E+02  0.15106597489E+02  0.51100000000E-03 0. -1.
        -11    1    3    3    0    0 -0.45304032976E+01  0.25579316437E+02  0.57487709792E+01  0.26605908206E+02  0.51100000000E-03 0.  1.
        -12    1    3    3    0    0 -0.47085592985E+01  0.48479240240E+01 -0.56616935790E+01  0.88163298595E+01  0.00000000000E+00 0.  1.
</event>
<event>
 7    1  0.5642630E-013  0.5052882E+02  0.7816164E-02  0.1300439E+00
        -11   -1    0    0    0    0  0.00000000000E+00  0.00000000000E+00  0.45593999997E+02  0.45594000000E+02  0.51100000000E-03 0.  1.
         11   -1    0    0    0    0 -0.00000000000E+00 -0.00000000000E+00 -0.45593999997E+02  0.45594000000E+02  0.51100000000E-03 0. -1.
    9900012    2    1    2    0    0  0.67986562953E+01  0.14267072999E+02  0.37461954746E+02  0.50528817116E+02  0.29999870105E+02 0.  0.
         12    1    1    2    0    0 -0.67986562953E+01 -0.14267072999E+02 -0.37461954746E+02  0.40659182884E+02  0.00000000000E+00 0. -1.
         11    1    3    3    0    0  0.59483506425E+01  0.16034385261E+02  0.88560085638E+01  0.19259108858E+02  0.51100000000E-03 0. -1.
        -11    1    3    3    0    0 -0.20194885994E+01  0.13646974721E+01  0.89926850785E-01  0.24390203962E+01  0.51100000000E-03 0.  1.
        -12    1    3    3    0    0  0.28697942522E+01 -0.31320097340E+01  0.28516019332E+02  0.28830687861E+02  0.00000000000E+00 0.  1.
</event>
<event>
 7    1  0.5642630E-013  0.5052882E+02  0.7816164E-02  0.1300439E+00
        -11   -1    0    0    0    0  0.00000000000E+00  0.00000000000E+00  0.45593999997E+02  0.45594000000E+02  0.51100000000E-03 0.  1.
         11   -1    0    0    0    0 -0.00000000000E+00 -0.00000000000E+00 -0.45593999997E+02  0.45594000000E+02  0.51100000000E-03 0. -1.
    9900012    2    1    2    0    0  0.24360777577E+02  0.11386794246E+02  0.30496925381E+02  0.50528818687E+02  0.29999874879E+02 0.  0.
         12    1    1    2    0    0 -0.24360777577E+02 -0.11386794246E+02 -0.30496925381E+02  0.40659181313E+02  0.00000000000E+00 0. -1.
         11    1    3    3    0    0  0.67075765990E+00  0.10473968358E+02  0.99415001727E+01  0.14456394950E+02  0.51100000000E-03 0. -1.
        -11    1    3    3    0    0  0.10243050704E+02  0.74514277866E+01  0.30088908954E+01  0.13019112430E+02  0.51100000000E-03 0.  1.
        -12    1    3    3    0    0  0.13446969213E+02 -0.65386018982E+01  0.17546534313E+02  0.23053311307E+02  0.00000000000E+00 0.  1.
</event>
<event>
 7    1  0.5642630E-013  0.5052887E+02  0.7816164E-02  0.1300439E+00
        -11   -1    0    0    0    0  0.00000000000E+00  0.00000000000E+00  0.45593999997E+02  0.45594000000E+02  0.51100000000E-03 0. -1.
         11   -1    0    0    0    0 -0.00000000000E+00 -0.00000000000E+00 -0.45593999997E+02  0.45594000000E+02  0.51100000000E-03 0.  1.
    9900012    2    1    2    0    0 -0.28232696145E+02  0.13195998360E+02 -0.26114079356E+02  0.50528872550E+02  0.30000038604E+02 0.  0.
         12    1    1    2    0    0  0.28232696145E+02 -0.13195998360E+02  0.26114079356E+02  0.40659127450E+02  0.00000000000E+00 0. -1.
         11    1    3    3    0    0  0.10931829774E+01 -0.45515254019E+01 -0.71282176268E+01  0.85277734082E+01  0.51100000000E-03 0.  1.
        -11    1    3    3    0    0 -0.21669696426E+02  0.46932595242E+01 -0.93694453644E+01  0.24070499265E+02  0.51100000000E-03 0. -1.
         12    1    3    3    0    0 -0.76561826968E+01  0.13054264238E+02 -0.96164163648E+01  0.17930599878E+02  0.00000000000E+00 0. -1.
</event>
<event>
 7    1  0.5642630E-013  0.5052890E+02  0.7816164E-02  0.1300439E+00
        -11   -1    0    0    0    0  0.00000000000E+00  0.00000000000E+00  0.45593999997E+02  0.45594000000E+02  0.51100000000E-03 0. -1.
         11   -1    0    0    0    0 -0.00000000000E+00 -0.00000000000E+00 -0.45593999997E+02  0.45594000000E+02  0.51100000000E-03 0.  1.
    9900012    2    1    2    0    0  0.39529213438E+02  0.12970800925E+01  0.94297923384E+01  0.50528903658E+02  0.30000133159E+02 0.  0.
         12    1    1    2    0    0 -0.39529213438E+02 -0.12970800925E+01 -0.94297923384E+01  0.40659096342E+02  0.00000000000E+00 0. -1.
         11    1    3    3    0    0 -0.83964093212E-02  0.10309349594E+01 -0.88070243000E-01  0.10347241270E+01  0.51100000000E-03 0. -1.
        -11    1    3    3    0    0  0.14952892689E+02 -0.11300876763E+02  0.11929608905E+02  0.22217434241E+02  0.51100000000E-03 0.  1.
        -12    1    3    3    0    0  0.24584717158E+02  0.11567021896E+02 -0.24117463237E+01  0.27276745290E+02  0.00000000000E+00 0.  1.
</event>
<event>
 7    1  0.5642630E-013  0.5052886E+02  0.7816164E-02  0.1300439E+00
        -11   -1    0    0    0    0  0.00000000000E+00  0.00000000000E+00  0.45593999997E+02  0.45594000000E+02  0.51100000000E-03 0.  1.
         11   -1    0    0    0    0 -0.00000000000E+00 -0.00000000000E+00 -0.45593999997E+02  0.45594000000E+02  0.51100000000E-03 0. -1.
    9900012    2    1    2    0    0 -0.12517057729E+02  0.94421878974E+01  0.37514453181E+02  0.50528857806E+02  0.29999993786E+02 0.  0.
         12    1    1    2    0    0  0.12517057729E+02 -0.94421878974E+01 -0.37514453181E+02  0.40659142194E+02  0.00000000000E+00 0. -1.
         11    1    3    3    0    0 -0.55974331542E+00 -0.36282019973E+01  0.67621716227E+01  0.76944218514E+01  0.51100000000E-03 0. -1.
        -11    1    3    3    0    0 -0.11390627488E+02  0.71938678896E+01  0.33658171870E+02  0.36254250284E+02  0.51100000000E-03 0.  1.
        -12    1    3    3    0    0 -0.56668692541E+00  0.58765220051E+01 -0.29058903115E+01  0.65801856699E+01  0.00000000000E+00 0.  1.
</event>
<event>
 7    1  0.5642630E-013  0.5052874E+02  0.7816164E-02  0.1300439E+00
        -11   -1    0    0    0    0  0.00000000000E+00  0.00000000000E+00  0.45593999997E+02  0.45594000000E+02  0.51100000000E-03 0.  1.
         11   -1    0    0    0    0 -0.00000000000E+00 -0.00000000000E+00 -0.45593999997E+02  0.45594000000E+02  0.51100000000E-03 0. -1.
    9900012    2    1    2    0    0  0.38492449632E+02  0.12047555305E+02  0.51345055319E+01  0.50528740113E+02  0.29999636045E+02 0.  0.
         12    1    1    2    0    0 -0.38492449632E+02 -0.12047555305E+02 -0.51345055319E+01  0.40659259887E+02  0.00000000000E+00 0. -1.
         11    1    3    3    0    0  0.60989002042E+00 -0.52395863182E+01  0.63512463345E-01  0.52753449856E+01  0.51100000000E-03 0. -1.
        -11    1    3    3    0    0  0.21107301652E+02  0.10310477660E+01  0.56918261522E+01  0.21885568938E+02  0.51100000000E-03 0.  1.
         12    1    3    3    0    0  0.16775257959E+02  0.16256093857E+02 -0.62083308362E+00  0.23367826189E+02  0.00000000000E+00 0. -1.
</event>
<event>
 7    1  0.5642630E-013  0.5052886E+02  0.7816164E-02  0.1300439E+00
        -11   -1    0    0    0    0  0.00000000000E+00  0.00000000000E+00  0.45593999997E+02  0.45594000000E+02  0.51100000000E-03 0. -1.
         11   -1    0    0    0    0 -0.00000000000E+00 -0.00000000000E+00 -0.45593999997E+02  0.45594000000E+02  0.51100000000E-03 0.  1.
    9900012    2    1    2    0    0  0.38751352745E+01 -0.35006347620E+02  0.20315124735E+02  0.50528864002E+02  0.30000012619E+02 0.  0.
         12    1    1    2    0    0 -0.38751352745E+01  0.35006347620E+02 -0.20315124735E+02  0.40659135998E+02  0.00000000000E+00 0. -1.
         11    1    3    3    0    0 -0.45243187874E+01 -0.16815860573E+02  0.13443436923E+02  0.21999286895E+02  0.51100000000E-03 0. -1.
        -11    1    3    3    0    0  0.67273718132E+01  0.20987681111E+01  0.12800839438E-01  0.70471641970E+01  0.51100000000E-03 0.  1.
         12    1    3    3    0    0  0.16720822487E+01 -0.20289255158E+02  0.68588869730E+01  0.21482412910E+02  0.00000000000E+00 0. -1.
</event>
<event>
 7    1  0.5642630E-013  0.5052882E+02  0.7816164E-02  0.1300439E+00
        -11   -1    0    0    0    0  0.00000000000E+00  0.00000000000E+00  0.45593999997E+02  0.45594000000E+02  0.51100000000E-03 0.  1.
         11   -1    0    0    0    0 -0.00000000000E+00 -0.00000000000E+00 -0.45593999997E+02  0.45594000000E+02  0.51100000000E-03 0. -1.
    9900012    2    1    2    0    0 -0.12579859049E+02  0.12159295633E+02  0.36702424789E+02  0.50528815190E+02  0.29999864252E+02 0.  0.
         12    1    1    2    0    0  0.12579859049E+02 -0.12159295633E+02 -0.36702424789E+02  0.40659184810E+02  0.00000000000E+00 0. -1.
         11    1    3    3    0    0 -0.37120915758E+01 -0.92179575795E+00  0.14951892359E+02  0.15433354031E+02  0.51100000000E-03 0.  1.
        -11    1    3    3    0    0 -0.68073881695E+01  0.12796139037E+02  0.26335579965E+02  0.30060679971E+02  0.51100000000E-03 0. -1.
         12    1    3    3    0    0 -0.20603793037E+01  0.28495235334E+00 -0.45850475345E+01  0.50347811881E+01  0.00000000000E+00 0. -1.
</event>
<event>
 7    1  0.5642630E-013  0.5052887E+02  0.7816164E-02  0.1300439E+00
        -11   -1    0    0    0    0  0.00000000000E+00  0.00000000000E+00  0.45593999997E+02  0.45594000000E+02  0.51100000000E-03 0. -1.
         11   -1    0    0    0    0 -0.00000000000E+00 -0.00000000000E+00 -0.45593999997E+02  0.45594000000E+02  0.51100000000E-03 0.  1.
    9900012    2    1    2    0    0  0.21457383656E+02 -0.26971358890E+02  0.21570609786E+02  0.50528871624E+02  0.30000035789E+02 0.  0.
         12    1    1    2    0    0 -0.21457383656E+02  0.26971358890E+02 -0.21570609786E+02  0.40659128376E+02  0.00000000000E+00 0. -1.
         11    1    3    3    0    0  0.30810918481E+01  0.13350438649E+00 -0.10550760697E+01  0.32594686947E+01  0.51100000000E-03 0. -1.
        -11    1    3    3    0    0  0.66730035278E+01  0.41549197994E+01  0.64968907801E+01  0.10198133393E+02  0.51100000000E-03 0.  1.
         12    1    3    3    0    0  0.11703288280E+02 -0.31259783076E+02  0.16128795076E+02  0.37071269537E+02  0.00000000000E+00 0. -1.
</event>
<event>
 7    1  0.5642630E-013  0.5052886E+02  0.7816164E-02  0.1300439E+00
        -11   -1    0    0    0    0  0.00000000000E+00  0.00000000000E+00  0.45593999997E+02  0.45594000000E+02  0.51100000000E-03 0.  1.
         11   -1    0    0    0    0 -0.00000000000E+00 -0.00000000000E+00 -0.45593999997E+02  0.45594000000E+02  0.51100000000E-03 0. -1.
    9900012    2    1    2    0    0 -0.95373664002E+01  0.37058766217E+02  0.13742359744E+02  0.50528856345E+02  0.29999989348E+02 0.  0.
         12    1    1    2    0    0  0.95373664002E+01 -0.37058766217E+02 -0.13742359744E+02  0.40659143655E+02  0.00000000000E+00 0. -1.
         11    1    3    3    0    0  0.39817481204E+01  0.25940634078E+02  0.15686843562E+02  0.30575282103E+02  0.51100000000E-03 0. -1.
        -11    1    3    3    0    0 -0.10622820200E+01  0.51078589340E+01 -0.31096545861E+01  0.60736000762E+01  0.51100000000E-03 0.  1.
        -12    1    3    3    0    0 -0.12456832501E+02  0.60102732050E+01  0.11651707689E+01  0.13879974167E+02  0.00000000000E+00 0.  1.
</event>
<event>
 7    1  0.5642630E-013  0.5052890E+02  0.7816164E-02  0.1300439E+00
        -11   -1    0    0    0    0  0.00000000000E+00  0.00000000000E+00  0.45593999997E+02  0.45594000000E+02  0.51100000000E-03 0.  1.
         11   -1    0    0    0    0 -0.00000000000E+00 -0.00000000000E+00 -0.45593999997E+02  0.45594000000E+02  0.51100000000E-03 0. -1.
    9900012    2    1    2    0    0 -0.96093634067E+00 -0.29140760951E+02  0.28338232830E+02  0.50528895393E+02  0.30000108038E+02 0.  0.
         12    1    1    2    0    0  0.96093634067E+00  0.29140760951E+02 -0.28338232830E+02  0.40659104607E+02  0.00000000000E+00 0. -1.
         11    1    3    3    0    0  0.90237741149E+01 -0.14188130586E+02  0.48584447963E+01  0.17502457967E+02  0.51100000000E-03 0.  1.
        -11    1    3    3    0    0  0.37111854330E+01 -0.45744343711E+01  0.44228909926E+01  0.73661599309E+01  0.51100000000E-03 0. -1.
        -12    1    3    3    0    0 -0.13695895889E+02 -0.10378195994E+02  0.19056897041E+02  0.25660277495E+02  0.00000000000E+00 0.  1.
</event>
<event>
 7    1  0.5642630E-013  0.5052877E+02  0.7816164E-02  0.1300439E+00
        -11   -1    0    0    0    0  0.00000000000E+00  0.00000000000E+00  0.45593999997E+02  0.45594000000E+02  0.51100000000E-03 0.  1.
         11   -1    0    0    0    0 -0.00000000000E+00 -0.00000000000E+00 -0.45593999997E+02  0.45594000000E+02  0.51100000000E-03 0. -1.
    9900012    2    1    2    0    0  0.10185124735E+02 -0.36637150811E+02  0.14392889235E+02  0.50528771700E+02  0.29999732058E+02 0.  0.
         12    1    1    2    0    0 -0.10185124735E+02  0.36637150811E+02 -0.14392889235E+02  0.40659228300E+02  0.00000000000E+00 0. -1.
         11    1    3    3    0    0  0.43383709716E+01  0.23399584728E+01  0.27361370750E+01  0.56376692610E+01  0.51100000000E-03 0. -1.
        -11    1    3    3    0    0  0.82904795077E+01 -0.66554607327E+01  0.52219450587E+01  0.11844657804E+02  0.51100000000E-03 0.  1.
        -12    1    3    3    0    0 -0.24437257441E+01 -0.32321648551E+02  0.64348071012E+01  0.33046444635E+02  0.00000000000E+00 0.  1.
</event>
<event>
 7    1  0.5642630E-013  0.5052886E+02  0.7816164E-02  0.1300439E+00
        -11   -1    0    0    0    0  0.00000000000E+00  0.00000000000E+00  0.45593999997E+02  0.45594000000E+02  0.51100000000E-03 0.  1.
         11   -1    0    0    0    0 -0.00000000000E+00 -0.00000000000E+00 -0.45593999997E+02  0.45594000000E+02  0.51100000000E-03 0. -1.
    9900012    2    1    2    0    0 -0.28108693042E+02  0.80858669497E+01  0.28243335335E+02  0.50528857612E+02  0.29999993199E+02 0.  0.
         12    1    1    2    0    0  0.28108693042E+02 -0.80858669497E+01 -0.28243335335E+02  0.40659142388E+02  0.00000000000E+00 0. -1.
         11    1    3    3    0    0 -0.56806432586E+01  0.19689275809E+01  0.11721266277E+01  0.61253787429E+01  0.51100000000E-03 0.  1.
        -11    1    3    3    0    0 -0.14196578177E+02 -0.24174600712E+01 -0.48018549627E+00  0.14408939014E+02  0.51100000000E-03 0. -1.
        -12    1    3    3    0    0 -0.82314716061E+01  0.85343994399E+01  0.27551394203E+02  0.29994539855E+02  0.00000000000E+00 0.  1.
</event>
<event>
 7    1  0.5642630E-013  0.5052886E+02  0.7816164E-02  0.1300439E+00
        -11   -1    0    0    0    0  0.00000000000E+00  0.00000000000E+00  0.45593999997E+02  0.45594000000E+02  0.51100000000E-03 0. -1.
         11   -1    0    0    0    0 -0.00000000000E+00 -0.00000000000E+00 -0.45593999997E+02  0.45594000000E+02  0.51100000000E-03 0.  1.
    9900012    2    1    2    0    0 -0.35552115710E+02 -0.36666086190E+01 -0.19384750470E+02  0.50528862023E+02  0.30000006605E+02 0.  0.
         12    1    1    2    0    0  0.35552115710E+02  0.36666086190E+01  0.19384750470E+02  0.40659137977E+02  0.00000000000E+00 0. -1.
         11    1    3    3    0    0 -0.20706489456E+02 -0.90506554580E+01 -0.70671192497E+01  0.23677357213E+02  0.51100000000E-03 0. -1.
        -11    1    3    3    0    0 -0.44801253011E+01 -0.29287704858E+01  0.33453161257E+01  0.63119220143E+01  0.51100000000E-03 0.  1.
        -12    1    3    3    0    0 -0.10365500953E+02  0.83128173249E+01 -0.15662947346E+02  0.20539582796E+02  0.00000000000E+00 0.  1.
</event>
<event>
 7    1  0.5642630E-013  0.5052885E+02  0.7816164E-02  0.1300439E+00
        -11   -1    0    0    0    0  0.00000000000E+00  0.00000000000E+00  0.45593999997E+02  0.45594000000E+02  0.51100000000E-03 0.  1.
         11   -1    0    0    0    0 -0.00000000000E+00 -0.00000000000E+00 -0.45593999997E+02  0.45594000000E+02  0.51100000000E-03 0. -1.
    9900012    2    1    2    0    0  0.28342055357E+02 -0.25258222482E+02  0.14557352258E+02  0.50528850850E+02  0.29999972645E+02 0.  0.
         12    1    1    2    0    0 -0.28342055357E+02  0.25258222482E+02 -0.14557352258E+02  0.40659149150E+02  0.00000000000E+00 0. -1.
         11    1    3    3    0    0  0.11539121203E+02 -0.11692374824E+02  0.50670796973E+01  0.17191225788E+02  0.51100000000E-03 0. -1.
        -11    1    3    3    0    0  0.93263300979E+01 -0.13546912108E+02  0.16349946046E+02  0.23190946439E+02  0.51100000000E-03 0.  1.
         12    1    3    3    0    0  0.74766040559E+01 -0.18935550213E-01 -0.68596734857E+01  0.10146678624E+02  0.00000000000E+00 0. -1.
</event>
<event>
 7    1  0.5642630E-013  0.5052884E+02  0.7816164E-02  0.1300439E+00
        -11   -1    0    0    0    0  0.00000000000E+00  0.00000000000E+00  0.45593999997E+02  0.45594000000E+02  0.51100000000E-03 0. -1.
         11   -1    0    0    0    0 -0.00000000000E+00 -0.00000000000E+00 -0.45593999997E+02  0.45594000000E+02  0.51100000000E-03 0.  1.
    9900012    2    1    2    0    0  0.21403829647E+02  0.34395498635E+02  0.34631476976E+01  0.50528835696E+02  0.29999926582E+02 0.  0.
         12    1    1    2    0    0 -0.21403829647E+02 -0.34395498635E+02 -0.34631476976E+01  0.40659164304E+02  0.00000000000E+00 0. -1.
         11    1    3    3    0    0 -0.59279940504E+01  0.92062999959E+01 -0.77748956219E+00  0.10977320409E+02  0.51100000000E-03 0. -1.
        -11    1    3    3    0    0 -0.53604985840E+00  0.17119872065E+01 -0.18839389273E+01  0.26014372544E+01  0.51100000000E-03 0.  1.
        -12    1    3    3    0    0  0.27867873556E+02  0.23477211433E+02  0.61245761871E+01  0.36950078033E+02  0.00000000000E+00 0.  1.
</event>
<event>
 7    1  0.5642630E-013  0.5052885E+02  0.7816164E-02  0.1300439E+00
        -11   -1    0    0    0    0  0.00000000000E+00  0.00000000000E+00  0.45593999997E+02  0.45594000000E+02  0.51100000000E-03 0.  1.
         11   -1    0    0    0    0 -0.00000000000E+00 -0.00000000000E+00 -0.45593999997E+02  0.45594000000E+02  0.51100000000E-03 0. -1.
    9900012    2    1    2    0    0 -0.16719180590E+02  0.21236628125E+02  0.30375010161E+02  0.50528848312E+02  0.29999964928E+02 0.  0.
         12    1    1    2    0    0  0.16719180590E+02 -0.21236628125E+02 -0.30375010161E+02  0.40659151688E+02  0.00000000000E+00 0. -1.
         11    1    3    3    0    0  0.57045873248E+01  0.71037916860E+01  0.12560639597E+02  0.15516953316E+02  0.51100000000E-03 0. -1.
        -11    1    3    3    0    0  0.92140986218E+00  0.47568370787E+01  0.16952471707E+01  0.51332600128E+01  0.51100000000E-03 0.  1.
        -12    1    3    3    0    0 -0.23345177777E+02  0.93759993599E+01  0.16119123394E+02  0.29878634983E+02  0.00000000000E+00 0.  1.
</event>
<event>
 7    1  0.5642630E-013  0.5052886E+02  0.7816164E-02  0.1300439E+00
        -11   -1    0    0    0    0  0.00000000000E+00  0.00000000000E+00  0.45593999997E+02  0.45594000000E+02  0.51100000000E-03 0.  1.
         11   -1    0    0    0    0 -0.00000000000E+00 -0.00000000000E+00 -0.45593999997E+02  0.45594000000E+02  0.51100000000E-03 0. -1.
    9900012    2    1    2    0    0 -0.19120490563E+02 -0.12648397900E+02  0.33579613563E+02  0.50528861103E+02  0.30000003808E+02 0.  0.
         12    1    1    2    0    0  0.19120490563E+02  0.12648397900E+02 -0.33579613563E+02  0.40659138897E+02  0.00000000000E+00 0. -1.
         11    1    3    3    0    0  0.76680891279E+00 -0.38195816776E+01  0.52301652477E+01  0.65216431120E+01  0.51100000000E-03 0. -1.
        -11    1    3    3    0    0 -0.88362520327E+01 -0.13717046540E+02  0.39631092069E+01  0.16791156917E+02  0.51100000000E-03 0.  1.
        -12    1    3    3    0    0 -0.11051047443E+02  0.48882303180E+01  0.24386339109E+02  0.27216061073E+02  0.00000000000E+00 0.  1.
</event>
<event>
 7    1  0.5642630E-013  0.5052886E+02  0.7816164E-02  0.1300439E+00
        -11   -1    0    0    0    0  0.00000000000E+00  0.00000000000E+00  0.45593999997E+02  0.45594000000E+02  0.51100000000E-03 0.  1.
         11   -1    0    0    0    0 -0.00000000000E+00 -0.00000000000E+00 -0.45593999997E+02  0.45594000000E+02  0.51100000000E-03 0. -1.
    9900012    2    1    2    0    0 -0.83103635515E+00 -0.40294996895E+02 -0.53654759289E+01  0.50528859230E+02  0.29999998115E+02 0.  0.
         12    1    1    2    0    0  0.83103635515E+00  0.40294996895E+02  0.53654759289E+01  0.40659140770E+02  0.00000000000E+00 0. -1.
         11    1    3    3    0    0 -0.11295942973E+02 -0.18977819670E+02 -0.86132964511E+01  0.23705375827E+02  0.51100000000E-03 0. -1.
        -11    1    3    3    0    0  0.59580977349E+01 -0.16313101903E+01 -0.79283653460E+00  0.62280568067E+01  0.51100000000E-03 0.  1.
        -12    1    3    3    0    0  0.45068088831E+01 -0.19685867035E+02  0.40406570568E+01  0.20595426596E+02  0.00000000000E+00 0.  1.
</event>
<event>
 7    1  0.5642630E-013  0.5052891E+02  0.7816164E-02  0.1300439E+00
        -11   -1    0    0    0    0  0.00000000000E+00  0.00000000000E+00  0.45593999997E+02  0.45594000000E+02  0.51100000000E-03 0. -1.
         11   -1    0    0    0    0 -0.00000000000E+00 -0.00000000000E+00 -0.45593999997E+02  0.45594000000E+02  0.51100000000E-03 0.  1.
    9900012    2    1    2    0    0 -0.29445054353E+02  0.27232993555E+02  0.66719432834E+01  0.50528905187E+02  0.30000137807E+02 0.  0.
         12    1    1    2    0    0  0.29445054353E+02 -0.27232993555E+02 -0.66719432834E+01  0.40659094813E+02  0.00000000000E+00 0. -1.
         11    1    3    3    0    0 -0.97250393202E+00  0.21883214280E+00  0.67948593880E+00  0.12063800424E+01  0.51100000000E-03 0.  1.
        -11    1    3    3    0    0 -0.25066750543E+02  0.13010763414E+02 -0.78780388151E+01  0.29320392959E+02  0.51100000000E-03 0. -1.
         12    1    3    3    0    0 -0.34057998779E+01  0.14003397998E+02  0.13870496160E+02  0.20002132186E+02  0.00000000000E+00 0. -1.
</event>
<event>
 7    1  0.5642630E-013  0.5052886E+02  0.7816164E-02  0.1300439E+00
        -11   -1    0    0    0    0  0.00000000000E+00  0.00000000000E+00  0.45593999997E+02  0.45594000000E+02  0.51100000000E-03 0.  1.
         11   -1    0    0    0    0 -0.00000000000E+00 -0.00000000000E+00 -0.45593999997E+02  0.45594000000E+02  0.51100000000E-03 0. -1.
    9900012    2    1    2    0    0  0.30238196064E+02 -0.69162993780E+01  0.26286531783E+02  0.50528862632E+02  0.30000008457E+02 0.  0.
         12    1    1    2    0    0 -0.30238196064E+02  0.69162993780E+01 -0.26286531783E+02  0.40659137368E+02  0.00000000000E+00 0. -1.
         11    1    3    3    0    0  0.26913655284E+01  0.45153909717E+01  0.15335260946E+02  0.16211182331E+02  0.51100000000E-03 0. -1.
        -11    1    3    3    0    0  0.63637907071E+00  0.11306866667E+01 -0.16138170546E+01  0.20707091555E+01  0.51100000000E-03 0.  1.
        -12    1    3    3    0    0  0.26910451465E+02 -0.12562377016E+02  0.12565087892E+02  0.32246971146E+02  0.00000000000E+00 0.  1.
</event>
<event>
 7    1  0.5642630E-013  0.5052886E+02  0.7816164E-02  0.1300439E+00
        -11   -1    0    0    0    0  0.00000000000E+00  0.00000000000E+00  0.45593999997E+02  0.45594000000E+02  0.51100000000E-03 0.  1.
         11   -1    0    0    0    0 -0.00000000000E+00 -0.00000000000E+00 -0.45593999997E+02  0.45594000000E+02  0.51100000000E-03 0. -1.
    9900012    2    1    2    0    0  0.48382689921E+01  0.94290204279E+01  0.39253663092E+02  0.50528864013E+02  0.30000012653E+02 0.  0.
         12    1    1    2    0    0 -0.48382689921E+01 -0.94290204279E+01 -0.39253663092E+02  0.40659135987E+02  0.00000000000E+00 0. -1.
         11    1    3    3    0    0  0.95942806150E+01  0.70644348912E+00  0.34865537872E+02  0.36168425654E+02  0.51100000000E-03 0.  1.
        -11    1    3    3    0    0  0.25185497970E+01  0.31752397514E+00  0.52386644509E+00  0.25919781766E+01  0.51100000000E-03 0. -1.
         12    1    3    3    0    0 -0.72745614200E+01  0.84050529636E+01  0.38642587747E+01  0.11768460182E+02  0.00000000000E+00 0. -1.
</event>
<event>
 7    1  0.5642630E-013  0.5052887E+02  0.7816164E-02  0.1300439E+00
        -11   -1    0    0    0    0  0.00000000000E+00  0.00000000000E+00  0.45593999997E+02  0.45594000000E+02  0.51100000000E-03 0. -1.
         11   -1    0    0    0    0 -0.00000000000E+00 -0.00000000000E+00 -0.45593999997E+02  0.45594000000E+02  0.51100000000E-03 0.  1.
    9900012    2    1    2    0    0  0.84971109970E+00 -0.37900585960E+02 -0.14696556079E+02  0.50528865902E+02  0.30000018395E+02 0.  0.
         12    1    1    2    0    0 -0.84971109970E+00  0.37900585960E+02  0.14696556079E+02  0.40659134098E+02  0.00000000000E+00 0. -1.
         11    1    3    3    0    0 -0.55390625642E+01 -0.19869369410E+02 -0.32254563917E+01  0.20877658491E+02  0.51100000000E-03 0. -1.
        -11    1    3    3    0    0 -0.63099074874E+01 -0.37765557035E+01  0.49247747270E-01  0.73538922403E+01  0.51100000000E-03 0.  1.
         12    1    3    3    0    0  0.12698681151E+02 -0.14254660846E+02 -0.11520347434E+02  0.22297315171E+02  0.00000000000E+00 0. -1.
</event>
<event>
 7    1  0.5642630E-013  0.5052886E+02  0.7816164E-02  0.1300439E+00
        -11   -1    0    0    0    0  0.00000000000E+00  0.00000000000E+00  0.45593999997E+02  0.45594000000E+02  0.51100000000E-03 0. -1.
         11   -1    0    0    0    0 -0.00000000000E+00 -0.00000000000E+00 -0.45593999997E+02  0.45594000000E+02  0.51100000000E-03 0.  1.
    9900012    2    1    2    0    0  0.15141900132E+02  0.30739619387E+01 -0.37609031463E+02  0.50528860447E+02  0.30000001814E+02 0.  0.
         12    1    1    2    0    0 -0.15141900132E+02 -0.30739619387E+01  0.37609031463E+02  0.40659139553E+02  0.00000000000E+00 0. -1.
         11    1    3    3    0    0  0.43260167144E+01 -0.48886457469E+01  0.79390487355E+00  0.65759838094E+01  0.51100000000E-03 0. -1.
        -11    1    3    3    0    0  0.94459959392E+01 -0.13272925427E+01 -0.91044714011E+01  0.13186354482E+02  0.51100000000E-03 0.  1.
        -12    1    3    3    0    0  0.13698874788E+01  0.92899002284E+01 -0.29298464935E+02  0.30766522155E+02  0.00000000000E+00 0.  1.
</event>
<event>
 7    1  0.5642630E-013  0.5052889E+02  0.7816164E-02  0.1300439E+00
        -11   -1    0    0    0    0  0.00000000000E+00  0.00000000000E+00  0.45593999997E+02  0.45594000000E+02  0.51100000000E-03 0. -1.
         11   -1    0    0    0    0 -0.00000000000E+00 -0.00000000000E+00 -0.45593999997E+02  0.45594000000E+02  0.51100000000E-03 0.  1.
    9900012    2    1    2    0    0  0.22784387505E+02 -0.30044721162E+02 -0.15210177312E+02  0.50528891825E+02  0.30000097192E+02 0.  0.
         12    1    1    2    0    0 -0.22784387505E+02  0.30044721162E+02  0.15210177312E+02  0.40659108175E+02  0.00000000000E+00 0. -1.
         11    1    3    3    0    0  0.46678320164E+01 -0.39770581362E+01  0.46900694392E+00  0.61502532409E+01  0.51100000000E-03 0. -1.
        -11    1    3    3    0    0  0.22302728355E+02 -0.26461742948E+02 -0.18571587384E+02  0.39275175240E+02  0.51100000000E-03 0.  1.
         12    1    3    3    0    0 -0.41861728661E+01  0.39407992179E+00  0.28924031281E+01  0.51034633441E+01  0.00000000000E+00 0. -1.
</event>
<event>
 7    1  0.5642630E-013  0.5052886E+02  0.7816164E-02  0.1300439E+00
        -11   -1    0    0    0    0  0.00000000000E+00  0.00000000000E+00  0.45593999997E+02  0.45594000000E+02  0.51100000000E-03 0.  1.
         11   -1    0    0    0    0 -0.00000000000E+00 -0.00000000000E+00 -0.45593999997E+02  0.45594000000E+02  0.51100000000E-03 0. -1.
    9900012    2    1    2    0    0  0.11963229982E+02  0.12062471290E+02  0.36939732846E+02  0.50528856527E+02  0.29999989900E+02 0.  0.
         12    1    1    2    0    0 -0.11963229982E+02 -0.12062471290E+02 -0.36939732846E+02  0.40659143473E+02  0.00000000000E+00 0. -1.
         11    1    3    3    0    0 -0.32181790875E+01  0.11210723445E+02  0.17169458347E+02  0.20756379669E+02  0.51100000000E-03 0. -1.
        -11    1    3    3    0    0  0.89011710237E+01 -0.16335384316E+00  0.21423308510E+02  0.23199475809E+02  0.51100000000E-03 0.  1.
        -12    1    3    3    0    0  0.62802380453E+01  0.10151016888E+01 -0.16530340104E+01  0.65730010485E+01  0.00000000000E+00 0.  1.
</event>
<event>
 7    1  0.5642630E-013  0.5052886E+02  0.7816164E-02  0.1300439E+00
        -11   -1    0    0    0    0  0.00000000000E+00  0.00000000000E+00  0.45593999997E+02  0.45594000000E+02  0.51100000000E-03 0. -1.
         11   -1    0    0    0    0 -0.00000000000E+00 -0.00000000000E+00 -0.45593999997E+02  0.45594000000E+02  0.51100000000E-03 0.  1.
    9900012    2    1    2    0    0  0.12376867356E+02  0.26265420427E+02  0.28462376685E+02  0.50528855367E+02  0.29999986375E+02 0.  0.
         12    1    1    2    0    0 -0.12376867356E+02 -0.26265420427E+02 -0.28462376685E+02  0.40659144633E+02  0.00000000000E+00 0. -1.
         11    1    3    3    0    0 -0.21754472992E+01  0.23625963737E+01 -0.17250698667E+01  0.36455862194E+01  0.51100000000E-03 0. -1.
        -11    1    3    3    0    0  0.26819597736E+01  0.17326825713E+02  0.49331038522E+01  0.18213931794E+02  0.51100000000E-03 0.  1.
        -12    1    3    3    0    0  0.11870354882E+02  0.65759983401E+01  0.25254342699E+02  0.28669337354E+02  0.00000000000E+00 0.  1.
</event>
<event>
 7    1  0.5642630E-013  0.5052889E+02  0.7816164E-02  0.1300439E+00
        -11   -1    0    0    0    0  0.00000000000E+00  0.00000000000E+00  0.45593999997E+02  0.45594000000E+02  0.51100000000E-03 0. -1.
         11   -1    0    0    0    0 -0.00000000000E+00 -0.00000000000E+00 -0.45593999997E+02  0.45594000000E+02  0.51100000000E-03 0.  1.
    9900012    2    1    2    0    0  0.39054474221E+02 -0.74141215155E+01  0.85405914933E+01  0.50528894530E+02  0.30000105413E+02 0.  0.
         12    1    1    2    0    0 -0.39054474221E+02  0.74141215155E+01 -0.85405914933E+01  0.40659105470E+02  0.00000000000E+00 0. -1.
         11    1    3    3    0    0  0.59494721820E+01 -0.66000744653E+01  0.25707417748E+01  0.92501846320E+01  0.51100000000E-03 0. -1.
        -11    1    3    3    0    0 -0.13712494295E+00 -0.65200036294E+01 -0.15924172196E+01  0.67130502336E+01  0.51100000000E-03 0.  1.
         12    1    3    3    0    0  0.33242126982E+02  0.57059565791E+01  0.75622669381E+01  0.34565659664E+02  0.00000000000E+00 0. -1.
</event>
<event>
 7    1  0.5642630E-013  0.5052886E+02  0.7816164E-02  0.1300439E+00
        -11   -1    0    0    0    0  0.00000000000E+00  0.00000000000E+00  0.45593999997E+02  0.45594000000E+02  0.51100000000E-03 0.  1.
         11   -1    0    0    0    0 -0.00000000000E+00 -0.00000000000E+00 -0.45593999997E+02  0.45594000000E+02  0.51100000000E-03 0. -1.
    9900012    2    1    2    0    0 -0.40243174732E+02 -0.50934762328E+01  0.27765759515E+01  0.50528856051E+02  0.29999988454E+02 0.  0.
         12    1    1    2    0    0  0.40243174732E+02  0.50934762328E+01 -0.27765759515E+01  0.40659143949E+02  0.00000000000E+00 0. -1.
         11    1    3    3    0    0 -0.21200809117E+02 -0.34646873888E+01 -0.10398654973E+02  0.23866511924E+02  0.51100000000E-03 0. -1.
        -11    1    3    3    0    0  0.32155456562E-01  0.32692301968E+01  0.67980494962E+00  0.33393165594E+01  0.51100000000E-03 0.  1.
        -12    1    3    3    0    0 -0.19074521071E+02 -0.48980190408E+01  0.12495425975E+02  0.23323027568E+02  0.00000000000E+00 0.  1.
</event>
<event>
 7    1  0.5642630E-013  0.5052886E+02  0.7816164E-02  0.1300439E+00
        -11   -1    0    0    0    0  0.00000000000E+00  0.00000000000E+00  0.45593999997E+02  0.45594000000E+02  0.51100000000E-03 0.  1.
         11   -1    0    0    0    0 -0.00000000000E+00 -0.00000000000E+00 -0.45593999997E+02  0.45594000000E+02  0.51100000000E-03 0. -1.
    9900012    2    1    2    0    0  0.37276147276E+01 -0.18087349164E+02  0.36223174396E+02  0.50528859888E+02  0.30000000115E+02 0.  0.
         12    1    1    2    0    0 -0.37276147276E+01  0.18087349164E+02 -0.36223174396E+02  0.40659140112E+02  0.00000000000E+00 0. -1.
         11    1    3    3    0    0 -0.26085611022E+00  0.56037978032E+01  0.12859630773E+02  0.14029992859E+02  0.51100000000E-03 0. -1.
        -11    1    3    3    0    0  0.19604563204E+01  0.16636768817E+01  0.16463413370E+01  0.30531376991E+01  0.51100000000E-03 0.  1.
        -12    1    3    3    0    0  0.20280145174E+01 -0.25354823849E+02  0.21717202286E+02  0.33445729330E+02  0.00000000000E+00 0.  1.
</event>
<event>
 7    1  0.5642630E-013  0.5052886E+02  0.7816164E-02  0.1300439E+00
        -11   -1    0    0    0    0  0.00000000000E+00  0.00000000000E+00  0.45593999997E+02  0.45594000000E+02  0.51100000000E-03 0.  1.
         11   -1    0    0    0    0 -0.00000000000E+00 -0.00000000000E+00 -0.45593999997E+02  0.45594000000E+02  0.51100000000E-03 0. -1.
    9900012    2    1    2    0    0  0.40543923371E+02  0.46421761546E+00  0.30233056322E+01  0.50528860840E+02  0.30000003010E+02 0.  0.
         12    1    1    2    0    0 -0.40543923371E+02 -0.46421761546E+00 -0.30233056322E+01  0.40659139160E+02  0.00000000000E+00 0. -1.
         11    1    3    3    0    0  0.46861953326E+01 -0.24326920082E+01 -0.19805048724E+01  0.56392213038E+01  0.51100000000E-03 0. -1.
        -11    1    3    3    0    0  0.38785704953E+02 -0.18847311310E+01  0.30459322214E+01  0.38950748690E+02  0.51100000000E-03 0.  1.
         12    1    3    3    0    0 -0.29279769148E+01  0.47816407546E+01  0.19578782832E+01  0.59388908469E+01  0.00000000000E+00 0. -1.
</event>
<event>
 7    1  0.5642630E-013  0.5052886E+02  0.7816164E-02  0.1300439E+00
        -11   -1    0    0    0    0  0.00000000000E+00  0.00000000000E+00  0.45593999997E+02  0.45594000000E+02  0.51100000000E-03 0.  1.
         11   -1    0    0    0    0 -0.00000000000E+00 -0.00000000000E+00 -0.45593999997E+02  0.45594000000E+02  0.51100000000E-03 0. -1.
    9900012    2    1    2    0    0 -0.34173668314E+02 -0.21957442178E+02 -0.17880110865E+01  0.50528857650E+02  0.29999993311E+02 0.  0.
         12    1    1    2    0    0  0.34173668314E+02  0.21957442178E+02  0.17880110865E+01  0.40659142350E+02  0.00000000000E+00 0. -1.
         11    1    3    3    0    0 -0.89411023490E+01 -0.93555259760E+01 -0.63414496380E+01  0.14411216509E+02  0.51100000000E-03 0. -1.
        -11    1    3    3    0    0  0.22758074401E+01 -0.16575225553E+01 -0.43682823244E+01  0.51969771263E+01  0.51100000000E-03 0.  1.
        -12    1    3    3    0    0 -0.27508373405E+02 -0.10944393647E+02  0.89217208759E+01  0.30920664014E+02  0.00000000000E+00 0.  1.
</event>
<event>
 7    1  0.5642630E-013  0.5052889E+02  0.7816164E-02  0.1300439E+00
        -11   -1    0    0    0    0  0.00000000000E+00  0.00000000000E+00  0.45593999997E+02  0.45594000000E+02  0.51100000000E-03 0. -1.
         11   -1    0    0    0    0 -0.00000000000E+00 -0.00000000000E+00 -0.45593999997E+02  0.45594000000E+02  0.51100000000E-03 0.  1.
    9900012    2    1    2    0    0  0.50484428756E+01  0.40018742488E+02  0.51163566290E+01  0.50528885020E+02  0.30000076507E+02 0.  0.
         12    1    1    2    0    0 -0.50484428756E+01 -0.40018742488E+02 -0.51163566290E+01  0.40659114980E+02  0.00000000000E+00 0. -1.
         11    1    3    3    0    0  0.10571689314E+01  0.16322423646E+02  0.63739420817E+01  0.17554664843E+02  0.51100000000E-03 0. -1.
        -11    1    3    3    0    0  0.74287475226E+01  0.21293292513E+02  0.70833199454E+01  0.23638189811E+02  0.51100000000E-03 0.  1.
         12    1    3    3    0    0 -0.34374735784E+01  0.24030263287E+01 -0.83409053981E+01  0.93360303662E+01  0.00000000000E+00 0. -1.
</event>
<event>
 7    1  0.5642630E-013  0.5052886E+02  0.7816164E-02  0.1300439E+00
        -11   -1    0    0    0    0  0.00000000000E+00  0.00000000000E+00  0.45593999997E+02  0.45594000000E+02  0.51100000000E-03 0.  1.
         11   -1    0    0    0    0 -0.00000000000E+00 -0.00000000000E+00 -0.45593999997E+02  0.45594000000E+02  0.51100000000E-03 0. -1.
    9900012    2    1    2    0    0  0.56084820402E+01 -0.67155317600E+01  0.39706571560E+02  0.50528864954E+02  0.30000015514E+02 0.  0.
         12    1    1    2    0    0 -0.56084820402E+01  0.67155317600E+01 -0.39706571560E+02  0.40659135046E+02  0.00000000000E+00 0. -1.
         11    1    3    3    0    0 -0.64339505221E+00 -0.24355056562E+01  0.46423229278E-01  0.25194841480E+01  0.51100000000E-03 0. -1.
        -11    1    3    3    0    0 -0.62737545649E+01 -0.10975449191E+02  0.15713669046E+02  0.20167793048E+02  0.51100000000E-03 0.  1.
        -12    1    3    3    0    0  0.12525631657E+02  0.66954230868E+01  0.23946479286E+02  0.27841587758E+02  0.00000000000E+00 0.  1.
</event>
<event>
 7    1  0.5642630E-013  0.5052885E+02  0.7816164E-02  0.1300439E+00
        -11   -1    0    0    0    0  0.00000000000E+00  0.00000000000E+00  0.45593999997E+02  0.45594000000E+02  0.51100000000E-03 0.  1.
         11   -1    0    0    0    0 -0.00000000000E+00 -0.00000000000E+00 -0.45593999997E+02  0.45594000000E+02  0.51100000000E-03 0. -1.
    9900012    2    1    2    0    0  0.86627679658E+01  0.26706964389E+02  0.29408523062E+02  0.50528846979E+02  0.29999960877E+02 0.  0.
         12    1    1    2    0    0 -0.86627679658E+01 -0.26706964389E+02 -0.29408523062E+02  0.40659153021E+02  0.00000000000E+00 0. -1.
         11    1    3    3    0    0 -0.11422220356E+01  0.81583229499E+01  0.14427457104E+02  0.16613681810E+02  0.51100000000E-03 0. -1.
        -11    1    3    3    0    0 -0.61513478146E+01  0.11021690393E+02  0.79870817826E+01  0.14936874329E+02  0.51100000000E-03 0.  1.
         12    1    3    3    0    0  0.15956337816E+02  0.75269510455E+01  0.69939841750E+01  0.18978290839E+02  0.00000000000E+00 0. -1.
</event>
<event>
 7    1  0.5642630E-013  0.5052886E+02  0.7816164E-02  0.1300439E+00
        -11   -1    0    0    0    0  0.00000000000E+00  0.00000000000E+00  0.45593999997E+02  0.45594000000E+02  0.51100000000E-03 0.  1.
         11   -1    0    0    0    0 -0.00000000000E+00 -0.00000000000E+00 -0.45593999997E+02  0.45594000000E+02  0.51100000000E-03 0. -1.
    9900012    2    1    2    0    0 -0.26227066043E+02 -0.21008541883E+02  0.22889904303E+02  0.50528861491E+02  0.30000004988E+02 0.  0.
         12    1    1    2    0    0  0.26227066043E+02  0.21008541883E+02 -0.22889904303E+02  0.40659138509E+02  0.00000000000E+00 0. -1.
         11    1    3    3    0    0 -0.25122310058E+02 -0.22725663458E+02  0.20473879569E+02  0.39582394914E+02  0.51100000000E-03 0.  1.
        -11    1    3    3    0    0 -0.28346587002E+01 -0.12540144289E+01  0.55094811166E+01  0.63215682049E+01  0.51100000000E-03 0. -1.
         12    1    3    3    0    0  0.17299027146E+01  0.29711360044E+01 -0.30934563827E+01  0.46248983719E+01  0.00000000000E+00 0. -1.
</event>
<event>
 7    1  0.5642630E-013  0.5052886E+02  0.7816164E-02  0.1300439E+00
        -11   -1    0    0    0    0  0.00000000000E+00  0.00000000000E+00  0.45593999997E+02  0.45594000000E+02  0.51100000000E-03 0. -1.
         11   -1    0    0    0    0 -0.00000000000E+00 -0.00000000000E+00 -0.45593999997E+02  0.45594000000E+02  0.51100000000E-03 0.  1.
    9900012    2    1    2    0    0  0.22588797327E+01 -0.38156548535E+02 -0.13861483170E+02  0.50528862657E+02  0.30000008533E+02 0.  0.
         12    1    1    2    0    0 -0.22588797327E+01  0.38156548535E+02  0.13861483170E+02  0.40659137343E+02  0.00000000000E+00 0. -1.
         11    1    3    3    0    0  0.34232838284E+01 -0.90724852104E+01 -0.77924741186E+01  0.12439916126E+02  0.51100000000E-03 0. -1.
        -11    1    3    3    0    0  0.60454037416E+01 -0.28561951327E+02 -0.85917212193E+01  0.30432706810E+02  0.51100000000E-03 0.  1.
         12    1    3    3    0    0 -0.72098078373E+01 -0.52211199765E+00  0.25227121677E+01  0.76562397213E+01  0.00000000000E+00 0. -1.
</event>
<event>
 7    1  0.5642630E-013  0.5052887E+02  0.7816164E-02  0.1300439E+00
        -11   -1    0    0    0    0  0.00000000000E+00  0.00000000000E+00  0.45593999997E+02  0.45594000000E+02  0.51100000000E-03 0. -1.
         11   -1    0    0    0    0 -0.00000000000E+00 -0.00000000000E+00 -0.45593999997E+02  0.45594000000E+02  0.51100000000E-03 0.  1.
    9900012    2    1    2    0    0 -0.95377276936E+01  0.34699004939E+02 -0.18925538270E+02  0.50528865822E+02  0.30000018152E+02 0.  0.
         12    1    1    2    0    0  0.95377276936E+01 -0.34699004939E+02  0.18925538270E+02  0.40659134178E+02  0.00000000000E+00 0. -1.
         11    1    3    3    0    0 -0.29117286595E+01  0.17610503434E+02 -0.17375113523E+02  0.24909888903E+02  0.51100000000E-03 0. -1.
        -11    1    3    3    0    0 -0.45855939727E+01  0.15692579355E+01 -0.74529505608E+01  0.88902595504E+01  0.51100000000E-03 0.  1.
         12    1    3    3    0    0 -0.20404050615E+01  0.15519243570E+02  0.59025258139E+01  0.16728717368E+02  0.00000000000E+00 0. -1.
</event>
<event>
 7    1  0.5642630E-013  0.5052886E+02  0.7816164E-02  0.1300439E+00
        -11   -1    0    0    0    0  0.00000000000E+00  0.00000000000E+00  0.45593999997E+02  0.45594000000E+02  0.51100000000E-03 0.  1.
         11   -1    0    0    0    0 -0.00000000000E+00 -0.00000000000E+00 -0.45593999997E+02  0.45594000000E+02  0.51100000000E-03 0. -1.
    9900012    2    1    2    0    0 -0.85883778463E+01  0.36131461635E+02  0.16550606580E+02  0.50528864101E+02  0.30000012921E+02 0.  0.
         12    1    1    2    0    0  0.85883778463E+01 -0.36131461635E+02 -0.16550606580E+02  0.40659135899E+02  0.00000000000E+00 0. -1.
         11    1    3    3    0    0 -0.59946912243E+01  0.21402546518E+02 -0.12522325886E+01  0.22261478096E+02  0.51100000000E-03 0. -1.
        -11    1    3    3    0    0 -0.19100062700E+01  0.24845927084E+01 -0.28578207910E+01  0.42412810344E+01  0.51100000000E-03 0.  1.
        -12    1    3    3    0    0 -0.68368035199E+00  0.12244322409E+02  0.20660659959E+02  0.24026104970E+02  0.00000000000E+00 0.  1.
</event>
<event>
 7    1  0.5642630E-013  0.5052886E+02  0.7816164E-02  0.1300439E+00
        -11   -1    0    0    0    0  0.00000000000E+00  0.00000000000E+00  0.45593999997E+02  0.45594000000E+02  0.51100000000E-03 0.  1.
         11   -1    0    0    0    0 -0.00000000000E+00 -0.00000000000E+00 -0.45593999997E+02  0.45594000000E+02  0.51100000000E-03 0. -1.
    9900012    2    1    2    0    0 -0.15361483641E+02 -0.36738004094E+02  0.82164079329E+01  0.50528862236E+02  0.30000007251E+02 0.  0.
         12    1    1    2    0    0  0.15361483641E+02  0.36738004094E+02 -0.82164079329E+01  0.40659137764E+02  0.00000000000E+00 0. -1.
         11    1    3    3    0    0 -0.56929719965E+01  0.24310532768E+01  0.41394622739E+00  0.62041358728E+01  0.51100000000E-03 0. -1.
        -11    1    3    3    0    0  0.19638451883E+01 -0.13926177071E+01  0.39298047882E+01  0.46086264696E+01  0.51100000000E-03 0.  1.
         12    1    3    3    0    0 -0.11632356833E+02 -0.37776439663E+02  0.38726569173E+01  0.39716099893E+02  0.00000000000E+00 0. -1.
</event>
<event>
 7    1  0.5642630E-013  0.5052886E+02  0.7816164E-02  0.1300439E+00
        -11   -1    0    0    0    0  0.00000000000E+00  0.00000000000E+00  0.45593999997E+02  0.45594000000E+02  0.51100000000E-03 0.  1.
         11   -1    0    0    0    0 -0.00000000000E+00 -0.00000000000E+00 -0.45593999997E+02  0.45594000000E+02  0.51100000000E-03 0. -1.
    9900012    2    1    2    0    0  0.40274694815E+02 -0.19640043784E+01 -0.52208508263E+01  0.50528860327E+02  0.30000001450E+02 0.  0.
         12    1    1    2    0    0 -0.40274694815E+02  0.19640043784E+01  0.52208508263E+01  0.40659139673E+02  0.00000000000E+00 0. -1.
         11    1    3    3    0    0  0.16383141131E+02 -0.30143064164E+01  0.15470130840E+01  0.16729811901E+02  0.51100000000E-03 0. -1.
        -11    1    3    3    0    0  0.24512936474E+02  0.83117381151E+00  0.23665235283E+01  0.24640928115E+02  0.51100000000E-03 0.  1.
         12    1    3    3    0    0 -0.62138279084E+00  0.21912822649E+00 -0.91343874386E+01  0.91581203110E+01  0.00000000000E+00 0. -1.
</event>
<event>
 7    1  0.5642630E-013  0.5052887E+02  0.7816164E-02  0.1300439E+00
        -11   -1    0    0    0    0  0.00000000000E+00  0.00000000000E+00  0.45593999997E+02  0.45594000000E+02  0.51100000000E-03 0.  1.
         11   -1    0    0    0    0 -0.00000000000E+00 -0.00000000000E+00 -0.45593999997E+02  0.45594000000E+02  0.51100000000E-03 0. -1.
    9900012    2    1    2    0    0 -0.68430822968E+01  0.35020852379E+02  0.19490437744E+02  0.50528867691E+02  0.30000023834E+02 0.  0.
         12    1    1    2    0    0  0.68430822968E+01 -0.35020852379E+02 -0.19490437744E+02  0.40659132309E+02  0.00000000000E+00 0. -1.
         11    1    3    3    0    0  0.10305215850E+01 -0.30808015468E+01 -0.17755766477E+01  0.37021595860E+01  0.51100000000E-03 0. -1.
        -11    1    3    3    0    0  0.19265758693E+01  0.37899154896E+01 -0.14893158515E+01  0.45047992148E+01  0.51100000000E-03 0.  1.
        -12    1    3    3    0    0 -0.98001797511E+01  0.34311738436E+02  0.22755330243E+02  0.42321908890E+02  0.00000000000E+00 0.  1.
</event>
<event>
 7    1  0.5642630E-013  0.5052886E+02  0.7816164E-02  0.1300439E+00
        -11   -1    0    0    0    0  0.00000000000E+00  0.00000000000E+00  0.45593999997E+02  0.45594000000E+02  0.51100000000E-03 0.  1.
         11   -1    0    0    0    0 -0.00000000000E+00 -0.00000000000E+00 -0.45593999997E+02  0.45594000000E+02  0.51100000000E-03 0. -1.
    9900012    2    1    2    0    0  0.55478670852E+01  0.13197367101E+01  0.40257234031E+02  0.50528862945E+02  0.30000009409E+02 0.  0.
         12    1    1    2    0    0 -0.55478670852E+01 -0.13197367101E+01 -0.40257234031E+02  0.40659137055E+02  0.00000000000E+00 0. -1.
         11    1    3    3    0    0 -0.46546264628E+01 -0.27934679378E+01  0.51608875034E+01  0.74902450368E+01  0.51100000000E-03 0. -1.
        -11    1    3    3    0    0  0.15241056428E+02  0.39890868760E+01  0.13151099917E+02  0.20522038019E+02  0.51100000000E-03 0.  1.
         12    1    3    3    0    0 -0.50385628803E+01  0.12411777182E+00  0.21945246611E+02  0.22516579890E+02  0.00000000000E+00 0. -1.
</event>
<event>
 7    1  0.5642630E-013  0.5052887E+02  0.7816164E-02  0.1300439E+00
        -11   -1    0    0    0    0  0.00000000000E+00  0.00000000000E+00  0.45593999997E+02  0.45594000000E+02  0.51100000000E-03 0.  1.
         11   -1    0    0    0    0 -0.00000000000E+00 -0.00000000000E+00 -0.45593999997E+02  0.45594000000E+02  0.51100000000E-03 0. -1.
    9900012    2    1    2    0    0 -0.20520071704E+01 -0.22613299950E+02  0.33728224582E+02  0.50528865706E+02  0.30000017801E+02 0.  0.
         12    1    1    2    0    0  0.20520071704E+01  0.22613299950E+02 -0.33728224582E+02  0.40659134294E+02  0.00000000000E+00 0. -1.
         11    1    3    3    0    0  0.53495366688E+01 -0.30170179717E+00  0.94466699775E+01  0.10860393201E+02  0.51100000000E-03 0. -1.
        -11    1    3    3    0    0 -0.92847419098E+01 -0.31579788378E+00  0.69733375357E+01  0.11616092169E+02  0.51100000000E-03 0.  1.
        -12    1    3    3    0    0  0.18831980706E+01 -0.21995800269E+02  0.17308217069E+02  0.28052380337E+02  0.00000000000E+00 0.  1.
</event>
<event>
 7    1  0.5642630E-013  0.5052886E+02  0.7816164E-02  0.1300439E+00
        -11   -1    0    0    0    0  0.00000000000E+00  0.00000000000E+00  0.45593999997E+02  0.45594000000E+02  0.51100000000E-03 0.  1.
         11   -1    0    0    0    0 -0.00000000000E+00 -0.00000000000E+00 -0.45593999997E+02  0.45594000000E+02  0.51100000000E-03 0. -1.
    9900012    2    1    2    0    0  0.11954135472E+02 -0.40378357041E+01  0.38651776518E+02  0.50528864494E+02  0.30000014117E+02 0.  0.
         12    1    1    2    0    0 -0.11954135472E+02  0.40378357041E+01 -0.38651776518E+02  0.40659135506E+02  0.00000000000E+00 0. -1.
         11    1    3    3    0    0 -0.78398892511E+01  0.31843973546E+01  0.60143648334E+01  0.10381562242E+02  0.51100000000E-03 0. -1.
        -11    1    3    3    0    0  0.44018108015E+01  0.21509733806E+01  0.10614205743E+02  0.11690337404E+02  0.51100000000E-03 0.  1.
         12    1    3    3    0    0  0.15392213921E+02 -0.93732064394E+01  0.22023205942E+02  0.28456964848E+02  0.00000000000E+00 0. -1.
</event>
<event>
 7    1  0.5642630E-013  0.5052887E+02  0.7816164E-02  0.1300439E+00
        -11   -1    0    0    0    0  0.00000000000E+00  0.00000000000E+00  0.45593999997E+02  0.45594000000E+02  0.51100000000E-03 0.  1.
         11   -1    0    0    0    0 -0.00000000000E+00 -0.00000000000E+00 -0.45593999997E+02  0.45594000000E+02  0.51100000000E-03 0. -1.
    9900012    2    1    2    0    0 -0.31836281367E+02  0.22195466615E+02 -0.12123427666E+02  0.50528867595E+02  0.30000023542E+02 0.  0.
         12    1    1    2    0    0  0.31836281367E+02 -0.22195466615E+02  0.12123427666E+02  0.40659132405E+02  0.00000000000E+00 0. -1.
         11    1    3    3    0    0 -0.20756156645E+02  0.10547634120E+02 -0.55317625640E+01  0.23930545784E+02  0.51100000000E-03 0. -1.
        -11    1    3    3    0    0 -0.15986690444E+02  0.72232405147E+01 -0.40568619541E+00  0.17547480060E+02  0.51100000000E-03 0.  1.
         12    1    3    3    0    0  0.49065657221E+01  0.44245919806E+01 -0.61859789061E+01  0.90508417512E+01  0.00000000000E+00 0. -1.
</event>
<event>
 7    1  0.5642630E-013  0.5052889E+02  0.7816164E-02  0.1300439E+00
        -11   -1    0    0    0    0  0.00000000000E+00  0.00000000000E+00  0.45593999997E+02  0.45594000000E+02  0.51100000000E-03 0. -1.
         11   -1    0    0    0    0 -0.00000000000E+00 -0.00000000000E+00 -0.45593999997E+02  0.45594000000E+02  0.51100000000E-03 0.  1.
    9900012    2    1    2    0    0  0.30567603463E+02  0.22678121209E+02  0.14299926740E+02  0.50528887026E+02  0.30000082604E+02 0.  0.
         12    1    1    2    0    0 -0.30567603463E+02 -0.22678121209E+02 -0.14299926740E+02  0.40659112974E+02  0.00000000000E+00 0. -1.
         11    1    3    3    0    0  0.36482845665E+01 -0.13065114249E+01  0.36003774940E+01  0.52895813390E+01  0.51100000000E-03 0. -1.
        -11    1    3    3    0    0  0.41255910206E+01  0.14066858468E+02 -0.54010220979E+01  0.15622677376E+02  0.51100000000E-03 0.  1.
         12    1    3    3    0    0  0.22793727876E+02  0.99177741664E+01  0.16100571344E+02  0.29616628311E+02  0.00000000000E+00 0. -1.
</event>
<event>
 7    1  0.5642630E-013  0.5052885E+02  0.7816164E-02  0.1300439E+00
        -11   -1    0    0    0    0  0.00000000000E+00  0.00000000000E+00  0.45593999997E+02  0.45594000000E+02  0.51100000000E-03 0.  1.
         11   -1    0    0    0    0 -0.00000000000E+00 -0.00000000000E+00 -0.45593999997E+02  0.45594000000E+02  0.51100000000E-03 0. -1.
    9900012    2    1    2    0    0  0.17466541229E+02  0.13752734052E+02  0.34043332777E+02  0.50528852653E+02  0.29999978123E+02 0.  0.
         12    1    1    2    0    0 -0.17466541229E+02 -0.13752734052E+02 -0.34043332777E+02  0.40659147347E+02  0.00000000000E+00 0. -1.
         11    1    3    3    0    0  0.31147406875E+01  0.13804512529E+02  0.46228043904E+01  0.14887461046E+02  0.51100000000E-03 0. -1.
        -11    1    3    3    0    0 -0.34730227036E+00  0.46177129453E+01  0.80473891191E+01  0.92846305047E+01  0.51100000000E-03 0.  1.
        -12    1    3    3    0    0  0.14699102812E+02 -0.46694914219E+01  0.21373139268E+02  0.26356761102E+02  0.00000000000E+00 0.  1.
</event>
<event>
 7    1  0.5642630E-013  0.5052886E+02  0.7816164E-02  0.1300439E+00
        -11   -1    0    0    0    0  0.00000000000E+00  0.00000000000E+00  0.45593999997E+02  0.45594000000E+02  0.51100000000E-03 0. -1.
         11   -1    0    0    0    0 -0.00000000000E+00 -0.00000000000E+00 -0.45593999997E+02  0.45594000000E+02  0.51100000000E-03 0.  1.
    9900012    2    1    2    0    0  0.88434332075E+01 -0.30123242777E+02 -0.25836981979E+02  0.50528859526E+02  0.29999999015E+02 0.  0.
         12    1    1    2    0    0 -0.88434332075E+01  0.30123242777E+02  0.25836981979E+02  0.40659140474E+02  0.00000000000E+00 0. -1.
         11    1    3    3    0    0  0.36754312524E+01 -0.15105446529E+02  0.63555474560E-01  0.15546296963E+02  0.51100000000E-03 0. -1.
        -11    1    3    3    0    0 -0.61260397972E+00  0.37575053616E+01 -0.33085488992E+01  0.50438701666E+01  0.51100000000E-03 0.  1.
        -12    1    3    3    0    0  0.57806059348E+01 -0.18775301610E+02 -0.22591988555E+02  0.29938692396E+02  0.00000000000E+00 0.  1.
</event>
<event>
 7    1  0.5642630E-013  0.5052884E+02  0.7816164E-02  0.1300439E+00
        -11   -1    0    0    0    0  0.00000000000E+00  0.00000000000E+00  0.45593999997E+02  0.45594000000E+02  0.51100000000E-03 0.  1.
         11   -1    0    0    0    0 -0.00000000000E+00 -0.00000000000E+00 -0.45593999997E+02  0.45594000000E+02  0.51100000000E-03 0. -1.
    9900012    2    1    2    0    0 -0.23170473961E+01  0.31735422021E+02  0.25311294053E+02  0.50528839579E+02  0.29999938385E+02 0.  0.
         12    1    1    2    0    0  0.23170473961E+01 -0.31735422021E+02 -0.25311294053E+02  0.40659160421E+02  0.00000000000E+00 0. -1.
         11    1    3    3    0    0  0.14953466406E+01 -0.35258007674E+01  0.19103865579E+01  0.42798258947E+01  0.51100000000E-03 0. -1.
        -11    1    3    3    0    0 -0.97647951860E+01  0.13273873863E+02  0.58256951732E+01  0.17478148553E+02  0.51100000000E-03 0.  1.
        -12    1    3    3    0    0  0.59524011493E+01  0.21987348926E+02  0.17575212322E+02  0.28770865131E+02  0.00000000000E+00 0.  1.
</event>
<event>
 7    1  0.5642630E-013  0.5052887E+02  0.7816164E-02  0.1300439E+00
        -11   -1    0    0    0    0  0.00000000000E+00  0.00000000000E+00  0.45593999997E+02  0.45594000000E+02  0.51100000000E-03 0. -1.
         11   -1    0    0    0    0 -0.00000000000E+00 -0.00000000000E+00 -0.45593999997E+02  0.45594000000E+02  0.51100000000E-03 0.  1.
    9900012    2    1    2    0    0  0.38582006292E+02  0.12590505257E+01  0.12767474915E+02  0.50528870232E+02  0.30000031558E+02 0.  0.
         12    1    1    2    0    0 -0.38582006292E+02 -0.12590505257E+01 -0.12767474915E+02  0.40659129768E+02  0.00000000000E+00 0. -1.
         11    1    3    3    0    0  0.81941716266E+01  0.76261021726E+00 -0.53125968242E+01  0.97953921957E+01  0.51100000000E-03 0. -1.
        -11    1    3    3    0    0  0.26466444567E+02 -0.75679723692E+01  0.13302909556E+02  0.30573097597E+02  0.51100000000E-03 0.  1.
         12    1    3    3    0    0  0.39213900990E+01  0.80644126776E+01  0.47771621832E+01  0.10160380439E+02  0.00000000000E+00 0. -1.
</event>
<event>
 7    1  0.5642630E-013  0.5052886E+02  0.7816164E-02  0.1300439E+00
        -11   -1    0    0    0    0  0.00000000000E+00  0.00000000000E+00  0.45593999997E+02  0.45594000000E+02  0.51100000000E-03 0.  1.
         11   -1    0    0    0    0 -0.00000000000E+00 -0.00000000000E+00 -0.45593999997E+02  0.45594000000E+02  0.51100000000E-03 0. -1.
    9900012    2    1    2    0    0 -0.87130609526E+01  0.31221089814E+02  0.24545709986E+02  0.50528858850E+02  0.29999996959E+02 0.  0.
         12    1    1    2    0    0  0.87130609526E+01 -0.31221089814E+02 -0.24545709986E+02  0.40659141150E+02  0.00000000000E+00 0. -1.
         11    1    3    3    0    0  0.16765841279E+01  0.12270407220E+01  0.38288347239E+01  0.43562069367E+01  0.51100000000E-03 0. -1.
        -11    1    3    3    0    0 -0.49781921045E+01  0.64140489006E+01  0.20423154221E+02  0.21977889992E+02  0.51100000000E-03 0.  1.
         12    1    3    3    0    0 -0.54114529759E+01  0.23580000192E+02  0.29372104184E+00  0.24194761921E+02  0.00000000000E+00 0. -1.
</event>
<event>
 7    1  0.5642630E-013  0.5052890E+02  0.7816164E-02  0.1300439E+00
        -11   -1    0    0    0    0  0.00000000000E+00  0.00000000000E+00  0.45593999997E+02  0.45594000000E+02  0.51100000000E-03 0.  1.
         11   -1    0    0    0    0 -0.00000000000E+00 -0.00000000000E+00 -0.45593999997E+02  0.45594000000E+02  0.51100000000E-03 0. -1.
    9900012    2    1    2    0    0 -0.38861568975E+01  0.39928866594E+02 -0.66140871012E+01  0.50528895840E+02  0.30000109395E+02 0.  0.
         12    1    1    2    0    0  0.38861568975E+01 -0.39928866594E+02  0.66140871012E+01  0.40659104160E+02  0.00000000000E+00 0. -1.
         11    1    3    3    0    0 -0.49943520344E+01  0.17333317145E+02  0.27282870627E+01  0.18243656049E+02  0.51100000000E-03 0. -1.
        -11    1    3    3    0    0 -0.43284608125E+01  0.61136757217E+01  0.56247103204E+01  0.93674954115E+01  0.51100000000E-03 0.  1.
         12    1    3    3    0    0  0.54366559495E+01  0.16481873727E+02 -0.14967084484E+02  0.22917744379E+02  0.00000000000E+00 0. -1.
</event>
<event>
 7    1  0.5642630E-013  0.5052886E+02  0.7816164E-02  0.1300439E+00
        -11   -1    0    0    0    0  0.00000000000E+00  0.00000000000E+00  0.45593999997E+02  0.45594000000E+02  0.51100000000E-03 0. -1.
         11   -1    0    0    0    0 -0.00000000000E+00 -0.00000000000E+00 -0.45593999997E+02  0.45594000000E+02  0.51100000000E-03 0.  1.
    9900012    2    1    2    0    0  0.24702073102E+02 -0.32280477854E+02  0.97151557969E+00  0.50528861931E+02  0.30000006325E+02 0.  0.
         12    1    1    2    0    0 -0.24702073102E+02  0.32280477854E+02 -0.97151557969E+00  0.40659138069E+02  0.00000000000E+00 0. -1.
         11    1    3    3    0    0  0.60422810239E+01 -0.95567904795E+01 -0.68016437394E+01  0.13194838463E+02  0.51100000000E-03 0. -1.
        -11    1    3    3    0    0  0.19110801794E+02 -0.12841656848E+02 -0.23937613143E+01  0.23148671437E+02  0.51100000000E-03 0.  1.
         12    1    3    3    0    0 -0.45100971578E+00 -0.98820305258E+01  0.10166920633E+02  0.14185352031E+02  0.00000000000E+00 0. -1.
</event>
<event>
 7    1  0.5642630E-013  0.5052885E+02  0.7816164E-02  0.1300439E+00
        -11   -1    0    0    0    0  0.00000000000E+00  0.00000000000E+00  0.45593999997E+02  0.45594000000E+02  0.51100000000E-03 0.  1.
         11   -1    0    0    0    0 -0.00000000000E+00 -0.00000000000E+00 -0.45593999997E+02  0.45594000000E+02  0.51100000000E-03 0. -1.
    9900012    2    1    2    0    0 -0.18444227090E+01  0.14891263548E+02  0.37789078869E+02  0.50528854572E+02  0.29999983957E+02 0.  0.
         12    1    1    2    0    0  0.18444227090E+01 -0.14891263548E+02 -0.37789078869E+02  0.40659145428E+02  0.00000000000E+00 0. -1.
         11    1    3    3    0    0 -0.60298328060E+00 -0.46390892597E+01  0.51522926924E+01  0.69592282794E+01  0.51100000000E-03 0. -1.
        -11    1    3    3    0    0 -0.40322967608E+01 -0.17031393013E+01 -0.18236374738E+00  0.43810224200E+01  0.51100000000E-03 0.  1.
        -12    1    3    3    0    0  0.27908573324E+01  0.21233492109E+02  0.32819149924E+02  0.39188603873E+02  0.00000000000E+00 0.  1.
</event>
<event>
 7    1  0.5642630E-013  0.5052889E+02  0.7816164E-02  0.1300439E+00
        -11   -1    0    0    0    0  0.00000000000E+00  0.00000000000E+00  0.45593999997E+02  0.45594000000E+02  0.51100000000E-03 0. -1.
         11   -1    0    0    0    0 -0.00000000000E+00 -0.00000000000E+00 -0.45593999997E+02  0.45594000000E+02  0.51100000000E-03 0.  1.
    9900012    2    1    2    0    0 -0.24071418055E+02 -0.31650624492E+02 -0.84834191761E+01  0.50528885415E+02  0.30000077706E+02 0.  0.
         12    1    1    2    0    0  0.24071418055E+02  0.31650624492E+02  0.84834191761E+01  0.40659114585E+02  0.00000000000E+00 0. -1.
         11    1    3    3    0    0 -0.10621534387E+02 -0.18014686497E+02 -0.12910272161E+02  0.24576839704E+02  0.51100000000E-03 0.  1.
        -11    1    3    3    0    0 -0.13230725251E+02 -0.16988571447E+02  0.58344822534E+01  0.22309299270E+02  0.51100000000E-03 0. -1.
         12    1    3    3    0    0 -0.21915841667E+00  0.33526334515E+01 -0.14076292688E+01  0.36427464406E+01  0.00000000000E+00 0. -1.
</event>
<event>
 7    1  0.5642630E-013  0.5052887E+02  0.7816164E-02  0.1300439E+00
        -11   -1    0    0    0    0  0.00000000000E+00  0.00000000000E+00  0.45593999997E+02  0.45594000000E+02  0.51100000000E-03 0. -1.
         11   -1    0    0    0    0 -0.00000000000E+00 -0.00000000000E+00 -0.45593999997E+02  0.45594000000E+02  0.51100000000E-03 0.  1.
    9900012    2    1    2    0    0  0.55688761850E+01 -0.13383234853E+02 -0.37987381310E+02  0.50528874384E+02  0.30000044176E+02 0.  0.
         12    1    1    2    0    0 -0.55688761850E+01  0.13383234853E+02  0.37987381310E+02  0.40659125616E+02  0.00000000000E+00 0. -1.
         11    1    3    3    0    0  0.39777483479E+00  0.18220778255E+01 -0.55124511630E+00  0.19447529048E+01  0.51100000000E-03 0. -1.
        -11    1    3    3    0    0  0.89105073745E+01  0.35248003419E+01 -0.46750173015E+01  0.10661948516E+02  0.51100000000E-03 0.  1.
        -12    1    3    3    0    0 -0.37394060243E+01 -0.18730113020E+02 -0.32761118892E+02  0.37922172963E+02  0.00000000000E+00 0.  1.
</event>
<event>
 7    1  0.5642630E-013  0.5052886E+02  0.7816164E-02  0.1300439E+00
        -11   -1    0    0    0    0  0.00000000000E+00  0.00000000000E+00  0.45593999997E+02  0.45594000000E+02  0.51100000000E-03 0.  1.
         11   -1    0    0    0    0 -0.00000000000E+00 -0.00000000000E+00 -0.45593999997E+02  0.45594000000E+02  0.51100000000E-03 0. -1.
    9900012    2    1    2    0    0  0.16791144454E+02  0.27499731667E+02  0.24798951635E+02  0.50528858642E+02  0.29999996327E+02 0.  0.
         12    1    1    2    0    0 -0.16791144454E+02 -0.27499731667E+02 -0.24798951635E+02  0.40659141358E+02  0.00000000000E+00 0. -1.
         11    1    3    3    0    0  0.10174736599E+02  0.17801430068E+02  0.15934922376E+02  0.25968017420E+02  0.51100000000E-03 0.  1.
        -11    1    3    3    0    0  0.10591454623E+02  0.11423583648E+02  0.10348256403E+01  0.15612432186E+02  0.51100000000E-03 0. -1.
         12    1    3    3    0    0 -0.39750467684E+01 -0.17252820496E+01  0.78292036189E+01  0.89484090356E+01  0.00000000000E+00 0. -1.
</event>
<event>
 7    1  0.5642630E-013  0.5052886E+02  0.7816164E-02  0.1300439E+00
        -11   -1    0    0    0    0  0.00000000000E+00  0.00000000000E+00  0.45593999997E+02  0.45594000000E+02  0.51100000000E-03 0.  1.
         11   -1    0    0    0    0 -0.00000000000E+00 -0.00000000000E+00 -0.45593999997E+02  0.45594000000E+02  0.51100000000E-03 0. -1.
    9900012    2    1    2    0    0 -0.69299349192E+01  0.32099785029E+02  0.23973846229E+02  0.50528862037E+02  0.30000006647E+02 0.  0.
         12    1    1    2    0    0  0.69299349192E+01 -0.32099785029E+02 -0.23973846229E+02  0.40659137963E+02  0.00000000000E+00 0. -1.
         11    1    3    3    0    0  0.18393571803E+00  0.20253499489E+02  0.62909963675E+01  0.21208835646E+02  0.51100000000E-03 0. -1.
        -11    1    3    3    0    0 -0.23334125234E+01  0.15576699725E+02  0.74455699492E+01  0.17421679037E+02  0.51100000000E-03 0.  1.
         12    1    3    3    0    0 -0.47804581138E+01 -0.37304141844E+01  0.10237279912E+02  0.11898347354E+02  0.00000000000E+00 0. -1.
</event>
<event>
 7    1  0.5642630E-013  0.5052887E+02  0.7816164E-02  0.1300439E+00
        -11   -1    0    0    0    0  0.00000000000E+00  0.00000000000E+00  0.45593999997E+02  0.45594000000E+02  0.51100000000E-03 0.  1.
         11   -1    0    0    0    0 -0.00000000000E+00 -0.00000000000E+00 -0.45593999997E+02  0.45594000000E+02  0.51100000000E-03 0. -1.
    9900012    2    1    2    0    0  0.25718425786E+02  0.10070944807E+02  0.29837960779E+02  0.50528865016E+02  0.30000015702E+02 0.  0.
         12    1    1    2    0    0 -0.25718425786E+02 -0.10070944807E+02 -0.29837960779E+02  0.40659134984E+02  0.00000000000E+00 0. -1.
         11    1    3    3    0    0  0.45148232691E+01  0.57750581123E+01  0.16700396309E+01  0.75182416815E+01  0.51100000000E-03 0. -1.
        -11    1    3    3    0    0  0.22301787240E+02  0.28902031972E+01  0.97573717988E+01  0.24513859209E+02  0.51100000000E-03 0.  1.
         12    1    3    3    0    0 -0.10981847228E+01  0.14056834970E+01  0.18410549349E+02  0.18496764126E+02  0.00000000000E+00 0. -1.
</event>
<event>
 7    1  0.5642630E-013  0.5052887E+02  0.7816164E-02  0.1300439E+00
        -11   -1    0    0    0    0  0.00000000000E+00  0.00000000000E+00  0.45593999997E+02  0.45594000000E+02  0.51100000000E-03 0.  1.
         11   -1    0    0    0    0 -0.00000000000E+00 -0.00000000000E+00 -0.45593999997E+02  0.45594000000E+02  0.51100000000E-03 0. -1.
    9900012    2    1    2    0    0  0.20770523628E+02  0.19087825510E+02  0.29281483326E+02  0.50528868181E+02  0.30000025322E+02 0.  0.
         12    1    1    2    0    0 -0.20770523628E+02 -0.19087825510E+02 -0.29281483326E+02  0.40659131819E+02  0.00000000000E+00 0. -1.
         11    1    3    3    0    0 -0.50700796962E+01 -0.14185550696E+01  0.50631744662E+01  0.73043646231E+01  0.51100000000E-03 0. -1.
        -11    1    3    3    0    0  0.10539993728E+02  0.90416803530E+01  0.18761456577E+02  0.23341715973E+02  0.51100000000E-03 0.  1.
        -12    1    3    3    0    0  0.15300609596E+02  0.11464700227E+02  0.54568522831E+01  0.19882787585E+02  0.00000000000E+00 0.  1.
</event>
<event>
 7    1  0.5642630E-013  0.5052886E+02  0.7816164E-02  0.1300439E+00
        -11   -1    0    0    0    0  0.00000000000E+00  0.00000000000E+00  0.45593999997E+02  0.45594000000E+02  0.51100000000E-03 0.  1.
         11   -1    0    0    0    0 -0.00000000000E+00 -0.00000000000E+00 -0.45593999997E+02  0.45594000000E+02  0.51100000000E-03 0. -1.
    9900012    2    1    2    0    0 -0.84538225222E+01  0.22920372414E+01  0.39704476886E+02  0.50528855460E+02  0.29999986656E+02 0.  0.
         12    1    1    2    0    0  0.84538225222E+01 -0.22920372414E+01 -0.39704476886E+02  0.40659144540E+02  0.00000000000E+00 0. -1.
         11    1    3    3    0    0 -0.10904087249E+02 -0.28144167428E+01  0.58419930677E+01  0.12686565477E+02  0.51100000000E-03 0. -1.
        -11    1    3    3    0    0 -0.58783635721E+01  0.18790200804E+01  0.22818691043E+02  0.23638496905E+02  0.51100000000E-03 0.  1.
        -12    1    3    3    0    0  0.83286282987E+01  0.32274339038E+01  0.11043792776E+02  0.14203793078E+02  0.00000000000E+00 0.  1.
</event>
<event>
 7    1  0.5642630E-013  0.5052886E+02  0.7816164E-02  0.1300439E+00
        -11   -1    0    0    0    0  0.00000000000E+00  0.00000000000E+00  0.45593999997E+02  0.45594000000E+02  0.51100000000E-03 0.  1.
         11   -1    0    0    0    0 -0.00000000000E+00 -0.00000000000E+00 -0.45593999997E+02  0.45594000000E+02  0.51100000000E-03 0. -1.
    9900012    2    1    2    0    0  0.37928131616E+02  0.14549244565E+02 -0.17151427023E+01  0.50528863268E+02  0.30000010389E+02 0.  0.
         12    1    1    2    0    0 -0.37928131616E+02 -0.14549244565E+02  0.17151427023E+01  0.40659136732E+02  0.00000000000E+00 0. -1.
         11    1    3    3    0    0  0.14964828253E+02  0.12459738325E+02  0.99169363680E+01  0.21852615197E+02  0.51100000000E-03 0. -1.
        -11    1    3    3    0    0  0.11620386496E+02  0.42004062116E+01 -0.90238763473E-01  0.12356574686E+02  0.51100000000E-03 0.  1.
         12    1    3    3    0    0  0.11342916867E+02 -0.21108999709E+01 -0.11541840307E+02  0.16319673386E+02  0.00000000000E+00 0. -1.
</event>
<event>
 7    1  0.5642630E-013  0.5052886E+02  0.7816164E-02  0.1300439E+00
        -11   -1    0    0    0    0  0.00000000000E+00  0.00000000000E+00  0.45593999997E+02  0.45594000000E+02  0.51100000000E-03 0. -1.
         11   -1    0    0    0    0 -0.00000000000E+00 -0.00000000000E+00 -0.45593999997E+02  0.45594000000E+02  0.51100000000E-03 0.  1.
    9900012    2    1    2    0    0 -0.23690960591E+01  0.29138465467E+02 -0.28257795966E+02  0.50528858115E+02  0.29999994727E+02 0.  0.
         12    1    1    2    0    0  0.23690960591E+01 -0.29138465467E+02  0.28257795966E+02  0.40659141885E+02  0.00000000000E+00 0. -1.
         11    1    3    3    0    0  0.60546277897E+01  0.64379091290E+01 -0.25073084487E+01  0.91865002882E+01  0.51100000000E-03 0. -1.
        -11    1    3    3    0    0  0.63984851669E+00  0.49615029036E+01  0.33905445565E+01  0.60433194387E+01  0.51100000000E-03 0.  1.
        -12    1    3    3    0    0 -0.90635723655E+01  0.17739053435E+02 -0.29141032074E+02  0.35299038388E+02  0.00000000000E+00 0.  1.
</event>
<event>
 7    1  0.5642630E-013  0.5052885E+02  0.7816164E-02  0.1300439E+00
        -11   -1    0    0    0    0  0.00000000000E+00  0.00000000000E+00  0.45593999997E+02  0.45594000000E+02  0.51100000000E-03 0.  1.
         11   -1    0    0    0    0 -0.00000000000E+00 -0.00000000000E+00 -0.45593999997E+02  0.45594000000E+02  0.51100000000E-03 0. -1.
    9900012    2    1    2    0    0  0.23158916872E+02  0.61365664170E+01 -0.32850772038E+02  0.50528854638E+02  0.29999984157E+02 0.  0.
         12    1    1    2    0    0 -0.23158916872E+02 -0.61365664170E+01  0.32850772038E+02  0.40659145362E+02  0.00000000000E+00 0. -1.
         11    1    3    3    0    0  0.40150423041E+01  0.26734117932E+01 -0.13598454412E+02  0.14428640199E+02  0.51100000000E-03 0. -1.
        -11    1    3    3    0    0  0.30280038755E+01  0.42783348628E+01 -0.19263379944E+02  0.19963736218E+02  0.51100000000E-03 0.  1.
        -12    1    3    3    0    0  0.16115870693E+02 -0.81518023910E+00  0.11062317457E-01  0.16136478221E+02  0.00000000000E+00 0.  1.
</event>
<event>
 7    1  0.5642630E-013  0.5052885E+02  0.7816164E-02  0.1300439E+00
        -11   -1    0    0    0    0  0.00000000000E+00  0.00000000000E+00  0.45593999997E+02  0.45594000000E+02  0.51100000000E-03 0.  1.
         11   -1    0    0    0    0 -0.00000000000E+00 -0.00000000000E+00 -0.45593999997E+02  0.45594000000E+02  0.51100000000E-03 0. -1.
    9900012    2    1    2    0    0  0.10581072257E+02  0.39185098883E+02  0.23948317145E+01  0.50528852401E+02  0.29999977357E+02 0.  0.
         12    1    1    2    0    0 -0.10581072257E+02 -0.39185098883E+02 -0.23948317145E+01  0.40659147599E+02  0.00000000000E+00 0. -1.
         11    1    3    3    0    0  0.90163322119E+01  0.34731843222E+02 -0.54751137007E+01  0.36298375314E+02  0.51100000000E-03 0. -1.
        -11    1    3    3    0    0  0.39124357378E+01  0.43640434880E+01 -0.16066191816E+00  0.58632620171E+01  0.51100000000E-03 0.  1.
        -12    1    3    3    0    0 -0.23476956927E+01  0.89212173140E-01  0.80306073333E+01  0.83672150695E+01  0.00000000000E+00 0.  1.
</event>
<event>
 7    1  0.5642630E-013  0.5052885E+02  0.7816164E-02  0.1300439E+00
        -11   -1    0    0    0    0  0.00000000000E+00  0.00000000000E+00  0.45593999997E+02  0.45594000000E+02  0.51100000000E-03 0. -1.
         11   -1    0    0    0    0 -0.00000000000E+00 -0.00000000000E+00 -0.45593999997E+02  0.45594000000E+02  0.51100000000E-03 0.  1.
    9900012    2    1    2    0    0  0.14438645923E+02  0.37677445660E+02 -0.50101898934E+01  0.50528850842E+02  0.29999972618E+02 0.  0.
         12    1    1    2    0    0 -0.14438645923E+02 -0.37677445660E+02  0.50101898934E+01  0.40659149158E+02  0.00000000000E+00 0. -1.
         11    1    3    3    0    0  0.31739214424E+01  0.12497517874E+02  0.10277460367E+02  0.16489024295E+02  0.51100000000E-03 0. -1.
        -11    1    3    3    0    0  0.49833530865E+01  0.80758494328E+01  0.10748446785E+01  0.95503111672E+01  0.51100000000E-03 0.  1.
        -12    1    3    3    0    0  0.62813713939E+01  0.17104078353E+02 -0.16362494939E+02  0.24489515380E+02  0.00000000000E+00 0.  1.
</event>
<event>
 7    1  0.5642630E-013  0.5052883E+02  0.7816164E-02  0.1300439E+00
        -11   -1    0    0    0    0  0.00000000000E+00  0.00000000000E+00  0.45593999997E+02  0.45594000000E+02  0.51100000000E-03 0.  1.
         11   -1    0    0    0    0 -0.00000000000E+00 -0.00000000000E+00 -0.45593999997E+02  0.45594000000E+02  0.51100000000E-03 0. -1.
    9900012    2    1    2    0    0  0.11039359666E+02  0.31359007216E+02  0.23407550157E+02  0.50528828836E+02  0.29999905729E+02 0.  0.
         12    1    1    2    0    0 -0.11039359666E+02 -0.31359007216E+02 -0.23407550157E+02  0.40659171164E+02  0.00000000000E+00 0. -1.
         11    1    3    3    0    0  0.12847663734E+02  0.81021336999E+01  0.15488634179E+02  0.21693428104E+02  0.51100000000E-03 0.  1.
        -11    1    3    3    0    0  0.17623266208E+01  0.83977160742E+01  0.10259797911E+02  0.13375009675E+02  0.51100000000E-03 0. -1.
         12    1    3    3    0    0 -0.35706306886E+01  0.14859157442E+02 -0.23408819327E+01  0.15460391057E+02  0.00000000000E+00 0. -1.
</event>
<event>
 7    1  0.5642630E-013  0.5052885E+02  0.7816164E-02  0.1300439E+00
        -11   -1    0    0    0    0  0.00000000000E+00  0.00000000000E+00  0.45593999997E+02  0.45594000000E+02  0.51100000000E-03 0.  1.
         11   -1    0    0    0    0 -0.00000000000E+00 -0.00000000000E+00 -0.45593999997E+02  0.45594000000E+02  0.51100000000E-03 0. -1.
    9900012    2    1    2    0    0  0.27041690154E+02  0.18395259207E+02  0.24156319411E+02  0.50528851766E+02  0.29999975428E+02 0.  0.
         12    1    1    2    0    0 -0.27041690154E+02 -0.18395259207E+02 -0.24156319411E+02  0.40659148234E+02  0.00000000000E+00 0. -1.
         11    1    3    3    0    0  0.27803465131E+01  0.11832634977E+02 -0.71788004414E+00  0.12176080209E+02  0.51100000000E-03 0. -1.
        -11    1    3    3    0    0 -0.18174526095E+01  0.18310794958E+01  0.13371143153E+01  0.29058322493E+01  0.51100000000E-03 0.  1.
        -12    1    3    3    0    0  0.26078796250E+02  0.47315447338E+01  0.23537085139E+02  0.35446939308E+02  0.00000000000E+00 0.  1.
</event>
<event>
 7    1  0.5642630E-013  0.5052887E+02  0.7816164E-02  0.1300439E+00
        -11   -1    0    0    0    0  0.00000000000E+00  0.00000000000E+00  0.45593999997E+02  0.45594000000E+02  0.51100000000E-03 0.  1.
         11   -1    0    0    0    0 -0.00000000000E+00 -0.00000000000E+00 -0.45593999997E+02  0.45594000000E+02  0.51100000000E-03 0. -1.
    9900012    2    1    2    0    0  0.60515003195E+01 -0.38245589787E+02  0.12402393327E+02  0.50528866284E+02  0.30000019558E+02 0.  0.
         12    1    1    2    0    0 -0.60515003195E+01  0.38245589787E+02 -0.12402393327E+02  0.40659133716E+02  0.00000000000E+00 0. -1.
         11    1    3    3    0    0  0.43536242102E+01 -0.41121355360E+01  0.37514516489E+01  0.70666181562E+01  0.51100000000E-03 0. -1.
        -11    1    3    3    0    0  0.12742838571E+02 -0.25625426634E+02  0.50276388267E+01  0.29057177727E+02  0.51100000000E-03 0.  1.
         12    1    3    3    0    0 -0.11044962462E+02 -0.85080276176E+01  0.36233028510E+01  0.14405070402E+02  0.00000000000E+00 0. -1.
</event>
<event>
 7    1  0.5642630E-013  0.5052885E+02  0.7816164E-02  0.1300439E+00
        -11   -1    0    0    0    0  0.00000000000E+00  0.00000000000E+00  0.45593999997E+02  0.45594000000E+02  0.51100000000E-03 0.  1.
         11   -1    0    0    0    0 -0.00000000000E+00 -0.00000000000E+00 -0.45593999997E+02  0.45594000000E+02  0.51100000000E-03 0. -1.
    9900012    2    1    2    0    0  0.11099801974E+02 -0.26414899183E+01  0.39025415142E+02  0.50528854659E+02  0.29999984220E+02 0.  0.
         12    1    1    2    0    0 -0.11099801974E+02  0.26414899183E+01 -0.39025415142E+02  0.40659145341E+02  0.00000000000E+00 0. -1.
         11    1    3    3    0    0 -0.66811354148E+01  0.58175298091E+00  0.43186168384E+01  0.79766194983E+01  0.51100000000E-03 0.  1.
        -11    1    3    3    0    0  0.28301370342E+01  0.55587056824E+00 -0.14616817369E+01  0.32334473062E+01  0.51100000000E-03 0. -1.
        -12    1    3    3    0    0  0.14950800355E+02 -0.37791134675E+01  0.36168480041E+02  0.39318787854E+02  0.00000000000E+00 0.  1.
</event>
<event>
 7    1  0.5642630E-013  0.5052886E+02  0.7816164E-02  0.1300439E+00
        -11   -1    0    0    0    0  0.00000000000E+00  0.00000000000E+00  0.45593999997E+02  0.45594000000E+02  0.51100000000E-03 0.  1.
         11   -1    0    0    0    0 -0.00000000000E+00 -0.00000000000E+00 -0.45593999997E+02  0.45594000000E+02  0.51100000000E-03 0. -1.
    9900012    2    1    2    0    0  0.18257650536E+01  0.29299437855E+01  0.40512315309E+02  0.50528859818E+02  0.29999999903E+02 0.  0.
         12    1    1    2    0    0 -0.18257650536E+01 -0.29299437855E+01 -0.40512315309E+02  0.40659140182E+02  0.00000000000E+00 0. -1.
         11    1    3    3    0    0 -0.14890235077E+01 -0.54583487682E+01  0.12917518858E+02  0.14102235851E+02  0.51100000000E-03 0. -1.
        -11    1    3    3    0    0  0.71548492814E+01 -0.52527179639E+01  0.64491291465E+01  0.10971516817E+02  0.51100000000E-03 0.  1.
        -12    1    3    3    0    0 -0.38400607202E+01  0.13641010518E+02  0.21145667305E+02  0.25455107150E+02  0.00000000000E+00 0.  1.
</event>
<event>
 7    1  0.6252164E-013  0.5052886E+02  0.7816164E-02  0.1300439E+00
        -11   -1    0    0    0    0  0.00000000000E+00  0.00000000000E+00  0.45593999997E+02  0.45594000000E+02  0.51100000000E-03 0.  1.
         11   -1    0    0    0    0 -0.00000000000E+00 -0.00000000000E+00 -0.45593999997E+02  0.45594000000E+02  0.51100000000E-03 0. -1.
    9900012    2    1    2    0    0  0.15043835681E+02  0.33651108392E+02  0.17159589524E+02  0.50528860798E+02  0.30000002882E+02 0.  0.
         12    1    1    2    0    0 -0.15043835681E+02 -0.33651108392E+02 -0.17159589524E+02  0.40659139202E+02  0.00000000000E+00 0. -1.
         11    1    3    3    0    0  0.77063900470E+00  0.45800412865E+01 -0.36069030600E+01  0.58805112539E+01  0.51100000000E-03 0. -1.
        -11    1    3    3    0    0 -0.23135783251E+01  0.19231817997E+02  0.57495733896E+01  0.20205768051E+02  0.51100000000E-03 0.  1.
        -12    1    3    3    0    0  0.16586775001E+02  0.98392491090E+01  0.15016919194E+02  0.24442581493E+02  0.00000000000E+00 0.  1.
</event>
<event>
 7    1  0.5642630E-013  0.5052885E+02  0.7816164E-02  0.1300439E+00
        -11   -1    0    0    0    0  0.00000000000E+00  0.00000000000E+00  0.45593999997E+02  0.45594000000E+02  0.51100000000E-03 0.  1.
         11   -1    0    0    0    0 -0.00000000000E+00 -0.00000000000E+00 -0.45593999997E+02  0.45594000000E+02  0.51100000000E-03 0. -1.
    9900012    2    1    2    0    0  0.29194118355E+02 -0.28291372569E+02  0.68397480536E+00  0.50528854290E+02  0.29999983099E+02 0.  0.
         12    1    1    2    0    0 -0.29194118355E+02  0.28291372569E+02 -0.68397480536E+00  0.40659145710E+02  0.00000000000E+00 0. -1.
         11    1    3    3    0    0  0.61977637286E+01 -0.26848105882E+01  0.94654688566E+00  0.68202957705E+01  0.51100000000E-03 0. -1.
        -11    1    3    3    0    0  0.19022423023E+02 -0.24551262831E+02 -0.10412661222E+02  0.32757298396E+02  0.51100000000E-03 0.  1.
         12    1    3    3    0    0  0.39739316038E+01 -0.10552991497E+01  0.10150089142E+02  0.10951260123E+02  0.00000000000E+00 0. -1.
</event>
<event>
 7    1  0.5642630E-013  0.5052886E+02  0.7816164E-02  0.1300439E+00
        -11   -1    0    0    0    0  0.00000000000E+00  0.00000000000E+00  0.45593999997E+02  0.45594000000E+02  0.51100000000E-03 0.  1.
         11   -1    0    0    0    0 -0.00000000000E+00 -0.00000000000E+00 -0.45593999997E+02  0.45594000000E+02  0.51100000000E-03 0. -1.
    9900012    2    1    2    0    0 -0.36515226114E+02  0.17428011612E+02  0.40085302328E+01  0.50528860295E+02  0.30000001354E+02 0.  0.
         12    1    1    2    0    0  0.36515226114E+02 -0.17428011612E+02 -0.40085302328E+01  0.40659139705E+02  0.00000000000E+00 0. -1.
         11    1    3    3    0    0 -0.13972445209E+02  0.33865347713E+01 -0.39728407478E+01  0.14915807277E+02  0.51100000000E-03 0. -1.
        -11    1    3    3    0    0 -0.70518228149E+01  0.36598316471E+00  0.12596066669E+02  0.14440327021E+02  0.51100000000E-03 0.  1.
         12    1    3    3    0    0 -0.15490958090E+02  0.13675493676E+02 -0.46146956884E+01  0.21172725997E+02  0.00000000000E+00 0. -1.
</event>
<event>
 7    1  0.5642630E-013  0.5052884E+02  0.7816164E-02  0.1300439E+00
        -11   -1    0    0    0    0  0.00000000000E+00  0.00000000000E+00  0.45593999997E+02  0.45594000000E+02  0.51100000000E-03 0.  1.
         11   -1    0    0    0    0 -0.00000000000E+00 -0.00000000000E+00 -0.45593999997E+02  0.45594000000E+02  0.51100000000E-03 0. -1.
    9900012    2    1    2    0    0  0.15531572928E+01  0.29210403935E+02  0.28240177100E+02  0.50528836233E+02  0.29999928213E+02 0.  0.
         12    1    1    2    0    0 -0.15531572928E+01 -0.29210403935E+02 -0.28240177100E+02  0.40659163767E+02  0.00000000000E+00 0. -1.
         11    1    3    3    0    0  0.70686154758E+01  0.33276092051E+01  0.70753253454E+01  0.10540329064E+02  0.51100000000E-03 0. -1.
        -11    1    3    3    0    0  0.69622562278E+01  0.24595353162E+01  0.43272875172E+01  0.85584895438E+01  0.51100000000E-03 0.  1.
         12    1    3    3    0    0 -0.12477714411E+02  0.23423259414E+02  0.16837564237E+02  0.31430017625E+02  0.00000000000E+00 0. -1.
</event>
<event>
 7    1  0.5642630E-013  0.5052887E+02  0.7816164E-02  0.1300439E+00
        -11   -1    0    0    0    0  0.00000000000E+00  0.00000000000E+00  0.45593999997E+02  0.45594000000E+02  0.51100000000E-03 0. -1.
         11   -1    0    0    0    0 -0.00000000000E+00 -0.00000000000E+00 -0.45593999997E+02  0.45594000000E+02  0.51100000000E-03 0.  1.
    9900012    2    1    2    0    0  0.24840463902E+02 -0.30865439207E+02 -0.91345843509E+01  0.50528872912E+02  0.30000039703E+02 0.  0.
         12    1    1    2    0    0 -0.24840463902E+02  0.30865439207E+02  0.91345843509E+01  0.40659127088E+02  0.00000000000E+00 0. -1.
         11    1    3    3    0    0  0.13987563716E+02 -0.21006711595E+01 -0.60519914004E+01  0.15384776833E+02  0.51100000000E-03 0. -1.
        -11    1    3    3    0    0  0.30981962090E+01 -0.12357939669E+02 -0.95035226789E+01  0.15894478166E+02  0.51100000000E-03 0.  1.
        -12    1    3    3    0    0  0.77547039770E+01 -0.16406828379E+02  0.64209297284E+01  0.19249617913E+02  0.00000000000E+00 0.  1.
</event>
<event>
 7    1  0.5642630E-013  0.5052886E+02  0.7816164E-02  0.1300439E+00
        -11   -1    0    0    0    0  0.00000000000E+00  0.00000000000E+00  0.45593999997E+02  0.45594000000E+02  0.51100000000E-03 0.  1.
         11   -1    0    0    0    0 -0.00000000000E+00 -0.00000000000E+00 -0.45593999997E+02  0.45594000000E+02  0.51100000000E-03 0. -1.
    9900012    2    1    2    0    0  0.38980096438E+02  0.97001519428E+01  0.62948341505E+01  0.50528858310E+02  0.29999995318E+02 0.  0.
         12    1    1    2    0    0 -0.38980096438E+02 -0.97001519428E+01 -0.62948341505E+01  0.40659141690E+02  0.00000000000E+00 0. -1.
         11    1    3    3    0    0  0.21975609359E+00  0.34751601248E+01  0.94960338529E+00  0.36092627342E+01  0.51100000000E-03 0. -1.
        -11    1    3    3    0    0  0.11106788862E+02 -0.13896207995E+01  0.13076653306E+02  0.17213095792E+02  0.51100000000E-03 0.  1.
        -12    1    3    3    0    0  0.27653551482E+02  0.76146126175E+01 -0.77314225410E+01  0.29706499784E+02  0.00000000000E+00 0.  1.
</event>
<event>
 7    1  0.5642630E-013  0.5052886E+02  0.7816164E-02  0.1300439E+00
        -11   -1    0    0    0    0  0.00000000000E+00  0.00000000000E+00  0.45593999997E+02  0.45594000000E+02  0.51100000000E-03 0. -1.
         11   -1    0    0    0    0 -0.00000000000E+00 -0.00000000000E+00 -0.45593999997E+02  0.45594000000E+02  0.51100000000E-03 0.  1.
    9900012    2    1    2    0    0  0.38749619844E+02 -0.93221372797E+01 -0.80455036955E+01  0.50528863128E+02  0.30000009963E+02 0.  0.
         12    1    1    2    0    0 -0.38749619844E+02  0.93221372797E+01  0.80455036955E+01  0.40659136872E+02  0.00000000000E+00 0. -1.
         11    1    3    3    0    0  0.13964254199E+02  0.13788178372E+01  0.39211851918E+01  0.14569736701E+02  0.51100000000E-03 0. -1.
        -11    1    3    3    0    0  0.11354299301E+02 -0.88352702174E+01  0.40762294150E+01  0.14953185578E+02  0.51100000000E-03 0.  1.
        -12    1    3    3    0    0  0.13431066344E+02 -0.18656848996E+01 -0.16042918302E+02  0.21005940848E+02  0.00000000000E+00 0.  1.
</event>
<event>
 7    1  0.5642630E-013  0.5052886E+02  0.7816164E-02  0.1300439E+00
        -11   -1    0    0    0    0  0.00000000000E+00  0.00000000000E+00  0.45593999997E+02  0.45594000000E+02  0.51100000000E-03 0. -1.
         11   -1    0    0    0    0 -0.00000000000E+00 -0.00000000000E+00 -0.45593999997E+02  0.45594000000E+02  0.51100000000E-03 0.  1.
    9900012    2    1    2    0    0  0.45728568450E+01  0.11384681409E+02 -0.38763949509E+02  0.50528858690E+02  0.29999996474E+02 0.  0.
         12    1    1    2    0    0 -0.45728568450E+01 -0.11384681409E+02  0.38763949509E+02  0.40659141310E+02  0.00000000000E+00 0. -1.
         11    1    3    3    0    0  0.15739295203E+01  0.31022548556E+01 -0.12626737743E+01  0.37007546049E+01  0.51100000000E-03 0. -1.
        -11    1    3    3    0    0  0.12377997345E+02 -0.14007623416E+01 -0.92190085910E+01  0.15497324707E+02  0.51100000000E-03 0.  1.
         12    1    3    3    0    0 -0.93790700206E+01  0.96831888945E+01 -0.28282267144E+02  0.31330779378E+02  0.00000000000E+00 0. -1.
</event>
<event>
 7    1  0.5642630E-013  0.5052888E+02  0.7816164E-02  0.1300439E+00
        -11   -1    0    0    0    0  0.00000000000E+00  0.00000000000E+00  0.45593999997E+02  0.45594000000E+02  0.51100000000E-03 0.  1.
         11   -1    0    0    0    0 -0.00000000000E+00 -0.00000000000E+00 -0.45593999997E+02  0.45594000000E+02  0.51100000000E-03 0. -1.
    9900012    2    1    2    0    0  0.34545801695E+02 -0.19818859267E+02  0.81831676505E+01  0.50528882570E+02  0.30000069059E+02 0.  0.
         12    1    1    2    0    0 -0.34545801695E+02  0.19818859267E+02 -0.81831676505E+01  0.40659117430E+02  0.00000000000E+00 0. -1.
         11    1    3    3    0    0  0.12091372404E+02  0.11310356466E+01 -0.42183780039E+01  0.12855941875E+02  0.51100000000E-03 0. -1.
        -11    1    3    3    0    0  0.54981948357E+01 -0.12623807171E+02 -0.20072939106E+01  0.13914736183E+02  0.51100000000E-03 0.  1.
         12    1    3    3    0    0  0.16956234456E+02 -0.83260877426E+01  0.14408839565E+02  0.23758204512E+02  0.00000000000E+00 0. -1.
</event>
<event>
 7    1  0.5642630E-013  0.5052886E+02  0.7816164E-02  0.1300439E+00
        -11   -1    0    0    0    0  0.00000000000E+00  0.00000000000E+00  0.45593999997E+02  0.45594000000E+02  0.51100000000E-03 0.  1.
         11   -1    0    0    0    0 -0.00000000000E+00 -0.00000000000E+00 -0.45593999997E+02  0.45594000000E+02  0.51100000000E-03 0. -1.
    9900012    2    1    2    0    0 -0.17972175509E+01 -0.17020046636E+02  0.36881616951E+02  0.50528860224E+02  0.30000001136E+02 0.  0.
         12    1    1    2    0    0  0.17972175509E+01  0.17020046636E+02 -0.36881616951E+02  0.40659139776E+02  0.00000000000E+00 0. -1.
         11    1    3    3    0    0  0.95010314177E+01 -0.67071475725E+01  0.20992051147E+02  0.23998367407E+02  0.51100000000E-03 0. -1.
        -11    1    3    3    0    0 -0.92967956786E+01 -0.18060886268E+01  0.15008963682E+02  0.17747150675E+02  0.51100000000E-03 0.  1.
         12    1    3    3    0    0 -0.20014532900E+01 -0.85068104373E+01  0.88060212163E+00  0.87833421421E+01  0.00000000000E+00 0. -1.
</event>
<event>
 7    1  0.5642630E-013  0.5052887E+02  0.7816164E-02  0.1300439E+00
        -11   -1    0    0    0    0  0.00000000000E+00  0.00000000000E+00  0.45593999997E+02  0.45594000000E+02  0.51100000000E-03 0. -1.
         11   -1    0    0    0    0 -0.00000000000E+00 -0.00000000000E+00 -0.45593999997E+02  0.45594000000E+02  0.51100000000E-03 0.  1.
    9900012    2    1    2    0    0  0.15943260242E+01 -0.16357401865E+02 -0.37189494678E+02  0.50528868361E+02  0.30000025869E+02 0.  0.
         12    1    1    2    0    0 -0.15943260242E+01  0.16357401865E+02  0.37189494678E+02  0.40659131639E+02  0.00000000000E+00 0. -1.
         11    1    3    3    0    0  0.18689889572E+01 -0.27660322225E+01 -0.14309489867E+02  0.14693725004E+02  0.51100000000E-03 0.  1.
        -11    1    3    3    0    0 -0.11631812745E+02 -0.40539387734E+01 -0.13557935994E+02  0.18318054373E+02  0.51100000000E-03 0. -1.
         12    1    3    3    0    0  0.11357149812E+02 -0.95374308695E+01 -0.93220688171E+01  0.17517088984E+02  0.00000000000E+00 0. -1.
</event>
<event>
 7    1  0.5642630E-013  0.5052889E+02  0.7816164E-02  0.1300439E+00
        -11   -1    0    0    0    0  0.00000000000E+00  0.00000000000E+00  0.45593999997E+02  0.45594000000E+02  0.51100000000E-03 0.  1.
         11   -1    0    0    0    0 -0.00000000000E+00 -0.00000000000E+00 -0.45593999997E+02  0.45594000000E+02  0.51100000000E-03 0. -1.
    9900012    2    1    2    0    0  0.53944016399E+01 -0.31786230267E+01  0.40174124755E+02  0.50528886467E+02  0.30000080906E+02 0.  0.
         12    1    1    2    0    0 -0.53944016399E+01  0.31786230267E+01 -0.40174124755E+02  0.40659113533E+02  0.00000000000E+00 0. -1.
         11    1    3    3    0    0 -0.11262628578E+02 -0.11035150169E+00  0.10923660616E+02  0.15690294498E+02  0.51100000000E-03 0. -1.
        -11    1    3    3    0    0 -0.84631198096E+00 -0.70344200730E+00  0.83592466495E+00  0.13819713938E+01  0.51100000000E-03 0.  1.
        -12    1    3    3    0    0  0.17503342199E+02 -0.23648295177E+01  0.28414539474E+02  0.33456620575E+02  0.00000000000E+00 0.  1.
</event>
<event>
 7    1  0.5642630E-013  0.5052886E+02  0.7816164E-02  0.1300439E+00
        -11   -1    0    0    0    0  0.00000000000E+00  0.00000000000E+00  0.45593999997E+02  0.45594000000E+02  0.51100000000E-03 0.  1.
         11   -1    0    0    0    0 -0.00000000000E+00 -0.00000000000E+00 -0.45593999997E+02  0.45594000000E+02  0.51100000000E-03 0. -1.
    9900012    2    1    2    0    0  0.16925292224E+01  0.20708084067E+02  0.34949621997E+02  0.50528862299E+02  0.30000007443E+02 0.  0.
         12    1    1    2    0    0 -0.16925292224E+01 -0.20708084067E+02 -0.34949621997E+02  0.40659137701E+02  0.00000000000E+00 0. -1.
         11    1    3    3    0    0  0.27513975912E+01  0.20344823038E+01 -0.18491724585E+01  0.38895688697E+01  0.51100000000E-03 0. -1.
        -11    1    3    3    0    0 -0.87713777815E+01  0.98558638267E+01  0.30737175349E+02  0.33449201316E+02  0.51100000000E-03 0.  1.
         12    1    3    3    0    0  0.77125094127E+01  0.88177379370E+01  0.60616191061E+01  0.13190092113E+02  0.00000000000E+00 0. -1.
</event>
<event>
 7    1  0.5642630E-013  0.5052886E+02  0.7816164E-02  0.1300439E+00
        -11   -1    0    0    0    0  0.00000000000E+00  0.00000000000E+00  0.45593999997E+02  0.45594000000E+02  0.51100000000E-03 0.  1.
         11   -1    0    0    0    0 -0.00000000000E+00 -0.00000000000E+00 -0.45593999997E+02  0.45594000000E+02  0.51100000000E-03 0. -1.
    9900012    2    1    2    0    0  0.12979559191E+02 -0.15378270632E+02  0.35329950630E+02  0.50528861102E+02  0.30000003804E+02 0.  0.
         12    1    1    2    0    0 -0.12979559191E+02  0.15378270632E+02 -0.35329950630E+02  0.40659138898E+02  0.00000000000E+00 0. -1.
         11    1    3    3    0    0  0.89501445434E-01 -0.58586846580E+01 -0.15783932350E+01  0.60682387804E+01  0.51100000000E-03 0. -1.
        -11    1    3    3    0    0 -0.22447883352E+01 -0.73670475378E+01  0.21136743215E+02  0.22496096953E+02  0.51100000000E-03 0.  1.
        -12    1    3    3    0    0  0.15134846081E+02 -0.21525384367E+01  0.15771600650E+02  0.21964525369E+02  0.00000000000E+00 0.  1.
</event>
<event>
 7    1  0.5642630E-013  0.5052886E+02  0.7816164E-02  0.1300439E+00
        -11   -1    0    0    0    0  0.00000000000E+00  0.00000000000E+00  0.45593999997E+02  0.45594000000E+02  0.51100000000E-03 0.  1.
         11   -1    0    0    0    0 -0.00000000000E+00 -0.00000000000E+00 -0.45593999997E+02  0.45594000000E+02  0.51100000000E-03 0. -1.
    9900012    2    1    2    0    0  0.23581280731E+02 -0.28885179185E+02  0.16209111105E+02  0.50528860065E+02  0.30000000654E+02 0.  0.
         12    1    1    2    0    0 -0.23581280731E+02  0.28885179185E+02 -0.16209111105E+02  0.40659139935E+02  0.00000000000E+00 0. -1.
         11    1    3    3    0    0  0.61664323990E+01  0.33637461422E+01 -0.89555652183E+00  0.70810803120E+01  0.51100000000E-03 0. -1.
        -11    1    3    3    0    0  0.88939882087E+00  0.51808487741E+00  0.45444449473E+01  0.46595517320E+01  0.51100000000E-03 0.  1.
         12    1    3    3    0    0  0.16525449511E+02 -0.32767010204E+02  0.12560222679E+02  0.38788228021E+02  0.00000000000E+00 0. -1.
</event>
<event>
 7    1  0.5642630E-013  0.5052886E+02  0.7816164E-02  0.1300439E+00
        -11   -1    0    0    0    0  0.00000000000E+00  0.00000000000E+00  0.45593999997E+02  0.45594000000E+02  0.51100000000E-03 0. -1.
         11   -1    0    0    0    0 -0.00000000000E+00 -0.00000000000E+00 -0.45593999997E+02  0.45594000000E+02  0.51100000000E-03 0.  1.
    9900012    2    1    2    0    0 -0.11531143742E+02 -0.33615852794E+02 -0.19752792374E+02  0.50528860294E+02  0.30000001350E+02 0.  0.
         12    1    1    2    0    0  0.11531143742E+02  0.33615852794E+02  0.19752792374E+02  0.40659139706E+02  0.00000000000E+00 0. -1.
         11    1    3    3    0    0 -0.43043207693E+01 -0.29136235388E+02 -0.16099847665E+02  0.33565644414E+02  0.51100000000E-03 0. -1.
        -11    1    3    3    0    0  0.24059349506E+01  0.31555572376E+00 -0.55313631222E+01  0.60402050174E+01  0.51100000000E-03 0.  1.
         12    1    3    3    0    0 -0.96327579234E+01 -0.47951731302E+01  0.18784184138E+01  0.10923010862E+02  0.00000000000E+00 0. -1.
</event>
<event>
 7    1  0.5642630E-013  0.5052886E+02  0.7816164E-02  0.1300439E+00
        -11   -1    0    0    0    0  0.00000000000E+00  0.00000000000E+00  0.45593999997E+02  0.45594000000E+02  0.51100000000E-03 0.  1.
         11   -1    0    0    0    0 -0.00000000000E+00 -0.00000000000E+00 -0.45593999997E+02  0.45594000000E+02  0.51100000000E-03 0. -1.
    9900012    2    1    2    0    0 -0.11517431823E+02 -0.38486843307E+02  0.62671563659E+01  0.50528860899E+02  0.30000003189E+02 0.  0.
         12    1    1    2    0    0  0.11517431823E+02  0.38486843307E+02 -0.62671563659E+01  0.40659139101E+02  0.00000000000E+00 0. -1.
         11    1    3    3    0    0  0.84683466928E+01 -0.17882165703E+02  0.71891937232E+00  0.19799030059E+02  0.51100000000E-03 0. -1.
        -11    1    3    3    0    0 -0.48511165024E+00  0.16560261079E+00 -0.13265102623E+01  0.14221066328E+01  0.51100000000E-03 0.  1.
        -12    1    3    3    0    0 -0.19500666866E+02 -0.20770280214E+02  0.68747472559E+01  0.29307724207E+02  0.00000000000E+00 0.  1.
</event>
<event>
 7    1  0.5642630E-013  0.5052886E+02  0.7816164E-02  0.1300439E+00
        -11   -1    0    0    0    0  0.00000000000E+00  0.00000000000E+00  0.45593999997E+02  0.45594000000E+02  0.51100000000E-03 0. -1.
         11   -1    0    0    0    0 -0.00000000000E+00 -0.00000000000E+00 -0.45593999997E+02  0.45594000000E+02  0.51100000000E-03 0.  1.
    9900012    2    1    2    0    0  0.36443762709E+02  0.76965720238E+01 -0.16302788578E+02  0.50528856173E+02  0.29999988824E+02 0.  0.
         12    1    1    2    0    0 -0.36443762709E+02 -0.76965720238E+01  0.16302788578E+02  0.40659143827E+02  0.00000000000E+00 0. -1.
         11    1    3    3    0    0  0.28708894885E+01 -0.57843652205E+01 -0.61672263521E+01  0.89294775098E+01  0.51100000000E-03 0. -1.
        -11    1    3    3    0    0  0.93740910031E+01  0.75899022203E+00 -0.10711288577E+02  0.14254169619E+02  0.51100000000E-03 0.  1.
         12    1    3    3    0    0  0.24198782217E+02  0.12721947022E+02  0.57572635051E+00  0.27345209044E+02  0.00000000000E+00 0. -1.
</event>
<event>
 7    1  0.5642630E-013  0.5052885E+02  0.7816164E-02  0.1300439E+00
        -11   -1    0    0    0    0  0.00000000000E+00  0.00000000000E+00  0.45593999997E+02  0.45594000000E+02  0.51100000000E-03 0. -1.
         11   -1    0    0    0    0 -0.00000000000E+00 -0.00000000000E+00 -0.45593999997E+02  0.45594000000E+02  0.51100000000E-03 0.  1.
    9900012    2    1    2    0    0 -0.23403926564E+02 -0.98197630895E+00 -0.33233393775E+02  0.50528849518E+02  0.29999968595E+02 0.  0.
         12    1    1    2    0    0  0.23403926564E+02  0.98197630895E+00  0.33233393775E+02  0.40659150482E+02  0.00000000000E+00 0. -1.
         11    1    3    3    0    0  0.54061313792E+01 -0.18158135929E+01 -0.58399037953E+01  0.81625922411E+01  0.51100000000E-03 0. -1.
        -11    1    3    3    0    0 -0.75826827595E+00  0.33739567712E+01 -0.62645788413E+01  0.71556623308E+01  0.51100000000E-03 0.  1.
         12    1    3    3    0    0 -0.28051789667E+02 -0.25401194872E+01 -0.21128911139E+02  0.35210594946E+02  0.00000000000E+00 0. -1.
</event>
<event>
 7    1  0.5642630E-013  0.5052885E+02  0.7816164E-02  0.1300439E+00
        -11   -1    0    0    0    0  0.00000000000E+00  0.00000000000E+00  0.45593999997E+02  0.45594000000E+02  0.51100000000E-03 0.  1.
         11   -1    0    0    0    0 -0.00000000000E+00 -0.00000000000E+00 -0.45593999997E+02  0.45594000000E+02  0.51100000000E-03 0. -1.
    9900012    2    1    2    0    0 -0.90780475435E+01  0.60418628446E+01  0.39169517744E+02  0.50528853746E+02  0.29999981446E+02 0.  0.
         12    1    1    2    0    0  0.90780475435E+01 -0.60418628446E+01 -0.39169517744E+02  0.40659146254E+02  0.00000000000E+00 0. -1.
         11    1    3    3    0    0  0.19998065733E+01  0.68284529199E+01  0.52081324995E+01  0.88176890399E+01  0.51100000000E-03 0. -1.
        -11    1    3    3    0    0 -0.52033314265E+01  0.44182957640E+01  0.33121657875E+02  0.33817750014E+02  0.51100000000E-03 0.  1.
         12    1    3    3    0    0 -0.58745226904E+01 -0.52048858394E+01  0.83972736975E+00  0.78934146918E+01  0.00000000000E+00 0. -1.
</event>
<event>
 7    1  0.5642630E-013  0.5052886E+02  0.7816164E-02  0.1300439E+00
        -11   -1    0    0    0    0  0.00000000000E+00  0.00000000000E+00  0.45593999997E+02  0.45594000000E+02  0.51100000000E-03 0.  1.
         11   -1    0    0    0    0 -0.00000000000E+00 -0.00000000000E+00 -0.45593999997E+02  0.45594000000E+02  0.51100000000E-03 0. -1.
    9900012    2    1    2    0    0  0.24537110875E+02  0.14902977702E+02 -0.28792311254E+02  0.50528859061E+02  0.29999997603E+02 0.  0.
         12    1    1    2    0    0 -0.24537110875E+02 -0.14902977702E+02  0.28792311254E+02  0.40659140939E+02  0.00000000000E+00 0. -1.
         11    1    3    3    0    0  0.16381599145E+01  0.25923570838E-01 -0.16648519475E+02  0.16728940221E+02  0.51100000000E-03 0. -1.
        -11    1    3    3    0    0  0.29653872723E+01 -0.19482496387E+00 -0.79149660347E+01  0.84544760946E+01  0.51100000000E-03 0.  1.
         12    1    3    3    0    0  0.19933563689E+02  0.15071879095E+02 -0.42288257441E+01  0.25345442746E+02  0.00000000000E+00 0. -1.
</event>
<event>
 7    1  0.5642630E-013  0.5052886E+02  0.7816164E-02  0.1300439E+00
        -11   -1    0    0    0    0  0.00000000000E+00  0.00000000000E+00  0.45593999997E+02  0.45594000000E+02  0.51100000000E-03 0. -1.
         11   -1    0    0    0    0 -0.00000000000E+00 -0.00000000000E+00 -0.45593999997E+02  0.45594000000E+02  0.51100000000E-03 0.  1.
    9900012    2    1    2    0    0  0.12991579509E+02  0.12801408441E+02 -0.36338799883E+02  0.50528861136E+02  0.30000003909E+02 0.  0.
         12    1    1    2    0    0 -0.12991579509E+02 -0.12801408441E+02  0.36338799883E+02  0.40659138864E+02  0.00000000000E+00 0. -1.
         11    1    3    3    0    0 -0.18502642880E+01  0.63962612004E+00  0.82022642312E+00  0.21225859595E+01  0.51100000000E-03 0.  1.
        -11    1    3    3    0    0 -0.97299426485E+00  0.34617458140E+01  0.28014606887E+01  0.45583532302E+01  0.51100000000E-03 0. -1.
        -12    1    3    3    0    0  0.15814838062E+02  0.87000365071E+01 -0.39960486995E+02  0.43847921946E+02  0.00000000000E+00 0.  1.
</event>
<event>
 7    1  0.5642630E-013  0.5052886E+02  0.7816164E-02  0.1300439E+00
        -11   -1    0    0    0    0  0.00000000000E+00  0.00000000000E+00  0.45593999997E+02  0.45594000000E+02  0.51100000000E-03 0. -1.
         11   -1    0    0    0    0 -0.00000000000E+00 -0.00000000000E+00 -0.45593999997E+02  0.45594000000E+02  0.51100000000E-03 0.  1.
    9900012    2    1    2    0    0  0.18256587110E+01 -0.40617963104E+02 -0.11827452995E+00  0.50528856560E+02  0.29999989999E+02 0.  0.
         12    1    1    2    0    0 -0.18256587110E+01  0.40617963104E+02  0.11827452995E+00  0.40659143440E+02  0.00000000000E+00 0. -1.
         11    1    3    3    0    0  0.57786377326E+01 -0.15699069240E+02  0.13814804632E+01  0.16785765326E+02  0.51100000000E-03 0. -1.
        -11    1    3    3    0    0  0.79581051354E+01 -0.75958811827E+01  0.44919830183E+01  0.11883045064E+02  0.51100000000E-03 0.  1.
        -12    1    3    3    0    0 -0.11911084157E+02 -0.17323012681E+02 -0.59917380114E+01  0.21860046170E+02  0.00000000000E+00 0.  1.
</event>
<event>
 7    1  0.5642630E-013  0.5052889E+02  0.7816164E-02  0.1300439E+00
        -11   -1    0    0    0    0  0.00000000000E+00  0.00000000000E+00  0.45593999997E+02  0.45594000000E+02  0.51100000000E-03 0.  1.
         11   -1    0    0    0    0 -0.00000000000E+00 -0.00000000000E+00 -0.45593999997E+02  0.45594000000E+02  0.51100000000E-03 0. -1.
    9900012    2    1    2    0    0 -0.37130770204E+02 -0.16557176441E+02 -0.57346623533E+00  0.50528892150E+02  0.30000098180E+02 0.  0.
         12    1    1    2    0    0  0.37130770204E+02  0.16557176441E+02  0.57346623533E+00  0.40659107850E+02  0.00000000000E+00 0. -1.
         11    1    3    3    0    0 -0.28882264811E+02 -0.80392593963E+01 -0.90798905501E+01  0.31325059057E+02  0.51100000000E-03 0. -1.
        -11    1    3    3    0    0 -0.56858601520E+01 -0.66027141048E+01 -0.13714831403E+01  0.88207599153E+01  0.51100000000E-03 0.  1.
        -12    1    3    3    0    0 -0.25626452408E+01 -0.19152029400E+01  0.98779074551E+01  0.10383073178E+02  0.00000000000E+00 0.  1.
</event>
<event>
 7    1  0.5642630E-013  0.5052886E+02  0.7816164E-02  0.1300439E+00
        -11   -1    0    0    0    0  0.00000000000E+00  0.00000000000E+00  0.45593999997E+02  0.45594000000E+02  0.51100000000E-03 0.  1.
         11   -1    0    0    0    0 -0.00000000000E+00 -0.00000000000E+00 -0.45593999997E+02  0.45594000000E+02  0.51100000000E-03 0. -1.
    9900012    2    1    2    0    0  0.28365868704E+02  0.29048536599E+02 -0.21737874780E+01  0.50528864030E+02  0.30000012704E+02 0.  0.
         12    1    1    2    0    0 -0.28365868704E+02 -0.29048536599E+02  0.21737874780E+01  0.40659135970E+02  0.00000000000E+00 0. -1.
         11    1    3    3    0    0  0.10035995160E+02  0.64783359797E+01 -0.22653429057E+01  0.12158199483E+02  0.51100000000E-03 0. -1.
        -11    1    3    3    0    0  0.19780002458E+02  0.85600111896E+01 -0.69206530583E+01  0.22636645684E+02  0.51100000000E-03 0.  1.
         12    1    3    3    0    0 -0.14501289144E+01  0.14010189430E+02  0.70122084860E+01  0.15734018863E+02  0.00000000000E+00 0. -1.
</event>
<event>
 7    1  0.5642630E-013  0.5052892E+02  0.7816164E-02  0.1300439E+00
        -11   -1    0    0    0    0  0.00000000000E+00  0.00000000000E+00  0.45593999997E+02  0.45594000000E+02  0.51100000000E-03 0.  1.
         11   -1    0    0    0    0 -0.00000000000E+00 -0.00000000000E+00 -0.45593999997E+02  0.45594000000E+02  0.51100000000E-03 0. -1.
    9900012    2    1    2    0    0  0.21612230380E+02  0.20643001114E+02  0.27566991870E+02  0.50528916909E+02  0.30000173437E+02 0.  0.
         12    1    1    2    0    0 -0.21612230380E+02 -0.20643001114E+02 -0.27566991870E+02  0.40659083091E+02  0.00000000000E+00 0. -1.
         11    1    3    3    0    0  0.25197811059E+01  0.66786316763E+00  0.74254188983E+01  0.78697003824E+01  0.51100000000E-03 0. -1.
        -11    1    3    3    0    0  0.17192771954E+02  0.11947443354E-01  0.63814384931E+01  0.18338874222E+02  0.51100000000E-03 0.  1.
         12    1    3    3    0    0  0.18996773201E+01  0.19963190503E+02  0.13760134479E+02  0.24320342305E+02  0.00000000000E+00 0. -1.
</event>
<event>
 7    1  0.5642630E-013  0.5052885E+02  0.7816164E-02  0.1300439E+00
        -11   -1    0    0    0    0  0.00000000000E+00  0.00000000000E+00  0.45593999997E+02  0.45594000000E+02  0.51100000000E-03 0.  1.
         11   -1    0    0    0    0 -0.00000000000E+00 -0.00000000000E+00 -0.45593999997E+02  0.45594000000E+02  0.51100000000E-03 0. -1.
    9900012    2    1    2    0    0  0.15720525156E+02  0.29320982795E+02  0.23373305615E+02  0.50528851477E+02  0.29999974550E+02 0.  0.
         12    1    1    2    0    0 -0.15720525156E+02 -0.29320982795E+02 -0.23373305615E+02  0.40659148523E+02  0.00000000000E+00 0. -1.
         11    1    3    3    0    0  0.21961674314E+01  0.38316708208E+01  0.23254065041E+01  0.49912291408E+01  0.51100000000E-03 0. -1.
        -11    1    3    3    0    0  0.19809203848E+02  0.16633068122E+02  0.52924597273E+01  0.26402152232E+02  0.51100000000E-03 0.  1.
         12    1    3    3    0    0 -0.62848461229E+01  0.88562438518E+01  0.15755439383E+02  0.19135470104E+02  0.00000000000E+00 0. -1.
</event>
<event>
 7    1  0.5642630E-013  0.5052886E+02  0.7816164E-02  0.1300439E+00
        -11   -1    0    0    0    0  0.00000000000E+00  0.00000000000E+00  0.45593999997E+02  0.45594000000E+02  0.51100000000E-03 0.  1.
         11   -1    0    0    0    0 -0.00000000000E+00 -0.00000000000E+00 -0.45593999997E+02  0.45594000000E+02  0.51100000000E-03 0. -1.
    9900012    2    1    2    0    0 -0.69558507990E+01  0.32029157052E+02  0.24060649759E+02  0.50528860454E+02  0.30000001835E+02 0.  0.
         12    1    1    2    0    0  0.69558507990E+01 -0.32029157052E+02 -0.24060649759E+02  0.40659139546E+02  0.00000000000E+00 0. -1.
         11    1    3    3    0    0 -0.87415843586E+00 -0.12519432303E+01 -0.17350112691E+01  0.23112289346E+01  0.51100000000E-03 0. -1.
        -11    1    3    3    0    0 -0.28486866253E+00  0.30123170811E+01 -0.42231299157E+01  0.51951930569E+01  0.51100000000E-03 0.  1.
        -12    1    3    3    0    0 -0.57968237006E+01  0.30268783201E+02  0.30018790944E+02  0.43022438462E+02  0.00000000000E+00 0.  1.
</event>
<event>
 7    1  0.5642630E-013  0.5052886E+02  0.7816164E-02  0.1300439E+00
        -11   -1    0    0    0    0  0.00000000000E+00  0.00000000000E+00  0.45593999997E+02  0.45594000000E+02  0.51100000000E-03 0. -1.
         11   -1    0    0    0    0 -0.00000000000E+00 -0.00000000000E+00 -0.45593999997E+02  0.45594000000E+02  0.51100000000E-03 0.  1.
    9900012    2    1    2    0    0  0.10429515852E+02 -0.20326407624E+02  0.33633733775E+02  0.50528859632E+02  0.29999999338E+02 0.  0.
         12    1    1    2    0    0 -0.10429515852E+02  0.20326407624E+02 -0.33633733775E+02  0.40659140368E+02  0.00000000000E+00 0. -1.
         11    1    3    3    0    0  0.19654598217E+01 -0.57997102400E+01  0.12371619916E+02  0.13804225830E+02  0.51100000000E-03 0. -1.
        -11    1    3    3    0    0 -0.79494402901E+01 -0.45888699635E+01  0.12807351500E+02  0.15756889959E+02  0.51100000000E-03 0.  1.
        -12    1    3    3    0    0  0.16413496320E+02 -0.99378274209E+01  0.84547623593E+01  0.20967743843E+02  0.00000000000E+00 0.  1.
</event>
<event>
 7    1  0.5642630E-013  0.5052888E+02  0.7816164E-02  0.1300439E+00
        -11   -1    0    0    0    0  0.00000000000E+00  0.00000000000E+00  0.45593999997E+02  0.45594000000E+02  0.51100000000E-03 0.  1.
         11   -1    0    0    0    0 -0.00000000000E+00 -0.00000000000E+00 -0.45593999997E+02  0.45594000000E+02  0.51100000000E-03 0. -1.
    9900012    2    1    2    0    0  0.12852688657E+02  0.22382500622E+02  0.31416489089E+02  0.50528883845E+02  0.30000072935E+02 0.  0.
         12    1    1    2    0    0 -0.12852688657E+02 -0.22382500622E+02 -0.31416489089E+02  0.40659116155E+02  0.00000000000E+00 0. -1.
         11    1    3    3    0    0 -0.15384769574E+01 -0.15108925600E+01 -0.37536217997E+01  0.43289010791E+01  0.51100000000E-03 0. -1.
        -11    1    3    3    0    0  0.78544280204E+01  0.36041013458E+01  0.10070852870E+02  0.13270405564E+02  0.51100000000E-03 0.  1.
        -12    1    3    3    0    0  0.65367375944E+01  0.20289291836E+02  0.25099258019E+02  0.32929577202E+02  0.00000000000E+00 0.  1.
</event>
<event>
 7    1  0.5642630E-013  0.5052887E+02  0.7816164E-02  0.1300439E+00
        -11   -1    0    0    0    0  0.00000000000E+00  0.00000000000E+00  0.45593999997E+02  0.45594000000E+02  0.51100000000E-03 0.  1.
         11   -1    0    0    0    0 -0.00000000000E+00 -0.00000000000E+00 -0.45593999997E+02  0.45594000000E+02  0.51100000000E-03 0. -1.
    9900012    2    1    2    0    0 -0.30529442742E+02  0.25225435405E+02  0.92084518170E+01  0.50528867565E+02  0.30000023451E+02 0.  0.
         12    1    1    2    0    0  0.30529442742E+02 -0.25225435405E+02 -0.92084518170E+01  0.40659132435E+02  0.00000000000E+00 0. -1.
         11    1    3    3    0    0  0.10709415352E+00 -0.15585357430E+01  0.61593976243E+01  0.63544222535E+01  0.51100000000E-03 0. -1.
        -11    1    3    3    0    0 -0.98183210473E+01  0.30884008756E+01 -0.52570513140E+01  0.11557432108E+02  0.51100000000E-03 0.  1.
        -12    1    3    3    0    0 -0.20818215848E+02  0.23695570272E+02  0.83061055066E+01  0.32617013203E+02  0.00000000000E+00 0.  1.
</event>
<event>
 7    1  0.5642630E-013  0.5052892E+02  0.7816164E-02  0.1300439E+00
        -11   -1    0    0    0    0  0.00000000000E+00  0.00000000000E+00  0.45593999997E+02  0.45594000000E+02  0.51100000000E-03 0. -1.
         11   -1    0    0    0    0 -0.00000000000E+00 -0.00000000000E+00 -0.45593999997E+02  0.45594000000E+02  0.51100000000E-03 0.  1.
    9900012    2    1    2    0    0  0.31408704877E+02 -0.25374910961E+02  0.47715700693E+01  0.50528920703E+02  0.30000184969E+02 0.  0.
         12    1    1    2    0    0 -0.31408704877E+02  0.25374910961E+02 -0.47715700693E+01  0.40659079297E+02  0.00000000000E+00 0. -1.
         11    1    3    3    0    0  0.11328558573E+02 -0.21375413315E+02 -0.18165698676E+01  0.24259935286E+02  0.51100000000E-03 0. -1.
        -11    1    3    3    0    0  0.14113055799E+02 -0.17731079841E+01 -0.32110430361E+01  0.14581942722E+02  0.51100000000E-03 0.  1.
         12    1    3    3    0    0  0.59670905049E+01 -0.22263896623E+01  0.97991829731E+01  0.11687042695E+02  0.00000000000E+00 0. -1.
</event>
<event>
 7    1  0.5642630E-013  0.5052886E+02  0.7816164E-02  0.1300439E+00
        -11   -1    0    0    0    0  0.00000000000E+00  0.00000000000E+00  0.45593999997E+02  0.45594000000E+02  0.51100000000E-03 0. -1.
         11   -1    0    0    0    0 -0.00000000000E+00 -0.00000000000E+00 -0.45593999997E+02  0.45594000000E+02  0.51100000000E-03 0.  1.
    9900012    2    1    2    0    0 -0.28891761204E+02 -0.28303802283E+02 -0.41625039517E+01  0.50528861688E+02  0.30000005587E+02 0.  0.
         12    1    1    2    0    0  0.28891761204E+02  0.28303802283E+02  0.41625039517E+01  0.40659138312E+02  0.00000000000E+00 0. -1.
         11    1    3    3    0    0 -0.13903129290E+02 -0.21688310711E+02  0.69243391908E+01  0.26676324692E+02  0.51100000000E-03 0. -1.
        -11    1    3    3    0    0 -0.21680211793E+01 -0.28054836755E+01  0.28405070481E+01  0.45430755044E+01  0.51100000000E-03 0.  1.
        -12    1    3    3    0    0 -0.12820610735E+02 -0.38100078960E+01 -0.13927350191E+02  0.19309461492E+02  0.00000000000E+00 0.  1.
</event>
<event>
 7    1  0.5642630E-013  0.5052885E+02  0.7816164E-02  0.1300439E+00
        -11   -1    0    0    0    0  0.00000000000E+00  0.00000000000E+00  0.45593999997E+02  0.45594000000E+02  0.51100000000E-03 0.  1.
         11   -1    0    0    0    0 -0.00000000000E+00 -0.00000000000E+00 -0.45593999997E+02  0.45594000000E+02  0.51100000000E-03 0. -1.
    9900012    2    1    2    0    0  0.23411836172E+02 -0.22114424275E+02  0.24819433460E+02  0.50528854519E+02  0.29999983795E+02 0.  0.
         12    1    1    2    0    0 -0.23411836172E+02  0.22114424275E+02 -0.24819433460E+02  0.40659145481E+02  0.00000000000E+00 0. -1.
         11    1    3    3    0    0  0.59365937601E+01 -0.28152784099E+01  0.37342679699E+01  0.75573603546E+01  0.51100000000E-03 0.  1.
        -11    1    3    3    0    0  0.21626248552E+02 -0.52912505006E+01  0.90133015552E+01  0.24019399732E+02  0.51100000000E-03 0. -1.
         12    1    3    3    0    0 -0.41510061396E+01 -0.14007895365E+02  0.12071863935E+02  0.18952094433E+02  0.00000000000E+00 0. -1.
</event>
<event>
 7    1  0.5642630E-013  0.5052887E+02  0.7816164E-02  0.1300439E+00
        -11   -1    0    0    0    0  0.00000000000E+00  0.00000000000E+00  0.45593999997E+02  0.45594000000E+02  0.51100000000E-03 0. -1.
         11   -1    0    0    0    0 -0.00000000000E+00 -0.00000000000E+00 -0.45593999997E+02  0.45594000000E+02  0.51100000000E-03 0.  1.
    9900012    2    1    2    0    0 -0.35215043267E+02 -0.33933719827E+01 -0.20038730368E+02  0.50528868671E+02  0.30000026811E+02 0.  0.
         12    1    1    2    0    0  0.35215043267E+02  0.33933719827E+01  0.20038730368E+02  0.40659131329E+02  0.00000000000E+00 0. -1.
         11    1    3    3    0    0 -0.96210102606E+01  0.80044863683E+01  0.33653389186E+01  0.12959982514E+02  0.51100000000E-03 0. -1.
        -11    1    3    3    0    0 -0.76656882551E+01 -0.56374746406E+01 -0.34226531429E+01  0.10112292101E+02  0.51100000000E-03 0.  1.
        -12    1    3    3    0    0 -0.17928344751E+02 -0.57603837104E+01 -0.19981416144E+02  0.27456594055E+02  0.00000000000E+00 0.  1.
</event>
<event>
 7    1  0.5642630E-013  0.5052886E+02  0.7816164E-02  0.1300439E+00
        -11   -1    0    0    0    0  0.00000000000E+00  0.00000000000E+00  0.45593999997E+02  0.45594000000E+02  0.51100000000E-03 0.  1.
         11   -1    0    0    0    0 -0.00000000000E+00 -0.00000000000E+00 -0.45593999997E+02  0.45594000000E+02  0.51100000000E-03 0. -1.
    9900012    2    1    2    0    0  0.31806340241E+02  0.23396515655E+02  0.97018409201E+01  0.50528856606E+02  0.29999990139E+02 0.  0.
         12    1    1    2    0    0 -0.31806340241E+02 -0.23396515655E+02 -0.97018409201E+01  0.40659143394E+02  0.00000000000E+00 0. -1.
         11    1    3    3    0    0  0.15393601197E+02  0.18964592014E+00  0.95061851490E+01  0.18093271671E+02  0.51100000000E-03 0. -1.
        -11    1    3    3    0    0  0.17626314727E+02  0.15663816234E+02  0.39727485397E+01  0.23912859325E+02  0.51100000000E-03 0.  1.
         12    1    3    3    0    0 -0.12135756831E+01  0.75430535006E+01 -0.37770927687E+01  0.85227256106E+01  0.00000000000E+00 0. -1.
</event>
<event>
 7    1  0.5642630E-013  0.5052886E+02  0.7816164E-02  0.1300439E+00
        -11   -1    0    0    0    0  0.00000000000E+00  0.00000000000E+00  0.45593999997E+02  0.45594000000E+02  0.51100000000E-03 0.  1.
         11   -1    0    0    0    0 -0.00000000000E+00 -0.00000000000E+00 -0.45593999997E+02  0.45594000000E+02  0.51100000000E-03 0. -1.
    9900012    2    1    2    0    0  0.15874328464E+02  0.29268351593E+01  0.37317623066E+02  0.50528860074E+02  0.30000000681E+02 0.  0.
         12    1    1    2    0    0 -0.15874328464E+02 -0.29268351593E+01 -0.37317623066E+02  0.40659139926E+02  0.00000000000E+00 0. -1.
         11    1    3    3    0    0  0.21747898143E+01  0.93888944013E+00  0.20126731059E+01  0.31083882334E+01  0.51100000000E-03 0. -1.
        -11    1    3    3    0    0  0.13156797719E+02 -0.73267677837E+01  0.52463224684E+01  0.15946998215E+02  0.51100000000E-03 0.  1.
         12    1    3    3    0    0  0.54274093055E+00  0.93147135029E+01  0.30058627492E+02  0.31473473625E+02  0.00000000000E+00 0. -1.
</event>
<event>
 7    1  0.5642630E-013  0.5052886E+02  0.7816164E-02  0.1300439E+00
        -11   -1    0    0    0    0  0.00000000000E+00  0.00000000000E+00  0.45593999997E+02  0.45594000000E+02  0.51100000000E-03 0.  1.
         11   -1    0    0    0    0 -0.00000000000E+00 -0.00000000000E+00 -0.45593999997E+02  0.45594000000E+02  0.51100000000E-03 0. -1.
    9900012    2    1    2    0    0 -0.10635814011E+02  0.23516498879E+02  0.31416862417E+02  0.50528861995E+02  0.30000006520E+02 0.  0.
         12    1    1    2    0    0  0.10635814011E+02 -0.23516498879E+02 -0.31416862417E+02  0.40659138005E+02  0.00000000000E+00 0. -1.
         11    1    3    3    0    0 -0.51512865714E+00  0.24023366192E+01 -0.20400634678E+01  0.31934993313E+01  0.51100000000E-03 0. -1.
        -11    1    3    3    0    0  0.11191596720E+01  0.14328296957E+02  0.37450567368E+01  0.14851870666E+02  0.51100000000E-03 0.  1.
        -12    1    3    3    0    0 -0.11239845026E+02  0.67858653026E+01  0.29711869148E+02  0.32483491998E+02  0.00000000000E+00 0.  1.
</event>
<event>
 7    1  0.5642630E-013  0.5052887E+02  0.7816164E-02  0.1300439E+00
        -11   -1    0    0    0    0  0.00000000000E+00  0.00000000000E+00  0.45593999997E+02  0.45594000000E+02  0.51100000000E-03 0. -1.
         11   -1    0    0    0    0 -0.00000000000E+00 -0.00000000000E+00 -0.45593999997E+02  0.45594000000E+02  0.51100000000E-03 0.  1.
    9900012    2    1    2    0    0  0.37570352930E+02 -0.12013159082E+02 -0.98649796587E+01  0.50528865305E+02  0.30000016582E+02 0.  0.
         12    1    1    2    0    0 -0.37570352930E+02  0.12013159082E+02  0.98649796587E+01  0.40659134695E+02  0.00000000000E+00 0. -1.
         11    1    3    3    0    0  0.86357794482E+01 -0.93095699033E+01  0.16749875391E+01  0.12808214629E+02  0.51100000000E-03 0. -1.
        -11    1    3    3    0    0 -0.34300708248E+00 -0.60070012022E+01  0.16086343303E+00  0.60189363351E+01  0.51100000000E-03 0.  1.
        -12    1    3    3    0    0  0.29277580565E+02  0.33034120233E+01 -0.11700830631E+02  0.31701714341E+02  0.00000000000E+00 0.  1.
</event>
<event>
 7    1  0.5642630E-013  0.5052886E+02  0.7816164E-02  0.1300439E+00
        -11   -1    0    0    0    0  0.00000000000E+00  0.00000000000E+00  0.45593999997E+02  0.45594000000E+02  0.51100000000E-03 0. -1.
         11   -1    0    0    0    0 -0.00000000000E+00 -0.00000000000E+00 -0.45593999997E+02  0.45594000000E+02  0.51100000000E-03 0.  1.
    9900012    2    1    2    0    0  0.36679173290E+02  0.15938149904E+02  0.73334582559E+01  0.50528856064E+02  0.29999988492E+02 0.  0.
         12    1    1    2    0    0 -0.36679173290E+02 -0.15938149904E+02 -0.73334582559E+01  0.40659143936E+02  0.00000000000E+00 0. -1.
         11    1    3    3    0    0  0.65983264236E+01  0.19911079043E+01  0.10195604272E+02  0.12306614848E+02  0.51100000000E-03 0. -1.
        -11    1    3    3    0    0  0.71905209076E+01  0.79376248374E+00  0.69746774630E+01  0.10048869378E+02  0.51100000000E-03 0.  1.
         12    1    3    3    0    0  0.22890325959E+02  0.13153279516E+02 -0.98368234796E+01  0.28173371838E+02  0.00000000000E+00 0. -1.
</event>
<event>
 7    1  0.5642630E-013  0.5052886E+02  0.7816164E-02  0.1300439E+00
        -11   -1    0    0    0    0  0.00000000000E+00  0.00000000000E+00  0.45593999997E+02  0.45594000000E+02  0.51100000000E-03 0. -1.
         11   -1    0    0    0    0 -0.00000000000E+00 -0.00000000000E+00 -0.45593999997E+02  0.45594000000E+02  0.51100000000E-03 0.  1.
    9900012    2    1    2    0    0 -0.36119544241E+02 -0.14592628491E+02 -0.11644716363E+02  0.50528859556E+02  0.29999999107E+02 0.  0.
         12    1    1    2    0    0  0.36119544241E+02  0.14592628491E+02  0.11644716363E+02  0.40659140444E+02  0.00000000000E+00 0. -1.
         11    1    3    3    0    0 -0.10131364459E+02 -0.99241603869E+01  0.38692436481E+01  0.14700494952E+02  0.51100000000E-03 0. -1.
        -11    1    3    3    0    0 -0.18043301644E+02  0.16413397902E+01 -0.10333826934E+01  0.18147248017E+02  0.51100000000E-03 0.  1.
         12    1    3    3    0    0 -0.79448781381E+01 -0.63098078947E+01 -0.14480577318E+02  0.17681116587E+02  0.00000000000E+00 0. -1.
</event>
<event>
 7    1  0.5642630E-013  0.5052886E+02  0.7816164E-02  0.1300439E+00
        -11   -1    0    0    0    0  0.00000000000E+00  0.00000000000E+00  0.45593999997E+02  0.45594000000E+02  0.51100000000E-03 0.  1.
         11   -1    0    0    0    0 -0.00000000000E+00 -0.00000000000E+00 -0.45593999997E+02  0.45594000000E+02  0.51100000000E-03 0. -1.
    9900012    2    1    2    0    0  0.16614289321E+02  0.36980595084E+02  0.30930046580E+01  0.50528859574E+02  0.29999999160E+02 0.  0.
         12    1    1    2    0    0 -0.16614289321E+02 -0.36980595084E+02 -0.30930046580E+01  0.40659140426E+02  0.00000000000E+00 0. -1.
         11    1    3    3    0    0  0.12214933736E+02  0.17168987057E+02  0.47586960376E+01  0.21601479370E+02  0.51100000000E-03 0. -1.
        -11    1    3    3    0    0  0.39392838591E+01  0.13845227280E+02  0.88001086446E+01  0.16871579303E+02  0.51100000000E-03 0.  1.
         12    1    3    3    0    0  0.46007172617E+00  0.59663807474E+01 -0.10465800024E+02  0.12055800901E+02  0.00000000000E+00 0. -1.
</event>
<event>
 7    1  0.5642630E-013  0.5052886E+02  0.7816164E-02  0.1300439E+00
        -11   -1    0    0    0    0  0.00000000000E+00  0.00000000000E+00  0.45593999997E+02  0.45594000000E+02  0.51100000000E-03 0.  1.
         11   -1    0    0    0    0 -0.00000000000E+00 -0.00000000000E+00 -0.45593999997E+02  0.45594000000E+02  0.51100000000E-03 0. -1.
    9900012    2    1    2    0    0  0.20517107000E+02  0.68496253086E+01  0.34428131655E+02  0.50528864547E+02  0.30000014278E+02 0.  0.
         12    1    1    2    0    0 -0.20517107000E+02 -0.68496253086E+01 -0.34428131655E+02  0.40659135453E+02  0.00000000000E+00 0. -1.
         11    1    3    3    0    0  0.99037074256E+01  0.60505580252E+00  0.12571155210E+02  0.16015100901E+02  0.51100000000E-03 0. -1.
        -11    1    3    3    0    0  0.14175163536E+02  0.80647814242E+00  0.23813633797E+02  0.27724985539E+02  0.51100000000E-03 0.  1.
        -12    1    3    3    0    0 -0.35617639612E+01  0.54380913637E+01 -0.19566573524E+01  0.67887781073E+01  0.00000000000E+00 0.  1.
</event>
<event>
 7    1  0.5642630E-013  0.5052885E+02  0.7816164E-02  0.1300439E+00
        -11   -1    0    0    0    0  0.00000000000E+00  0.00000000000E+00  0.45593999997E+02  0.45594000000E+02  0.51100000000E-03 0.  1.
         11   -1    0    0    0    0 -0.00000000000E+00 -0.00000000000E+00 -0.45593999997E+02  0.45594000000E+02  0.51100000000E-03 0. -1.
    9900012    2    1    2    0    0 -0.32892289350E+02 -0.57587875884E+01  0.23196980737E+02  0.50528852831E+02  0.29999978666E+02 0.  0.
         12    1    1    2    0    0  0.32892289350E+02  0.57587875884E+01 -0.23196980737E+02  0.40659147169E+02  0.00000000000E+00 0. -1.
         11    1    3    3    0    0 -0.60940051539E+01 -0.41486959244E+01 -0.19296773845E+01  0.76205138776E+01  0.51100000000E-03 0. -1.
        -11    1    3    3    0    0 -0.28878823065E+02 -0.23462246485E-01  0.15184267765E+02  0.32627426499E+02  0.51100000000E-03 0.  1.
        -12    1    3    3    0    0  0.20805388693E+01 -0.15866294175E+01  0.99423903570E+01  0.10280912455E+02  0.00000000000E+00 0.  1.
</event>
<event>
 7    1  0.5642630E-013  0.5052885E+02  0.7816164E-02  0.1300439E+00
        -11   -1    0    0    0    0  0.00000000000E+00  0.00000000000E+00  0.45593999997E+02  0.45594000000E+02  0.51100000000E-03 0.  1.
         11   -1    0    0    0    0 -0.00000000000E+00 -0.00000000000E+00 -0.45593999997E+02  0.45594000000E+02  0.51100000000E-03 0. -1.
    9900012    2    1    2    0    0  0.19560186680E+02 -0.27531119606E+02  0.22640736761E+02  0.50528850835E+02  0.29999972598E+02 0.  0.
         12    1    1    2    0    0 -0.19560186680E+02  0.27531119606E+02 -0.22640736761E+02  0.40659149165E+02  0.00000000000E+00 0. -1.
         11    1    3    3    0    0  0.35540020461E+01 -0.23370164431E+01  0.22258246708E+01  0.48007157930E+01  0.51100000000E-03 0. -1.
        -11    1    3    3    0    0  0.63327125316E-01  0.58909535834E+01  0.19000984527E+01  0.61901307610E+01  0.51100000000E-03 0.  1.
        -12    1    3    3    0    0  0.15942857508E+02 -0.31085056747E+02  0.18514813638E+02  0.39538004281E+02  0.00000000000E+00 0.  1.
</event>
<event>
 7    1  0.5642630E-013  0.5052885E+02  0.7816164E-02  0.1300439E+00
        -11   -1    0    0    0    0  0.00000000000E+00  0.00000000000E+00  0.45593999997E+02  0.45594000000E+02  0.51100000000E-03 0.  1.
         11   -1    0    0    0    0 -0.00000000000E+00 -0.00000000000E+00 -0.45593999997E+02  0.45594000000E+02  0.51100000000E-03 0. -1.
    9900012    2    1    2    0    0 -0.22247170634E+01  0.25887910117E+02  0.31273519111E+02  0.50528852766E+02  0.29999978468E+02 0.  0.
         12    1    1    2    0    0  0.22247170634E+01 -0.25887910117E+02 -0.31273519111E+02  0.40659147234E+02  0.00000000000E+00 0. -1.
         11    1    3    3    0    0  0.60710087715E+01  0.38699224762E+00  0.61476133331E+01  0.86487028194E+01  0.51100000000E-03 0. -1.
        -11    1    3    3    0    0  0.55510113185E+01  0.39254248693E+01  0.10067654173E+02  0.12148265221E+02  0.51100000000E-03 0.  1.
        -12    1    3    3    0    0 -0.13846737153E+02  0.21575493000E+02  0.15058251604E+02  0.29731884726E+02  0.00000000000E+00 0.  1.
</event>
<event>
 7    1  0.5642630E-013  0.5052886E+02  0.7816164E-02  0.1300439E+00
        -11   -1    0    0    0    0  0.00000000000E+00  0.00000000000E+00  0.45593999997E+02  0.45594000000E+02  0.51100000000E-03 0.  1.
         11   -1    0    0    0    0 -0.00000000000E+00 -0.00000000000E+00 -0.45593999997E+02  0.45594000000E+02  0.51100000000E-03 0. -1.
    9900012    2    1    2    0    0  0.16483504358E+01 -0.27320337043E+01  0.40533745344E+02  0.50528861065E+02  0.30000003693E+02 0.  0.
         12    1    1    2    0    0 -0.16483504358E+01  0.27320337043E+01 -0.40533745344E+02  0.40659138935E+02  0.00000000000E+00 0. -1.
         11    1    3    3    0    0  0.12259075527E+01 -0.48139926397E+01  0.38191075267E+01  0.62660160409E+01  0.51100000000E-03 0. -1.
        -11    1    3    3    0    0 -0.49234102080E+01 -0.91327640627E+01  0.25485290293E+02  0.27516310964E+02  0.51100000000E-03 0.  1.
        -12    1    3    3    0    0  0.53458530911E+01  0.11214722998E+02  0.11229347525E+02  0.16746534060E+02  0.00000000000E+00 0.  1.
</event>
<event>
 7    1  0.5642630E-013  0.5052887E+02  0.7816164E-02  0.1300439E+00
        -11   -1    0    0    0    0  0.00000000000E+00  0.00000000000E+00  0.45593999997E+02  0.45594000000E+02  0.51100000000E-03 0. -1.
         11   -1    0    0    0    0 -0.00000000000E+00 -0.00000000000E+00 -0.45593999997E+02  0.45594000000E+02  0.51100000000E-03 0.  1.
    9900012    2    1    2    0    0  0.98935486509E+01 -0.15390419810E+02 -0.36310024399E+02  0.50528865741E+02  0.30000017908E+02 0.  0.
         12    1    1    2    0    0 -0.98935486509E+01  0.15390419810E+02  0.36310024399E+02  0.40659134259E+02  0.00000000000E+00 0. -1.
         11    1    3    3    0    0  0.29252389218E+00 -0.69770578043E+01 -0.22053000547E+01  0.73231314630E+01  0.51100000000E-03 0. -1.
        -11    1    3    3    0    0 -0.65318534922E+01 -0.12299423530E+01 -0.26958026470E+01  0.71725323567E+01  0.51100000000E-03 0.  1.
        -12    1    3    3    0    0  0.16132878251E+02 -0.71834196522E+01 -0.31408921697E+02  0.36033201922E+02  0.00000000000E+00 0.  1.
</event>
<event>
 7    1  0.5642630E-013  0.5052886E+02  0.7816164E-02  0.1300439E+00
        -11   -1    0    0    0    0  0.00000000000E+00  0.00000000000E+00  0.45593999997E+02  0.45594000000E+02  0.51100000000E-03 0.  1.
         11   -1    0    0    0    0 -0.00000000000E+00 -0.00000000000E+00 -0.45593999997E+02  0.45594000000E+02  0.51100000000E-03 0. -1.
    9900012    2    1    2    0    0  0.69798469483E+00 -0.20188859514E+02  0.35285810013E+02  0.50528860568E+02  0.30000002183E+02 0.  0.
         12    1    1    2    0    0 -0.69798469483E+00  0.20188859514E+02 -0.35285810013E+02  0.40659139432E+02  0.00000000000E+00 0. -1.
         11    1    3    3    0    0  0.69675249319E+00  0.66329070094E+00 -0.16683796371E+01  0.19258529189E+01  0.51100000000E-03 0. -1.
        -11    1    3    3    0    0  0.28522432948E+01  0.44963589977E+01  0.10952489884E+02  0.12178241703E+02  0.51100000000E-03 0.  1.
         12    1    3    3    0    0 -0.28510110931E+01 -0.25348509213E+02  0.26001699766E+02  0.36424765946E+02  0.00000000000E+00 0. -1.
</event>
<event>
 7    1  0.5642630E-013  0.5052886E+02  0.7816164E-02  0.1300439E+00
        -11   -1    0    0    0    0  0.00000000000E+00  0.00000000000E+00  0.45593999997E+02  0.45594000000E+02  0.51100000000E-03 0.  1.
         11   -1    0    0    0    0 -0.00000000000E+00 -0.00000000000E+00 -0.45593999997E+02  0.45594000000E+02  0.51100000000E-03 0. -1.
    9900012    2    1    2    0    0 -0.24219461894E+02  0.75795450625E+01  0.31766865652E+02  0.50528860915E+02  0.30000003236E+02 0.  0.
         12    1    1    2    0    0  0.24219461894E+02 -0.75795450625E+01 -0.31766865652E+02  0.40659139085E+02  0.00000000000E+00 0. -1.
         11    1    3    3    0    0 -0.87608995310E+01 -0.60705475966E+01  0.35653935514E+01  0.11239080930E+02  0.51100000000E-03 0. -1.
        -11    1    3    3    0    0 -0.42336670270E+01 -0.43494134627E+01  0.75171761441E+01  0.96617426693E+01  0.51100000000E-03 0.  1.
        -12    1    3    3    0    0 -0.11224895336E+02  0.17999506122E+02  0.20684295957E+02  0.29628037315E+02  0.00000000000E+00 0.  1.
</event>
<event>
 7    1  0.5642630E-013  0.5052886E+02  0.7816164E-02  0.1300439E+00
        -11   -1    0    0    0    0  0.00000000000E+00  0.00000000000E+00  0.45593999997E+02  0.45594000000E+02  0.51100000000E-03 0.  1.
         11   -1    0    0    0    0 -0.00000000000E+00 -0.00000000000E+00 -0.45593999997E+02  0.45594000000E+02  0.51100000000E-03 0. -1.
    9900012    2    1    2    0    0 -0.13877461493E+01 -0.25931109567E+02  0.31286055301E+02  0.50528861556E+02  0.30000005185E+02 0.  0.
         12    1    1    2    0    0  0.13877461493E+01  0.25931109567E+02 -0.31286055301E+02  0.40659138444E+02  0.00000000000E+00 0. -1.
         11    1    3    3    0    0  0.28304863936E+01 -0.47714586770E+01 -0.98615200304E+00  0.56347996561E+01  0.51100000000E-03 0. -1.
        -11    1    3    3    0    0 -0.11320590646E+02 -0.97089088279E+01  0.74977840265E+01  0.16692376966E+02  0.51100000000E-03 0.  1.
         12    1    3    3    0    0  0.71023581026E+01 -0.11450742062E+02  0.24774423277E+02  0.28201684934E+02  0.00000000000E+00 0. -1.
</event>
<event>
 7    1  0.5642630E-013  0.5052886E+02  0.7816164E-02  0.1300439E+00
        -11   -1    0    0    0    0  0.00000000000E+00  0.00000000000E+00  0.45593999997E+02  0.45594000000E+02  0.51100000000E-03 0.  1.
         11   -1    0    0    0    0 -0.00000000000E+00 -0.00000000000E+00 -0.45593999997E+02  0.45594000000E+02  0.51100000000E-03 0. -1.
    9900012    2    1    2    0    0 -0.16800747308E+02  0.28750907395E+02  0.23329934777E+02  0.50528860279E+02  0.30000001304E+02 0.  0.
         12    1    1    2    0    0  0.16800747308E+02 -0.28750907395E+02 -0.23329934777E+02  0.40659139721E+02  0.00000000000E+00 0. -1.
         11    1    3    3    0    0 -0.86396557946E+01  0.11684700285E+02  0.60540598787E+01  0.15742538368E+02  0.51100000000E-03 0. -1.
        -11    1    3    3    0    0 -0.16060187454E+02  0.96655067910E+01  0.14253020390E+02  0.23547828628E+02  0.51100000000E-03 0.  1.
        -12    1    3    3    0    0  0.78990959405E+01  0.74007003188E+01  0.30228545080E+01  0.11238493283E+02  0.00000000000E+00 0.  1.
</event>
<event>
 7    1  0.5642630E-013  0.5052885E+02  0.7816164E-02  0.1300439E+00
        -11   -1    0    0    0    0  0.00000000000E+00  0.00000000000E+00  0.45593999997E+02  0.45594000000E+02  0.51100000000E-03 0. -1.
         11   -1    0    0    0    0 -0.00000000000E+00 -0.00000000000E+00 -0.45593999997E+02  0.45594000000E+02  0.51100000000E-03 0.  1.
    9900012    2    1    2    0    0 -0.39405809821E+02 -0.18070377430E+01 -0.98530794895E+01  0.50528850864E+02  0.29999972687E+02 0.  0.
         12    1    1    2    0    0  0.39405809821E+02  0.18070377430E+01  0.98530794895E+01  0.40659149136E+02  0.00000000000E+00 0. -1.
         11    1    3    3    0    0 -0.19785406270E+02 -0.86628512570E+01 -0.39331530131E+01  0.21953974266E+02  0.51100000000E-03 0. -1.
        -11    1    3    3    0    0 -0.29487326147E+01 -0.55448285186E+01 -0.45436787651E+01  0.77514620760E+01  0.51100000000E-03 0.  1.
         12    1    3    3    0    0 -0.16671670936E+02  0.12400642033E+02 -0.13762477113E+01  0.20823414522E+02  0.00000000000E+00 0. -1.
</event>
<event>
 7    1  0.5642630E-013  0.5052886E+02  0.7816164E-02  0.1300439E+00
        -11   -1    0    0    0    0  0.00000000000E+00  0.00000000000E+00  0.45593999997E+02  0.45594000000E+02  0.51100000000E-03 0.  1.
         11   -1    0    0    0    0 -0.00000000000E+00 -0.00000000000E+00 -0.45593999997E+02  0.45594000000E+02  0.51100000000E-03 0. -1.
    9900012    2    1    2    0    0  0.11673484266E+02  0.10610915010E+01  0.38932887543E+02  0.50528857332E+02  0.29999992345E+02 0.  0.
         12    1    1    2    0    0 -0.11673484266E+02 -0.10610915010E+01 -0.38932887543E+02  0.40659142668E+02  0.00000000000E+00 0. -1.
         11    1    3    3    0    0  0.72524730514E+01 -0.21782917787E+01  0.57399043780E+01  0.95020957143E+01  0.51100000000E-03 0. -1.
        -11    1    3    3    0    0  0.98968829622E+01 -0.52041153180E+01  0.26965886976E+02  0.29192296403E+02  0.51100000000E-03 0.  1.
         12    1    3    3    0    0 -0.54758717476E+01  0.84434985977E+01  0.62270961889E+01  0.11834465214E+02  0.00000000000E+00 0. -1.
</event>
<event>
 7    1  0.5642630E-013  0.5052887E+02  0.7816164E-02  0.1300439E+00
        -11   -1    0    0    0    0  0.00000000000E+00  0.00000000000E+00  0.45593999997E+02  0.45594000000E+02  0.51100000000E-03 0. -1.
         11   -1    0    0    0    0 -0.00000000000E+00 -0.00000000000E+00 -0.45593999997E+02  0.45594000000E+02  0.51100000000E-03 0.  1.
    9900012    2    1    2    0    0 -0.30316916862E+02 -0.15779767835E+02 -0.22023810445E+02  0.50528871290E+02  0.30000034772E+02 0.  0.
         12    1    1    2    0    0  0.30316916862E+02  0.15779767835E+02  0.22023810445E+02  0.40659128710E+02  0.00000000000E+00 0. -1.
         11    1    3    3    0    0 -0.93538028009E+01 -0.97465973814E+01 -0.12902755885E+02  0.18680762753E+02  0.51100000000E-03 0. -1.
        -11    1    3    3    0    0 -0.11600192433E+02 -0.49672177606E+01 -0.15856622152E+02  0.20264998966E+02  0.51100000000E-03 0.  1.
         12    1    3    3    0    0 -0.93629216278E+01 -0.10659526929E+01  0.67355675909E+01  0.11583109571E+02  0.00000000000E+00 0. -1.
</event>
<event>
 7    1  0.5642630E-013  0.5052886E+02  0.7816164E-02  0.1300439E+00
        -11   -1    0    0    0    0  0.00000000000E+00  0.00000000000E+00  0.45593999997E+02  0.45594000000E+02  0.51100000000E-03 0.  1.
         11   -1    0    0    0    0 -0.00000000000E+00 -0.00000000000E+00 -0.45593999997E+02  0.45594000000E+02  0.51100000000E-03 0. -1.
    9900012    2    1    2    0    0  0.25471424999E+02 -0.15015631292E+02  0.27908833973E+02  0.50528859720E+02  0.29999999605E+02 0.  0.
         12    1    1    2    0    0 -0.25471424999E+02  0.15015631292E+02 -0.27908833973E+02  0.40659140280E+02  0.00000000000E+00 0. -1.
         11    1    3    3    0    0 -0.68697583854E+00 -0.54987728356E+01  0.59223114715E+01  0.81106233994E+01  0.51100000000E-03 0. -1.
        -11    1    3    3    0    0  0.26278596977E+02 -0.49990253784E+01  0.25296237001E+02  0.36816497939E+02  0.51100000000E-03 0.  1.
         12    1    3    3    0    0 -0.12019613984E+00 -0.45178330776E+01 -0.33097144994E+01  0.56017383816E+01  0.00000000000E+00 0. -1.
</event>
<event>
 7    1  0.5642630E-013  0.5052886E+02  0.7816164E-02  0.1300439E+00
        -11   -1    0    0    0    0  0.00000000000E+00  0.00000000000E+00  0.45593999997E+02  0.45594000000E+02  0.51100000000E-03 0.  1.
         11   -1    0    0    0    0 -0.00000000000E+00 -0.00000000000E+00 -0.45593999997E+02  0.45594000000E+02  0.51100000000E-03 0. -1.
    9900012    2    1    2    0    0 -0.49057649471E+01  0.34684587777E+02  0.20641675317E+02  0.50528856885E+02  0.29999990986E+02 0.  0.
         12    1    1    2    0    0  0.49057649471E+01 -0.34684587777E+02 -0.20641675317E+02  0.40659143115E+02  0.00000000000E+00 0. -1.
         11    1    3    3    0    0  0.52763245151E+01  0.94786486279E+00  0.41088942377E+01  0.67543364074E+01  0.51100000000E-03 0. -1.
        -11    1    3    3    0    0  0.59889301072E+01  0.12202367801E+02  0.59937609344E+01  0.14855646542E+02  0.51100000000E-03 0.  1.
         12    1    3    3    0    0 -0.16171019569E+02  0.21534355113E+02  0.10539020145E+02  0.28918873935E+02  0.00000000000E+00 0. -1.
</event>
<event>
 7    1  0.5642630E-013  0.5052886E+02  0.7816164E-02  0.1300439E+00
        -11   -1    0    0    0    0  0.00000000000E+00  0.00000000000E+00  0.45593999997E+02  0.45594000000E+02  0.51100000000E-03 0. -1.
         11   -1    0    0    0    0 -0.00000000000E+00 -0.00000000000E+00 -0.45593999997E+02  0.45594000000E+02  0.51100000000E-03 0.  1.
    9900012    2    1    2    0    0 -0.95762626350E+01 -0.26104326974E+02 -0.29665218730E+02  0.50528857177E+02  0.29999991874E+02 0.  0.
         12    1    1    2    0    0  0.95762626350E+01  0.26104326974E+02  0.29665218730E+02  0.40659142823E+02  0.00000000000E+00 0. -1.
         11    1    3    3    0    0 -0.16970845342E+01 -0.41543671630E+01 -0.21750922183E+02  0.22209040468E+02  0.51100000000E-03 0. -1.
        -11    1    3    3    0    0 -0.82893089178E+01 -0.39584288169E+01 -0.23249918806E+01  0.94756207469E+01  0.51100000000E-03 0.  1.
        -12    1    3    3    0    0  0.41013081707E+00 -0.17991530994E+02 -0.55893046671E+01  0.18844195962E+02  0.00000000000E+00 0.  1.
</event>
<event>
 7    1  0.5642630E-013  0.5052886E+02  0.7816164E-02  0.1300439E+00
        -11   -1    0    0    0    0  0.00000000000E+00  0.00000000000E+00  0.45593999997E+02  0.45594000000E+02  0.51100000000E-03 0. -1.
         11   -1    0    0    0    0 -0.00000000000E+00 -0.00000000000E+00 -0.45593999997E+02  0.45594000000E+02  0.51100000000E-03 0.  1.
    9900012    2    1    2    0    0 -0.15760780265E+02  0.25513072808E+02 -0.27456268492E+02  0.50528858860E+02  0.29999996992E+02 0.  0.
         12    1    1    2    0    0  0.15760780265E+02 -0.25513072808E+02  0.27456268492E+02  0.40659141140E+02  0.00000000000E+00 0. -1.
         11    1    3    3    0    0 -0.88089529188E+00  0.59180311734E+01 -0.16827115865E+02  0.17859196457E+02  0.51100000000E-03 0.  1.
        -11    1    3    3    0    0 -0.12908438931E+01  0.13895774688E+02 -0.11243060957E+02  0.17921084009E+02  0.51100000000E-03 0. -1.
         12    1    3    3    0    0 -0.13589041080E+02  0.56992669473E+01  0.61390832928E+00  0.14748578394E+02  0.00000000000E+00 0. -1.
</event>
<event>
 7    1  0.5642630E-013  0.5052885E+02  0.7816164E-02  0.1300439E+00
        -11   -1    0    0    0    0  0.00000000000E+00  0.00000000000E+00  0.45593999997E+02  0.45594000000E+02  0.51100000000E-03 0.  1.
         11   -1    0    0    0    0 -0.00000000000E+00 -0.00000000000E+00 -0.45593999997E+02  0.45594000000E+02  0.51100000000E-03 0. -1.
    9900012    2    1    2    0    0 -0.25338674937E+02  0.14050215647E+02 -0.28525593163E+02  0.50528850075E+02  0.29999970287E+02 0.  0.
         12    1    1    2    0    0  0.25338674937E+02 -0.14050215647E+02  0.28525593163E+02  0.40659149925E+02  0.00000000000E+00 0. -1.
         11    1    3    3    0    0 -0.16602518160E+02  0.30258565336E+01 -0.16121529133E+02  0.23338875698E+02  0.51100000000E-03 0. -1.
        -11    1    3    3    0    0 -0.12191092869E+02  0.32826995053E+01 -0.13681430884E+02  0.18616670290E+02  0.51100000000E-03 0.  1.
        -12    1    3    3    0    0  0.34549360913E+01  0.77416596080E+01  0.12773668539E+01  0.85733040865E+01  0.00000000000E+00 0.  1.
</event>
<event>
 7    1  0.5642630E-013  0.5052887E+02  0.7816164E-02  0.1300439E+00
        -11   -1    0    0    0    0  0.00000000000E+00  0.00000000000E+00  0.45593999997E+02  0.45594000000E+02  0.51100000000E-03 0.  1.
         11   -1    0    0    0    0 -0.00000000000E+00 -0.00000000000E+00 -0.45593999997E+02  0.45594000000E+02  0.51100000000E-03 0. -1.
    9900012    2    1    2    0    0 -0.24323734748E+02  0.25115046240E+02  0.20754650663E+02  0.50528866415E+02  0.30000019955E+02 0.  0.
         12    1    1    2    0    0  0.24323734748E+02 -0.25115046240E+02 -0.20754650663E+02  0.40659133585E+02  0.00000000000E+00 0. -1.
         11    1    3    3    0    0  0.23122880730E+01  0.10543939129E+01  0.35845535088E+01  0.43940239843E+01  0.51100000000E-03 0. -1.
        -11    1    3    3    0    0 -0.18137320510E+01  0.16484326795E+00  0.10977617480E+02  0.11127662964E+02  0.51100000000E-03 0.  1.
         12    1    3    3    0    0 -0.24822290770E+02  0.23895809059E+02  0.61924796744E+01  0.35007179466E+02  0.00000000000E+00 0. -1.
</event>
<event>
 7    1  0.5642630E-013  0.5052888E+02  0.7816164E-02  0.1300439E+00
        -11   -1    0    0    0    0  0.00000000000E+00  0.00000000000E+00  0.45593999997E+02  0.45594000000E+02  0.51100000000E-03 0.  1.
         11   -1    0    0    0    0 -0.00000000000E+00 -0.00000000000E+00 -0.45593999997E+02  0.45594000000E+02  0.51100000000E-03 0. -1.
    9900012    2    1    2    0    0 -0.32236884781E+02 -0.26396931605E+01  0.24636953773E+02  0.50528877880E+02  0.30000054804E+02 0.  0.
         12    1    1    2    0    0  0.32236884781E+02  0.26396931605E+01 -0.24636953773E+02  0.40659122120E+02  0.00000000000E+00 0. -1.
         11    1    3    3    0    0 -0.71883120934E+01  0.55797504247E+01 -0.14718847564E+01  0.92180198823E+01  0.51100000000E-03 0. -1.
        -11    1    3    3    0    0 -0.22104063315E+02  0.77975974366E+00  0.21235073146E+02  0.30661473743E+02  0.51100000000E-03 0.  1.
         12    1    3    3    0    0 -0.29445093723E+01 -0.89992033288E+01  0.48737653826E+01  0.10649384255E+02  0.00000000000E+00 0. -1.
</event>
<event>
 7    1  0.5642630E-013  0.5052885E+02  0.7816164E-02  0.1300439E+00
        -11   -1    0    0    0    0  0.00000000000E+00  0.00000000000E+00  0.45593999997E+02  0.45594000000E+02  0.51100000000E-03 0.  1.
         11   -1    0    0    0    0 -0.00000000000E+00 -0.00000000000E+00 -0.45593999997E+02  0.45594000000E+02  0.51100000000E-03 0. -1.
    9900012    2    1    2    0    0 -0.17832835640E+02  0.36514195322E+02  0.13675238902E+01  0.50528848404E+02  0.29999965208E+02 0.  0.
         12    1    1    2    0    0  0.17832835640E+02 -0.36514195322E+02 -0.13675238902E+01  0.40659151596E+02  0.00000000000E+00 0. -1.
         11    1    3    3    0    0  0.39915231960E+01  0.24319119365E+01 -0.89343991133E-01  0.46748728005E+01  0.51100000000E-03 0. -1.
        -11    1    3    3    0    0  0.39281516917E+01  0.18498367003E+01  0.15104824327E+01  0.45971544429E+01  0.51100000000E-03 0.  1.
        -12    1    3    3    0    0 -0.25752510527E+02  0.32232446685E+02 -0.53614551355E-01  0.41256821160E+02  0.00000000000E+00 0.  1.
</event>
<event>
 7    1  0.5642630E-013  0.5052886E+02  0.7816164E-02  0.1300439E+00
        -11   -1    0    0    0    0  0.00000000000E+00  0.00000000000E+00  0.45593999997E+02  0.45594000000E+02  0.51100000000E-03 0.  1.
         11   -1    0    0    0    0 -0.00000000000E+00 -0.00000000000E+00 -0.45593999997E+02  0.45594000000E+02  0.51100000000E-03 0. -1.
    9900012    2    1    2    0    0  0.26766600434E+02 -0.12749482881E+02  0.27823822919E+02  0.50528864072E+02  0.30000012834E+02 0.  0.
         12    1    1    2    0    0 -0.26766600434E+02  0.12749482881E+02 -0.27823822919E+02  0.40659135928E+02  0.00000000000E+00 0. -1.
         11    1    3    3    0    0  0.35070414294E+01 -0.23684386254E+01  0.54807773695E+01  0.69244322472E+01  0.51100000000E-03 0. -1.
        -11    1    3    3    0    0  0.18166612088E+02 -0.18004127158E+02  0.23021269292E+02  0.34411527568E+02  0.51100000000E-03 0.  1.
         12    1    3    3    0    0  0.50929469168E+01  0.76230829025E+01 -0.67822374281E+00  0.91929042571E+01  0.00000000000E+00 0. -1.
</event>
<event>
 7    1  0.5642630E-013  0.5052886E+02  0.7816164E-02  0.1300439E+00
        -11   -1    0    0    0    0  0.00000000000E+00  0.00000000000E+00  0.45593999997E+02  0.45594000000E+02  0.51100000000E-03 0. -1.
         11   -1    0    0    0    0 -0.00000000000E+00 -0.00000000000E+00 -0.45593999997E+02  0.45594000000E+02  0.51100000000E-03 0.  1.
    9900012    2    1    2    0    0 -0.38533213965E+02  0.11242491202E+02 -0.64779430280E+01  0.50528856713E+02  0.29999990466E+02 0.  0.
         12    1    1    2    0    0  0.38533213965E+02 -0.11242491202E+02  0.64779430280E+01  0.40659143287E+02  0.00000000000E+00 0. -1.
         11    1    3    3    0    0 -0.13590821829E+00 -0.38996610866E+01  0.12654835581E+01  0.41021063530E+01  0.51100000000E-03 0. -1.
        -11    1    3    3    0    0 -0.37938365335E+01 -0.34747860464E+01 -0.47783503760E+01  0.70213934720E+01  0.51100000000E-03 0.  1.
        -12    1    3    3    0    0 -0.34603469213E+02  0.18616938335E+02 -0.29650762101E+01  0.39405356889E+02  0.00000000000E+00 0.  1.
</event>
<event>
 7    1  0.5642630E-013  0.5052887E+02  0.7816164E-02  0.1300439E+00
        -11   -1    0    0    0    0  0.00000000000E+00  0.00000000000E+00  0.45593999997E+02  0.45594000000E+02  0.51100000000E-03 0.  1.
         11   -1    0    0    0    0 -0.00000000000E+00 -0.00000000000E+00 -0.45593999997E+02  0.45594000000E+02  0.51100000000E-03 0. -1.
    9900012    2    1    2    0    0 -0.13678954973E+02  0.14552307865E+02  0.35415838891E+02  0.50528866737E+02  0.30000020935E+02 0.  0.
         12    1    1    2    0    0  0.13678954973E+02 -0.14552307865E+02 -0.35415838891E+02  0.40659133263E+02  0.00000000000E+00 0. -1.
         11    1    3    3    0    0 -0.38472107040E+01  0.84727703383E+01  0.17675590998E+02  0.19975369453E+02  0.51100000000E-03 0. -1.
        -11    1    3    3    0    0 -0.81851297572E+01  0.81034601068E+01  0.22414333231E+02  0.25200491053E+02  0.51100000000E-03 0.  1.
         12    1    3    3    0    0 -0.16466145120E+01 -0.20239225804E+01 -0.46740853384E+01  0.53530062314E+01  0.00000000000E+00 0. -1.
</event>
<event>
 7    1  0.5642630E-013  0.5052885E+02  0.7816164E-02  0.1300439E+00
        -11   -1    0    0    0    0  0.00000000000E+00  0.00000000000E+00  0.45593999997E+02  0.45594000000E+02  0.51100000000E-03 0.  1.
         11   -1    0    0    0    0 -0.00000000000E+00 -0.00000000000E+00 -0.45593999997E+02  0.45594000000E+02  0.51100000000E-03 0. -1.
    9900012    2    1    2    0    0  0.38202215712E+02 -0.13907416145E+02 -0.58361284874E+00  0.50528854496E+02  0.29999983727E+02 0.  0.
         12    1    1    2    0    0 -0.38202215712E+02  0.13907416145E+02  0.58361284874E+00  0.40659145504E+02  0.00000000000E+00 0. -1.
         11    1    3    3    0    0  0.59663059239E+01 -0.15225806317E+01 -0.66123919606E+01  0.90354184109E+01  0.51100000000E-03 0. -1.
        -11    1    3    3    0    0  0.23509027436E+02 -0.37735324552E+01 -0.57472736951E+01  0.24493776217E+02  0.51100000000E-03 0.  1.
        -12    1    3    3    0    0  0.87268823520E+01 -0.86113030576E+01  0.11776052807E+02  0.16999659869E+02  0.00000000000E+00 0.  1.
</event>
<event>
 7    1  0.5642630E-013  0.5052886E+02  0.7816164E-02  0.1300439E+00
        -11   -1    0    0    0    0  0.00000000000E+00  0.00000000000E+00  0.45593999997E+02  0.45594000000E+02  0.51100000000E-03 0.  1.
         11   -1    0    0    0    0 -0.00000000000E+00 -0.00000000000E+00 -0.45593999997E+02  0.45594000000E+02  0.51100000000E-03 0. -1.
    9900012    2    1    2    0    0  0.26880646807E+02  0.24333591844E+02  0.18397629992E+02  0.50528860140E+02  0.30000000881E+02 0.  0.
         12    1    1    2    0    0 -0.26880646807E+02 -0.24333591844E+02 -0.18397629992E+02  0.40659139860E+02  0.00000000000E+00 0. -1.
         11    1    3    3    0    0  0.87796059675E+01  0.53587190975E+01 -0.16877249044E+01  0.10423328016E+02  0.51100000000E-03 0. -1.
        -11    1    3    3    0    0  0.19232754097E+02  0.42803479455E+01  0.13948517188E+02  0.24140864539E+02  0.51100000000E-03 0.  1.
        -12    1    3    3    0    0 -0.11317132571E+01  0.14694524801E+02  0.61368377090E+01  0.15964667585E+02  0.00000000000E+00 0.  1.
</event>
<event>
 7    1  0.5809037E-013  0.5052885E+02  0.7816164E-02  0.1300439E+00
        -11   -1    0    0    0    0  0.00000000000E+00  0.00000000000E+00  0.45593999997E+02  0.45594000000E+02  0.51100000000E-03 0. -1.
         11   -1    0    0    0    0 -0.00000000000E+00 -0.00000000000E+00 -0.45593999997E+02  0.45594000000E+02  0.51100000000E-03 0.  1.
    9900012    2    1    2    0    0 -0.36313355687E+02 -0.15803027168E+02 -0.92071127647E+01  0.50528851037E+02  0.29999973213E+02 0.  0.
         12    1    1    2    0    0  0.36313355687E+02  0.15803027168E+02  0.92071127647E+01  0.40659148963E+02  0.00000000000E+00 0. -1.
         11    1    3    3    0    0  0.35804998767E+01  0.22306693780E+01 -0.79650742634E+00  0.42930513137E+01  0.51100000000E-03 0. -1.
        -11    1    3    3    0    0 -0.51287801436E+01 -0.10976664670E+01  0.28361300338E+01  0.59626245282E+01  0.51100000000E-03 0.  1.
        -12    1    3    3    0    0 -0.34765075420E+02 -0.16936030079E+02 -0.11246735372E+02  0.40273175195E+02  0.00000000000E+00 0.  1.
</event>
<event>
 7    1  0.5642630E-013  0.5052884E+02  0.7816164E-02  0.1300439E+00
        -11   -1    0    0    0    0  0.00000000000E+00  0.00000000000E+00  0.45593999997E+02  0.45594000000E+02  0.51100000000E-03 0.  1.
         11   -1    0    0    0    0 -0.00000000000E+00 -0.00000000000E+00 -0.45593999997E+02  0.45594000000E+02  0.51100000000E-03 0. -1.
    9900012    2    1    2    0    0 -0.14858737372E+01 -0.12368704988E+02  0.38703672199E+02  0.50528844505E+02  0.29999953357E+02 0.  0.
         12    1    1    2    0    0  0.14858737372E+01  0.12368704988E+02 -0.38703672199E+02  0.40659155495E+02  0.00000000000E+00 0. -1.
         11    1    3    3    0    0 -0.74201245392E+01  0.16448678292E+01  0.22865675318E+02  0.24095703899E+02  0.51100000000E-03 0. -1.
        -11    1    3    3    0    0 -0.18427136899E+01  0.23439894342E+01  0.30220940551E+01  0.42453425008E+01  0.51100000000E-03 0.  1.
         12    1    3    3    0    0  0.77769644920E+01 -0.16357562252E+02  0.12815902826E+02  0.22187798106E+02  0.00000000000E+00 0. -1.
</event>
<event>
 7    1  0.5642630E-013  0.5052886E+02  0.7816164E-02  0.1300439E+00
        -11   -1    0    0    0    0  0.00000000000E+00  0.00000000000E+00  0.45593999997E+02  0.45594000000E+02  0.51100000000E-03 0. -1.
         11   -1    0    0    0    0 -0.00000000000E+00 -0.00000000000E+00 -0.45593999997E+02  0.45594000000E+02  0.51100000000E-03 0.  1.
    9900012    2    1    2    0    0 -0.22498321415E+02  0.24311591915E+02 -0.23578337263E+02  0.50528856428E+02  0.29999989598E+02 0.  0.
         12    1    1    2    0    0  0.22498321415E+02 -0.24311591915E+02  0.23578337263E+02  0.40659143572E+02  0.00000000000E+00 0. -1.
         11    1    3    3    0    0  0.11071104844E+00  0.60932452876E+00 -0.26062045947E+01  0.26787750873E+01  0.51100000000E-03 0. -1.
        -11    1    3    3    0    0 -0.76908427529E+01  0.12252691644E+02 -0.24751089081E+02  0.28668692432E+02  0.51100000000E-03 0.  1.
         12    1    3    3    0    0 -0.14918189710E+02  0.11449575742E+02  0.37789564128E+01  0.19181388909E+02  0.00000000000E+00 0. -1.
</event>
<event>
 7    1  0.5642630E-013  0.5052889E+02  0.7816164E-02  0.1300439E+00
        -11   -1    0    0    0    0  0.00000000000E+00  0.00000000000E+00  0.45593999997E+02  0.45594000000E+02  0.51100000000E-03 0. -1.
         11   -1    0    0    0    0 -0.00000000000E+00 -0.00000000000E+00 -0.45593999997E+02  0.45594000000E+02  0.51100000000E-03 0.  1.
    9900012    2    1    2    0    0  0.12500686461E+02  0.38616764515E+02 -0.23752035581E+01  0.50528889637E+02  0.30000090540E+02 0.  0.
         12    1    1    2    0    0 -0.12500686461E+02 -0.38616764515E+02  0.23752035581E+01  0.40659110363E+02  0.00000000000E+00 0. -1.
         11    1    3    3    0    0  0.99861830381E+01  0.33425045338E+01  0.68769475159E+01  0.12577304784E+02  0.51100000000E-03 0. -1.
        -11    1    3    3    0    0 -0.29997476451E+01  0.43517125066E+01 -0.31637704180E+00  0.52949015447E+01  0.51100000000E-03 0.  1.
         12    1    3    3    0    0  0.55142510681E+01  0.30922547474E+02 -0.89357740322E+01  0.32656683308E+02  0.00000000000E+00 0. -1.
</event>
<event>
 7    1  0.5642630E-013  0.5052887E+02  0.7816164E-02  0.1300439E+00
        -11   -1    0    0    0    0  0.00000000000E+00  0.00000000000E+00  0.45593999997E+02  0.45594000000E+02  0.51100000000E-03 0. -1.
         11   -1    0    0    0    0 -0.00000000000E+00 -0.00000000000E+00 -0.45593999997E+02  0.45594000000E+02  0.51100000000E-03 0.  1.
    9900012    2    1    2    0    0  0.33275015190E+02 -0.41301034998E+01  0.22997408688E+02  0.50528865759E+02  0.30000017962E+02 0.  0.
         12    1    1    2    0    0 -0.33275015190E+02  0.41301034998E+01 -0.22997408688E+02  0.40659134241E+02  0.00000000000E+00 0. -1.
         11    1    3    3    0    0  0.11185498923E+02 -0.42199534077E+01  0.18757295270E+02  0.22243190397E+02  0.51100000000E-03 0. -1.
        -11    1    3    3    0    0  0.22741618958E+02  0.44130110083E+01  0.53486146605E+01  0.23775272407E+02  0.51100000000E-03 0.  1.
        -12    1    3    3    0    0 -0.65210269026E+00 -0.43231611004E+01 -0.11085012422E+01  0.45104029557E+01  0.00000000000E+00 0.  1.
</event>
<event>
 7    1  0.5642630E-013  0.5052875E+02  0.7816164E-02  0.1300439E+00
        -11   -1    0    0    0    0  0.00000000000E+00  0.00000000000E+00  0.45593999997E+02  0.45594000000E+02  0.51100000000E-03 0.  1.
         11   -1    0    0    0    0 -0.00000000000E+00 -0.00000000000E+00 -0.45593999997E+02  0.45594000000E+02  0.51100000000E-03 0. -1.
    9900012    2    1    2    0    0  0.12253647429E+02  0.38572182944E+02  0.38998883065E+01  0.50528753805E+02  0.29999677664E+02 0.  0.
         12    1    1    2    0    0 -0.12253647429E+02 -0.38572182944E+02 -0.38998883065E+01  0.40659246195E+02  0.00000000000E+00 0. -1.
         11    1    3    3    0    0  0.33335318821E+01  0.10129054306E+02 -0.48181962517E+01  0.11701503806E+02  0.51100000000E-03 0. -1.
        -11    1    3    3    0    0 -0.77033815353E+00  0.66094794762E+01 -0.74449781218E+01  0.99853061702E+01  0.51100000000E-03 0.  1.
        -12    1    3    3    0    0  0.96904537003E+01  0.21833649162E+02  0.16163062680E+02  0.28841943829E+02  0.00000000000E+00 0.  1.
</event>
<event>
 7    1  0.5642630E-013  0.5052886E+02  0.7816164E-02  0.1300439E+00
        -11   -1    0    0    0    0  0.00000000000E+00  0.00000000000E+00  0.45593999997E+02  0.45594000000E+02  0.51100000000E-03 0.  1.
         11   -1    0    0    0    0 -0.00000000000E+00 -0.00000000000E+00 -0.45593999997E+02  0.45594000000E+02  0.51100000000E-03 0. -1.
    9900012    2    1    2    0    0  0.40342138474E+02 -0.45874185709E+01 -0.21524531663E+01  0.50528860800E+02  0.30000002888E+02 0.  0.
         12    1    1    2    0    0 -0.40342138474E+02  0.45874185709E+01  0.21524531663E+01  0.40659139200E+02  0.00000000000E+00 0. -1.
         11    1    3    3    0    0 -0.17272571159E+01 -0.43821812585E+01 -0.29583231163E+01  0.55622482549E+01  0.51100000000E-03 0. -1.
        -11    1    3    3    0    0  0.51472373125E+01 -0.29570484667E+01 -0.46521280649E+01  0.75419151002E+01  0.51100000000E-03 0.  1.
        -12    1    3    3    0    0  0.36922158278E+02  0.27518111543E+01  0.54579980150E+01  0.37424697445E+02  0.00000000000E+00 0.  1.
</event>
<event>
 7    1  0.5642630E-013  0.5052886E+02  0.7816164E-02  0.1300439E+00
        -11   -1    0    0    0    0  0.00000000000E+00  0.00000000000E+00  0.45593999997E+02  0.45594000000E+02  0.51100000000E-03 0.  1.
         11   -1    0    0    0    0 -0.00000000000E+00 -0.00000000000E+00 -0.45593999997E+02  0.45594000000E+02  0.51100000000E-03 0. -1.
    9900012    2    1    2    0    0 -0.11334030187E+02 -0.32594008889E+02  0.21501997915E+02  0.50528861174E+02  0.30000004024E+02 0.  0.
         12    1    1    2    0    0  0.11334030187E+02  0.32594008889E+02 -0.21501997915E+02  0.40659138826E+02  0.00000000000E+00 0. -1.
         11    1    3    3    0    0 -0.51766349032E+00  0.45158331401E+01  0.27560620428E+00  0.45537548769E+01  0.51100000000E-03 0. -1.
        -11    1    3    3    0    0 -0.33787386228E+01 -0.52392115241E+00  0.13171737538E+01  0.36640571794E+01  0.51100000000E-03 0.  1.
        -12    1    3    3    0    0 -0.74376280734E+01 -0.36585920877E+02  0.19909217957E+02  0.42311049118E+02  0.00000000000E+00 0.  1.
</event>
<event>
 7    1  0.5642630E-013  0.5052885E+02  0.7816164E-02  0.1300439E+00
        -11   -1    0    0    0    0  0.00000000000E+00  0.00000000000E+00  0.45593999997E+02  0.45594000000E+02  0.51100000000E-03 0.  1.
         11   -1    0    0    0    0 -0.00000000000E+00 -0.00000000000E+00 -0.45593999997E+02  0.45594000000E+02  0.51100000000E-03 0. -1.
    9900012    2    1    2    0    0  0.13888890944E+02 -0.21914354936E+02  0.31305370508E+02  0.50528850149E+02  0.29999970513E+02 0.  0.
         12    1    1    2    0    0 -0.13888890944E+02  0.21914354936E+02 -0.31305370508E+02  0.40659149851E+02  0.00000000000E+00 0. -1.
         11    1    3    3    0    0  0.58320055406E+01 -0.80317159417E+01  0.21131953364E+02  0.23346952753E+02  0.51100000000E-03 0. -1.
        -11    1    3    3    0    0  0.11287298389E+02 -0.61329338913E+01  0.13045221669E+02  0.18308298438E+02  0.51100000000E-03 0.  1.
         12    1    3    3    0    0 -0.32304129855E+01 -0.77497051031E+01 -0.28718045251E+01  0.88735989582E+01  0.00000000000E+00 0. -1.
</event>
<event>
 7    1  0.5642630E-013  0.5052887E+02  0.7816164E-02  0.1300439E+00
        -11   -1    0    0    0    0  0.00000000000E+00  0.00000000000E+00  0.45593999997E+02  0.45594000000E+02  0.51100000000E-03 0. -1.
         11   -1    0    0    0    0 -0.00000000000E+00 -0.00000000000E+00 -0.45593999997E+02  0.45594000000E+02  0.51100000000E-03 0.  1.
    9900012    2    1    2    0    0  0.11554038078E+02  0.56745764042E+01 -0.38567712398E+02  0.50528867534E+02  0.30000023356E+02 0.  0.
         12    1    1    2    0    0 -0.11554038078E+02 -0.56745764042E+01  0.38567712398E+02  0.40659132466E+02  0.00000000000E+00 0. -1.
         11    1    3    3    0    0 -0.45844022083E+01 -0.23835591862E+01 -0.10141011484E+02  0.11381485499E+02  0.51100000000E-03 0. -1.
        -11    1    3    3    0    0  0.49327720872E+01 -0.67266389627E+01 -0.80856453074E+01  0.11617124106E+02  0.51100000000E-03 0.  1.
         12    1    3    3    0    0  0.11205668199E+02  0.14784774553E+02 -0.20341055607E+02  0.27530257928E+02  0.00000000000E+00 0. -1.
</event>
<event>
 7    1  0.5642630E-013  0.5052886E+02  0.7816164E-02  0.1300439E+00
        -11   -1    0    0    0    0  0.00000000000E+00  0.00000000000E+00  0.45593999997E+02  0.45594000000E+02  0.51100000000E-03 0.  1.
         11   -1    0    0    0    0 -0.00000000000E+00 -0.00000000000E+00 -0.45593999997E+02  0.45594000000E+02  0.51100000000E-03 0. -1.
    9900012    2    1    2    0    0 -0.36923085330E+02 -0.81720666689E+00  0.17005400051E+02  0.50528859725E+02  0.29999999619E+02 0.  0.
         12    1    1    2    0    0  0.36923085330E+02  0.81720666689E+00 -0.17005400051E+02  0.40659140275E+02  0.00000000000E+00 0. -1.
         11    1    3    3    0    0  0.49985204887E-01 -0.79728834160E+00 -0.18959276999E-01  0.79907880441E+00  0.51100000000E-03 0. -1.
        -11    1    3    3    0    0 -0.37984190790E+02 -0.69805020043E+01  0.18035203882E+02  0.42623875205E+02  0.51100000000E-03 0.  1.
         12    1    3    3    0    0  0.10111202550E+01  0.69605836790E+01 -0.10108445535E+01  0.71059057152E+01  0.00000000000E+00 0. -1.
</event>
<event>
 7    1  0.5642630E-013  0.5052886E+02  0.7816164E-02  0.1300439E+00
        -11   -1    0    0    0    0  0.00000000000E+00  0.00000000000E+00  0.45593999997E+02  0.45594000000E+02  0.51100000000E-03 0. -1.
         11   -1    0    0    0    0 -0.00000000000E+00 -0.00000000000E+00 -0.45593999997E+02  0.45594000000E+02  0.51100000000E-03 0.  1.
    9900012    2    1    2    0    0  0.31793873877E+02 -0.51379918772E+01 -0.24817664726E+02  0.50528857620E+02  0.29999993220E+02 0.  0.
         12    1    1    2    0    0 -0.31793873877E+02  0.51379918772E+01  0.24817664726E+02  0.40659142380E+02  0.00000000000E+00 0. -1.
         11    1    3    3    0    0  0.90854652414E+01 -0.23258280243E+01 -0.15904170629E+02  0.18463417839E+02  0.51100000000E-03 0. -1.
        -11    1    3    3    0    0  0.99347688977E+01 -0.89081093193E+01 -0.11574046917E+02  0.17663878594E+02  0.51100000000E-03 0.  1.
         12    1    3    3    0    0  0.12773639738E+02  0.60959454664E+01  0.26605528198E+01  0.14401561186E+02  0.00000000000E+00 0. -1.
</event>
<event>
 7    1  0.5642630E-013  0.5052887E+02  0.7816164E-02  0.1300439E+00
        -11   -1    0    0    0    0  0.00000000000E+00  0.00000000000E+00  0.45593999997E+02  0.45594000000E+02  0.51100000000E-03 0. -1.
         11   -1    0    0    0    0 -0.00000000000E+00 -0.00000000000E+00 -0.45593999997E+02  0.45594000000E+02  0.51100000000E-03 0.  1.
    9900012    2    1    2    0    0  0.76411933945E+01  0.38631354564E+02 -0.10119083547E+02  0.50528865187E+02  0.30000016221E+02 0.  0.
         12    1    1    2    0    0 -0.76411933945E+01 -0.38631354564E+02  0.10119083547E+02  0.40659134813E+02  0.00000000000E+00 0. -1.
         11    1    3    3    0    0 -0.12225823714E+01 -0.24936704151E+00 -0.47178598096E+01  0.48800710057E+01  0.51100000000E-03 0. -1.
        -11    1    3    3    0    0  0.10039349334E+02  0.41299940121E+02 -0.59094493851E+01  0.42911480763E+02  0.51100000000E-03 0.  1.
         12    1    3    3    0    0 -0.11755735677E+01 -0.24192185150E+01  0.50822564807E+00  0.27373134175E+01  0.00000000000E+00 0. -1.
</event>
<event>
 7    1  0.5642630E-013  0.5052885E+02  0.7816164E-02  0.1300439E+00
        -11   -1    0    0    0    0  0.00000000000E+00  0.00000000000E+00  0.45593999997E+02  0.45594000000E+02  0.51100000000E-03 0. -1.
         11   -1    0    0    0    0 -0.00000000000E+00 -0.00000000000E+00 -0.45593999997E+02  0.45594000000E+02  0.51100000000E-03 0.  1.
    9900012    2    1    2    0    0  0.34370694916E+02 -0.19536551998E+02  0.94944534857E+01  0.50528853673E+02  0.29999981226E+02 0.  0.
         12    1    1    2    0    0 -0.34370694916E+02  0.19536551998E+02 -0.94944534857E+01  0.40659146327E+02  0.00000000000E+00 0. -1.
         11    1    3    3    0    0  0.19055511521E+02 -0.50143721689E+00  0.23024661281E+01  0.19200659081E+02  0.51100000000E-03 0. -1.
        -11    1    3    3    0    0  0.19519222350E+02 -0.16134274869E+02  0.67082142223E+01  0.26197614491E+02  0.51100000000E-03 0.  1.
         12    1    3    3    0    0 -0.42040389547E+01 -0.29008399123E+01  0.48377313531E+00  0.51305801013E+01  0.00000000000E+00 0. -1.
</event>
<event>
 7    1  0.5642630E-013  0.5052885E+02  0.7816164E-02  0.1300439E+00
        -11   -1    0    0    0    0  0.00000000000E+00  0.00000000000E+00  0.45593999997E+02  0.45594000000E+02  0.51100000000E-03 0.  1.
         11   -1    0    0    0    0 -0.00000000000E+00 -0.00000000000E+00 -0.45593999997E+02  0.45594000000E+02  0.51100000000E-03 0. -1.
    9900012    2    1    2    0    0  0.31301763393E+02 -0.16909973034E+02  0.19682956896E+02  0.50528851316E+02  0.29999974061E+02 0.  0.
         12    1    1    2    0    0 -0.31301763393E+02  0.16909973034E+02 -0.19682956896E+02  0.40659148684E+02  0.00000000000E+00 0. -1.
         11    1    3    3    0    0  0.81669905001E+00 -0.43747443223E+01  0.12164755757E+02  0.12953249326E+02  0.51100000000E-03 0. -1.
        -11    1    3    3    0    0  0.78831587514E+01 -0.10260055389E+02  0.73048764927E+01  0.14858470625E+02  0.51100000000E-03 0.  1.
        -12    1    3    3    0    0  0.22601905592E+02 -0.22751733227E+01  0.21332464596E+00  0.22717131365E+02  0.00000000000E+00 0.  1.
</event>
<event>
 7    1  0.8927058E-013  0.5052886E+02  0.7816164E-02  0.1300439E+00
        -11   -1    0    0    0    0  0.00000000000E+00  0.00000000000E+00  0.45593999997E+02  0.45594000000E+02  0.51100000000E-03 0. -1.
         11   -1    0    0    0    0 -0.00000000000E+00 -0.00000000000E+00 -0.45593999997E+02  0.45594000000E+02  0.51100000000E-03 0.  1.
    9900012    2    1    2    0    0  0.17661044105E+02 -0.23257971864E+02 -0.28289923211E+02  0.50528862166E+02  0.30000007039E+02 0.  0.
         12    1    1    2    0    0 -0.17661044105E+02  0.23257971864E+02  0.28289923211E+02  0.40659137834E+02  0.00000000000E+00 0. -1.
         11    1    3    3    0    0 -0.20686317389E+01  0.27036419958E+01 -0.71192255912E+01  0.78912794015E+01  0.51100000000E-03 0. -1.
        -11    1    3    3    0    0  0.69187360049E+01 -0.30712498333E+01 -0.13209340032E+02  0.15224590234E+02  0.51100000000E-03 0.  1.
        -12    1    3    3    0    0  0.12810939839E+02 -0.22890364027E+02 -0.79613575879E+01  0.27412992530E+02  0.00000000000E+00 0.  1.
</event>
<event>
 7    1  0.5642630E-013  0.5052878E+02  0.7816164E-02  0.1300439E+00
        -11   -1    0    0    0    0  0.00000000000E+00  0.00000000000E+00  0.45593999997E+02  0.45594000000E+02  0.51100000000E-03 0.  1.
         11   -1    0    0    0    0 -0.00000000000E+00 -0.00000000000E+00 -0.45593999997E+02  0.45594000000E+02  0.51100000000E-03 0. -1.
    9900012    2    1    2    0    0 -0.31859056504E+02  0.23839744751E+02  0.83569862357E+01  0.50528780503E+02  0.29999758817E+02 0.  0.
         12    1    1    2    0    0  0.31859056504E+02 -0.23839744751E+02 -0.83569862357E+01  0.40659219497E+02  0.00000000000E+00 0. -1.
         11    1    3    3    0    0 -0.12789241100E+02 -0.22066878774E+01  0.36376026610E+01  0.13478364614E+02  0.51100000000E-03 0. -1.
        -11    1    3    3    0    0 -0.13984973967E+02  0.68739217523E+01  0.70025826521E+01  0.17084099660E+02  0.51100000000E-03 0.  1.
        -12    1    3    3    0    0 -0.50848414366E+01  0.19172510876E+02 -0.22831990774E+01  0.19966316229E+02  0.00000000000E+00 0.  1.
</event>
<event>
 7    1  0.5642630E-013  0.5052886E+02  0.7816164E-02  0.1300439E+00
        -11   -1    0    0    0    0  0.00000000000E+00  0.00000000000E+00  0.45593999997E+02  0.45594000000E+02  0.51100000000E-03 0. -1.
         11   -1    0    0    0    0 -0.00000000000E+00 -0.00000000000E+00 -0.45593999997E+02  0.45594000000E+02  0.51100000000E-03 0.  1.
    9900012    2    1    2    0    0 -0.88793644934E+00 -0.40613168598E+02  0.17169224263E+01  0.50528859363E+02  0.29999998520E+02 0.  0.
         12    1    1    2    0    0  0.88793644934E+00  0.40613168598E+02 -0.17169224263E+01  0.40659140637E+02  0.00000000000E+00 0. -1.
         11    1    3    3    0    0  0.22017267769E+01 -0.87297291516E+01 -0.38972622344E+01  0.98104243050E+01  0.51100000000E-03 0. -1.
        -11    1    3    3    0    0 -0.10322104210E+02 -0.30800745895E+02  0.71116034244E+01  0.33253671775E+02  0.51100000000E-03 0.  1.
         12    1    3    3    0    0  0.72324409838E+01 -0.10826935516E+01 -0.14974187637E+01  0.74647632826E+01  0.00000000000E+00 0. -1.
</event>
<event>
 7    1  0.5642630E-013  0.5052886E+02  0.7816164E-02  0.1300439E+00
        -11   -1    0    0    0    0  0.00000000000E+00  0.00000000000E+00  0.45593999997E+02  0.45594000000E+02  0.51100000000E-03 0.  1.
         11   -1    0    0    0    0 -0.00000000000E+00 -0.00000000000E+00 -0.45593999997E+02  0.45594000000E+02  0.51100000000E-03 0. -1.
    9900012    2    1    2    0    0 -0.76239727808E+01  0.30637932250E+02  0.25619481356E+02  0.50528859841E+02  0.29999999972E+02 0.  0.
         12    1    1    2    0    0  0.76239727808E+01 -0.30637932250E+02 -0.25619481356E+02  0.40659140159E+02  0.00000000000E+00 0. -1.
         11    1    3    3    0    0 -0.10606373898E+01  0.14722147688E+00 -0.74450649368E+00  0.13041917099E+01  0.51100000000E-03 0. -1.
        -11    1    3    3    0    0 -0.10150813295E+02  0.34677275238E+01 -0.77997752665E+00  0.10755115524E+02  0.51100000000E-03 0.  1.
        -12    1    3    3    0    0  0.35874779038E+01  0.27022983250E+02  0.27143965377E+02  0.38469552607E+02  0.00000000000E+00 0.  1.
</event>
<event>
 7    1  0.5642630E-013  0.5052887E+02  0.7816164E-02  0.1300439E+00
        -11   -1    0    0    0    0  0.00000000000E+00  0.00000000000E+00  0.45593999997E+02  0.45594000000E+02  0.51100000000E-03 0. -1.
         11   -1    0    0    0    0 -0.00000000000E+00 -0.00000000000E+00 -0.45593999997E+02  0.45594000000E+02  0.51100000000E-03 0.  1.
    9900012    2    1    2    0    0 -0.20327039536E+02 -0.16850518532E+02 -0.30919841979E+02  0.50528866474E+02  0.30000020133E+02 0.  0.
         12    1    1    2    0    0  0.20327039536E+02  0.16850518532E+02  0.30919841979E+02  0.40659133526E+02  0.00000000000E+00 0. -1.
         11    1    3    3    0    0  0.16919795336E+00  0.84354362537E+00  0.70852984788E+00  0.11145441228E+01  0.51100000000E-03 0. -1.
        -11    1    3    3    0    0  0.16180461242E+01  0.55971828241E+01 -0.54810232705E+01  0.79992590394E+01  0.51100000000E-03 0.  1.
        -12    1    3    3    0    0 -0.22114283614E+02 -0.23291244981E+02 -0.26147348557E+02  0.41415063311E+02  0.00000000000E+00 0.  1.
</event>
<event>
 7    1  0.5642630E-013  0.5052886E+02  0.7816164E-02  0.1300439E+00
        -11   -1    0    0    0    0  0.00000000000E+00  0.00000000000E+00  0.45593999997E+02  0.45594000000E+02  0.51100000000E-03 0. -1.
         11   -1    0    0    0    0 -0.00000000000E+00 -0.00000000000E+00 -0.45593999997E+02  0.45594000000E+02  0.51100000000E-03 0.  1.
    9900012    2    1    2    0    0 -0.39067882666E+02  0.69156925185E+01  0.88904212938E+01  0.50528857734E+02  0.29999993569E+02 0.  0.
         12    1    1    2    0    0  0.39067882666E+02 -0.69156925185E+01 -0.88904212938E+01  0.40659142266E+02  0.00000000000E+00 0. -1.
         11    1    3    3    0    0 -0.17522978038E+01  0.36242520804E+01 -0.30827016333E+01  0.50703846360E+01  0.51100000000E-03 0. -1.
        -11    1    3    3    0    0 -0.80072850065E+01 -0.40684672429E+01 -0.55198220256E+01  0.10542175977E+02  0.51100000000E-03 0.  1.
         12    1    3    3    0    0 -0.29308299856E+02  0.73599076810E+01  0.17492944953E+02  0.34916297121E+02  0.00000000000E+00 0. -1.
</event>
<event>
 7    1  0.5642630E-013  0.5052886E+02  0.7816164E-02  0.1300439E+00
        -11   -1    0    0    0    0  0.00000000000E+00  0.00000000000E+00  0.45593999997E+02  0.45594000000E+02  0.51100000000E-03 0. -1.
         11   -1    0    0    0    0 -0.00000000000E+00 -0.00000000000E+00 -0.45593999997E+02  0.45594000000E+02  0.51100000000E-03 0.  1.
    9900012    2    1    2    0    0  0.12309192689E+02  0.28894653540E+01 -0.38643241497E+02  0.50528863904E+02  0.30000012321E+02 0.  0.
         12    1    1    2    0    0 -0.12309192689E+02 -0.28894653540E+01  0.38643241497E+02  0.40659136096E+02  0.00000000000E+00 0. -1.
         11    1    3    3    0    0  0.72490137994E+01 -0.80067019358E+01 -0.24704544669E+02  0.26962381285E+02  0.51100000000E-03 0.  1.
        -11    1    3    3    0    0 -0.38803621905E+01  0.32377749913E+01 -0.99096456136E+01  0.11123914512E+02  0.51100000000E-03 0. -1.
        -12    1    3    3    0    0  0.89405410803E+01  0.76583922985E+01 -0.40290512142E+01  0.12442568107E+02  0.00000000000E+00 0.  1.
</event>
<event>
 7    1  0.5642630E-013  0.5052888E+02  0.7816164E-02  0.1300439E+00
        -11   -1    0    0    0    0  0.00000000000E+00  0.00000000000E+00  0.45593999997E+02  0.45594000000E+02  0.51100000000E-03 0.  1.
         11   -1    0    0    0    0 -0.00000000000E+00 -0.00000000000E+00 -0.45593999997E+02  0.45594000000E+02  0.51100000000E-03 0. -1.
    9900012    2    1    2    0    0  0.34495941625E+02 -0.13219931662E+02 -0.16983142390E+02  0.50528884083E+02  0.30000073657E+02 0.  0.
         12    1    1    2    0    0 -0.34495941625E+02  0.13219931662E+02  0.16983142390E+02  0.40659115917E+02  0.00000000000E+00 0. -1.
         11    1    3    3    0    0  0.84533517242E+01  0.26924849274E+01  0.48918439245E+01  0.10131079296E+02  0.51100000000E-03 0. -1.
        -11    1    3    3    0    0  0.19232747028E+02 -0.31675241356E+01 -0.11861663304E+02  0.22817336041E+02  0.51100000000E-03 0.  1.
        -12    1    3    3    0    0  0.68098428728E+01 -0.12744892454E+02 -0.10013323010E+02  0.17580468746E+02  0.00000000000E+00 0.  1.
</event>
<event>
 7    1  0.5642630E-013  0.5052886E+02  0.7816164E-02  0.1300439E+00
        -11   -1    0    0    0    0  0.00000000000E+00  0.00000000000E+00  0.45593999997E+02  0.45594000000E+02  0.51100000000E-03 0.  1.
         11   -1    0    0    0    0 -0.00000000000E+00 -0.00000000000E+00 -0.45593999997E+02  0.45594000000E+02  0.51100000000E-03 0. -1.
    9900012    2    1    2    0    0 -0.28976816756E+02 -0.18950608852E+02  0.21316293868E+02  0.50528857493E+02  0.29999992835E+02 0.  0.
         12    1    1    2    0    0  0.28976816756E+02  0.18950608852E+02 -0.21316293868E+02  0.40659142507E+02  0.00000000000E+00 0. -1.
         11    1    3    3    0    0 -0.17934396195E+01 -0.11557434641E+02  0.59821611248E+01  0.13136855526E+02  0.51100000000E-03 0. -1.
        -11    1    3    3    0    0 -0.21599701712E+02 -0.76715763810E+01  0.19758755318E+02  0.30262329887E+02  0.51100000000E-03 0.  1.
         12    1    3    3    0    0 -0.55836754247E+01  0.27840216947E+00 -0.44246225755E+01  0.71296720788E+01  0.00000000000E+00 0. -1.
</event>
<event>
 7    1  0.5642630E-013  0.5052888E+02  0.7816164E-02  0.1300439E+00
        -11   -1    0    0    0    0  0.00000000000E+00  0.00000000000E+00  0.45593999997E+02  0.45594000000E+02  0.51100000000E-03 0.  1.
         11   -1    0    0    0    0 -0.00000000000E+00 -0.00000000000E+00 -0.45593999997E+02  0.45594000000E+02  0.51100000000E-03 0. -1.
    9900012    2    1    2    0    0 -0.23433606931E+02  0.24127931182E+01  0.33139229848E+02  0.50528879752E+02  0.30000060494E+02 0.  0.
         12    1    1    2    0    0  0.23433606931E+02 -0.24127931182E+01 -0.33139229848E+02  0.40659120248E+02  0.00000000000E+00 0. -1.
         11    1    3    3    0    0 -0.12350591067E+01  0.85967563741E+01  0.11341998857E+02  0.14285325669E+02  0.51100000000E-03 0. -1.
        -11    1    3    3    0    0 -0.15177396618E+01  0.17508599153E+01  0.11651713588E+02  0.11879876848E+02  0.51100000000E-03 0.  1.
        -12    1    3    3    0    0 -0.20680808163E+02 -0.79348231711E+01  0.10145517403E+02  0.24363677235E+02  0.00000000000E+00 0.  1.
</event>
<event>
 7    1  0.5642630E-013  0.5052886E+02  0.7816164E-02  0.1300439E+00
        -11   -1    0    0    0    0  0.00000000000E+00  0.00000000000E+00  0.45593999997E+02  0.45594000000E+02  0.51100000000E-03 0.  1.
         11   -1    0    0    0    0 -0.00000000000E+00 -0.00000000000E+00 -0.45593999997E+02  0.45594000000E+02  0.51100000000E-03 0. -1.
    9900012    2    1    2    0    0  0.41204262703E+01  0.40435542888E+02 -0.10745546438E+01  0.50528859466E+02  0.29999998833E+02 0.  0.
         12    1    1    2    0    0 -0.41204262703E+01 -0.40435542888E+02  0.10745546438E+01  0.40659140534E+02  0.00000000000E+00 0. -1.
         11    1    3    3    0    0 -0.37809154970E+01 -0.66156742119E+00 -0.19723931690E+01  0.43154754688E+01  0.51100000000E-03 0. -1.
        -11    1    3    3    0    0 -0.30519803360E+01  0.92528242454E+01 -0.65293198892E+01  0.11728655463E+02  0.51100000000E-03 0.  1.
        -12    1    3    3    0    0  0.10953322103E+02  0.31844286063E+02  0.74271584143E+01  0.34484728535E+02  0.00000000000E+00 0.  1.
</event>
<event>
 7    1  0.5642630E-013  0.5052886E+02  0.7816164E-02  0.1300439E+00
        -11   -1    0    0    0    0  0.00000000000E+00  0.00000000000E+00  0.45593999997E+02  0.45594000000E+02  0.51100000000E-03 0.  1.
         11   -1    0    0    0    0 -0.00000000000E+00 -0.00000000000E+00 -0.45593999997E+02  0.45594000000E+02  0.51100000000E-03 0. -1.
    9900012    2    1    2    0    0  0.30047574643E+02 -0.74287329577E+01  0.26365185097E+02  0.50528858341E+02  0.29999995413E+02 0.  0.
         12    1    1    2    0    0 -0.30047574643E+02  0.74287329577E+01 -0.26365185097E+02  0.40659141659E+02  0.00000000000E+00 0. -1.
         11    1    3    3    0    0  0.12194806631E+02  0.27433998135E+01  0.30651253988E+01  0.12869908518E+02  0.51100000000E-03 0. -1.
        -11    1    3    3    0    0  0.15620543671E+02 -0.67898699572E+01  0.34229907899E+01  0.17372984338E+02  0.51100000000E-03 0.  1.
         12    1    3    3    0    0  0.22322243413E+01 -0.33822628140E+01  0.19877068908E+02  0.20285965484E+02  0.00000000000E+00 0. -1.
</event>
<event>
 7    1  0.5642630E-013  0.5052884E+02  0.7816164E-02  0.1300439E+00
        -11   -1    0    0    0    0  0.00000000000E+00  0.00000000000E+00  0.45593999997E+02  0.45594000000E+02  0.51100000000E-03 0.  1.
         11   -1    0    0    0    0 -0.00000000000E+00 -0.00000000000E+00 -0.45593999997E+02  0.45594000000E+02  0.51100000000E-03 0. -1.
    9900012    2    1    2    0    0 -0.21955499897E+02 -0.28339670834E+02 -0.19182967263E+02  0.50528841725E+02  0.29999944906E+02 0.  0.
         12    1    1    2    0    0  0.21955499897E+02  0.28339670834E+02  0.19182967263E+02  0.40659158275E+02  0.00000000000E+00 0. -1.
         11    1    3    3    0    0  0.17719259160E+01 -0.99593927969E+00  0.62096484055E+00  0.21253738718E+01  0.51100000000E-03 0. -1.
        -11    1    3    3    0    0 -0.11190832345E+02 -0.24224057123E+02 -0.24887190397E+01  0.26799876768E+02  0.51100000000E-03 0.  1.
        -12    1    3    3    0    0 -0.12536593467E+02 -0.31196744311E+01 -0.17315213063E+02  0.21603591085E+02  0.00000000000E+00 0.  1.
</event>
<event>
 7    1  0.5642630E-013  0.5052886E+02  0.7816164E-02  0.1300439E+00
        -11   -1    0    0    0    0  0.00000000000E+00  0.00000000000E+00  0.45593999997E+02  0.45594000000E+02  0.51100000000E-03 0.  1.
         11   -1    0    0    0    0 -0.00000000000E+00 -0.00000000000E+00 -0.45593999997E+02  0.45594000000E+02  0.51100000000E-03 0. -1.
    9900012    2    1    2    0    0  0.15903917027E+02 -0.36209519995E+02  0.94393675536E+01  0.50528861115E+02  0.30000003846E+02 0.  0.
         12    1    1    2    0    0 -0.15903917027E+02  0.36209519995E+02 -0.94393675536E+01  0.40659138885E+02  0.00000000000E+00 0. -1.
         11    1    3    3    0    0  0.20447461578E+01 -0.22930180604E+02 -0.75630238201E+00  0.23033587713E+02  0.51100000000E-03 0. -1.
        -11    1    3    3    0    0  0.11822843743E+01 -0.12782294013E+02  0.55414361740E+01  0.13981857949E+02  0.51100000000E-03 0.  1.
         12    1    3    3    0    0  0.12676886494E+02 -0.49704537767E+00  0.46542337616E+01  0.13513415453E+02  0.00000000000E+00 0. -1.
</event>
<event>
 7    1  0.5642630E-013  0.5052887E+02  0.7816164E-02  0.1300439E+00
        -11   -1    0    0    0    0  0.00000000000E+00  0.00000000000E+00  0.45593999997E+02  0.45594000000E+02  0.51100000000E-03 0.  1.
         11   -1    0    0    0    0 -0.00000000000E+00 -0.00000000000E+00 -0.45593999997E+02  0.45594000000E+02  0.51100000000E-03 0. -1.
    9900012    2    1    2    0    0  0.22005745775E+02 -0.72250262805E+01  0.33417225325E+02  0.50528870640E+02  0.30000032798E+02 0.  0.
         12    1    1    2    0    0 -0.22005745775E+02  0.72250262805E+01 -0.33417225325E+02  0.40659129360E+02  0.00000000000E+00 0. -1.
         11    1    3    3    0    0 -0.15050230292E+01 -0.14865738585E+01  0.16639402923E+01  0.26914111006E+01  0.51100000000E-03 0. -1.
        -11    1    3    3    0    0  0.12886968126E+02 -0.15809331264E+02  0.23168631437E+02  0.30867367646E+02  0.51100000000E-03 0.  1.
        -12    1    3    3    0    0  0.10623800678E+02  0.10070878842E+02  0.85846535959E+01  0.16970091893E+02  0.00000000000E+00 0.  1.
</event>
<event>
 7    1  0.6111324E-013  0.5052886E+02  0.7816164E-02  0.1300439E+00
        -11   -1    0    0    0    0  0.00000000000E+00  0.00000000000E+00  0.45593999997E+02  0.45594000000E+02  0.51100000000E-03 0.  1.
         11   -1    0    0    0    0 -0.00000000000E+00 -0.00000000000E+00 -0.45593999997E+02  0.45594000000E+02  0.51100000000E-03 0. -1.
    9900012    2    1    2    0    0 -0.32662795500E+02  0.10159149822E+02  0.21979507808E+02  0.50528864514E+02  0.30000014177E+02 0.  0.
         12    1    1    2    0    0  0.32662795500E+02 -0.10159149822E+02 -0.21979507808E+02  0.40659135486E+02  0.00000000000E+00 0. -1.
         11    1    3    3    0    0 -0.67850267719E+01 -0.22467499283E+01 -0.44659644153E+01  0.84278889383E+01  0.51100000000E-03 0. -1.
        -11    1    3    3    0    0 -0.18079596963E+02  0.10833498358E+02  0.89820362578E+01  0.22910990564E+02  0.51100000000E-03 0.  1.
        -12    1    3    3    0    0 -0.77981717646E+01  0.15724013914E+01  0.17463435966E+02  0.19189985012E+02  0.00000000000E+00 0.  1.
</event>
<event>
 7    1  0.5642630E-013  0.5052886E+02  0.7816164E-02  0.1300439E+00
        -11   -1    0    0    0    0  0.00000000000E+00  0.00000000000E+00  0.45593999997E+02  0.45594000000E+02  0.51100000000E-03 0.  1.
         11   -1    0    0    0    0 -0.00000000000E+00 -0.00000000000E+00 -0.45593999997E+02  0.45594000000E+02  0.51100000000E-03 0. -1.
    9900012    2    1    2    0    0 -0.24532090297E+01 -0.22015022916E+01  0.40525309259E+02  0.50528861576E+02  0.30000005246E+02 0.  0.
         12    1    1    2    0    0  0.24532090297E+01  0.22015022916E+01 -0.40525309259E+02  0.40659138424E+02  0.00000000000E+00 0. -1.
         11    1    3    3    0    0 -0.47115686117E+01 -0.89990007282E+00  0.26329754061E+02  0.26763121045E+02  0.51100000000E-03 0.  1.
        -11    1    3    3    0    0 -0.46974546454E+01  0.15018817757E+01  0.15399744405E+02  0.16170153277E+02  0.51100000000E-03 0. -1.
         12    1    3    3    0    0  0.69558142275E+01 -0.28034839944E+01 -0.12041892070E+01  0.75955872531E+01  0.00000000000E+00 0. -1.
</event>
<event>
 7    1  0.5642630E-013  0.5052886E+02  0.7816164E-02  0.1300439E+00
        -11   -1    0    0    0    0  0.00000000000E+00  0.00000000000E+00  0.45593999997E+02  0.45594000000E+02  0.51100000000E-03 0.  1.
         11   -1    0    0    0    0 -0.00000000000E+00 -0.00000000000E+00 -0.45593999997E+02  0.45594000000E+02  0.51100000000E-03 0. -1.
    9900012    2    1    2    0    0  0.89779342400E+01 -0.61054959532E+01  0.39182715316E+02  0.50528861254E+02  0.30000004267E+02 0.  0.
         12    1    1    2    0    0 -0.89779342400E+01  0.61054959532E+01 -0.39182715316E+02  0.40659138746E+02  0.00000000000E+00 0. -1.
         11    1    3    3    0    0 -0.44076907457E+00 -0.62788294759E+01 -0.19163273183E+01  0.65795355168E+01  0.51100000000E-03 0. -1.
        -11    1    3    3    0    0  0.81611578519E+01  0.38848957081E+01  0.14667295093E+02  0.17228652233E+02  0.51100000000E-03 0.  1.
        -12    1    3    3    0    0  0.12575454627E+01 -0.37115621854E+01  0.26431747541E+02  0.26720673505E+02  0.00000000000E+00 0.  1.
</event>
<event>
 7    1  0.5642630E-013  0.5052884E+02  0.7816164E-02  0.1300439E+00
        -11   -1    0    0    0    0  0.00000000000E+00  0.00000000000E+00  0.45593999997E+02  0.45594000000E+02  0.51100000000E-03 0. -1.
         11   -1    0    0    0    0 -0.00000000000E+00 -0.00000000000E+00 -0.45593999997E+02  0.45594000000E+02  0.51100000000E-03 0.  1.
    9900012    2    1    2    0    0  0.86719800714E+01  0.24805144329E+02 -0.31026908828E+02  0.50528837504E+02  0.29999932076E+02 0.  0.
         12    1    1    2    0    0 -0.86719800714E+01 -0.24805144329E+02  0.31026908828E+02  0.40659162496E+02  0.00000000000E+00 0. -1.
         11    1    3    3    0    0  0.15127411855E+02  0.81813108432E+01 -0.10089194438E+02  0.19939014049E+02  0.51100000000E-03 0. -1.
        -11    1    3    3    0    0  0.26686257960E+01  0.97698185966E+01 -0.59294700869E+01  0.11735822716E+02  0.51100000000E-03 0.  1.
         12    1    3    3    0    0 -0.91240575801E+01  0.68540148889E+01 -0.15008244302E+02  0.18854000739E+02  0.00000000000E+00 0. -1.
</event>
<event>
 7    1  0.5642630E-013  0.5052886E+02  0.7816164E-02  0.1300439E+00
        -11   -1    0    0    0    0  0.00000000000E+00  0.00000000000E+00  0.45593999997E+02  0.45594000000E+02  0.51100000000E-03 0. -1.
         11   -1    0    0    0    0 -0.00000000000E+00 -0.00000000000E+00 -0.45593999997E+02  0.45594000000E+02  0.51100000000E-03 0.  1.
    9900012    2    1    2    0    0 -0.17079041265E+02  0.36789756387E+02 -0.28259439423E+01  0.50528858534E+02  0.29999996001E+02 0.  0.
         12    1    1    2    0    0  0.17079041265E+02 -0.36789756387E+02  0.28259439423E+01  0.40659141466E+02  0.00000000000E+00 0. -1.
         11    1    3    3    0    0 -0.51751957732E+00  0.84169807461E+01 -0.79275719938E+00  0.84700564125E+01  0.51100000000E-03 0. -1.
        -11    1    3    3    0    0 -0.19478272199E+02  0.14386784558E+02  0.69369240451E+01  0.25189354364E+02  0.51100000000E-03 0.  1.
         12    1    3    3    0    0  0.29167505116E+01  0.13985991083E+02 -0.89701107880E+01  0.16869447758E+02  0.00000000000E+00 0. -1.
</event>
<event>
 7    1  0.5642630E-013  0.5052886E+02  0.7816164E-02  0.1300439E+00
        -11   -1    0    0    0    0  0.00000000000E+00  0.00000000000E+00  0.45593999997E+02  0.45594000000E+02  0.51100000000E-03 0.  1.
         11   -1    0    0    0    0 -0.00000000000E+00 -0.00000000000E+00 -0.45593999997E+02  0.45594000000E+02  0.51100000000E-03 0. -1.
    9900012    2    1    2    0    0 -0.15684568982E+02 -0.25683993849E+02  0.27340302581E+02  0.50528863396E+02  0.30000010779E+02 0.  0.
         12    1    1    2    0    0  0.15684568982E+02  0.25683993849E+02 -0.27340302581E+02  0.40659136604E+02  0.00000000000E+00 0. -1.
         11    1    3    3    0    0 -0.49538571288E+01 -0.54689842541E+01  0.92339594293E+01  0.11820173274E+02  0.51100000000E-03 0.  1.
        -11    1    3    3    0    0 -0.10823409970E+02 -0.47779506375E+01 -0.33313359204E+01  0.12291168168E+02  0.51100000000E-03 0. -1.
         12    1    3    3    0    0  0.92698116839E-01 -0.15437058957E+02  0.21437679072E+02  0.26417521954E+02  0.00000000000E+00 0. -1.
</event>
<event>
 7    1  0.5642630E-013  0.5052887E+02  0.7816164E-02  0.1300439E+00
        -11   -1    0    0    0    0  0.00000000000E+00  0.00000000000E+00  0.45593999997E+02  0.45594000000E+02  0.51100000000E-03 0. -1.
         11   -1    0    0    0    0 -0.00000000000E+00 -0.00000000000E+00 -0.45593999997E+02  0.45594000000E+02  0.51100000000E-03 0.  1.
    9900012    2    1    2    0    0  0.29748942196E+02  0.82259387322E+01 -0.26466947041E+02  0.50528869224E+02  0.30000028493E+02 0.  0.
         12    1    1    2    0    0 -0.29748942196E+02 -0.82259387322E+01  0.26466947041E+02  0.40659130776E+02  0.00000000000E+00 0. -1.
         11    1    3    3    0    0  0.58116587875E+01 -0.14281907893E+01  0.28045744595E+01  0.66091410147E+01  0.51100000000E-03 0. -1.
        -11    1    3    3    0    0  0.22602392441E+02 -0.34179273415E-01 -0.23296228537E+02  0.32458952180E+02  0.51100000000E-03 0.  1.
         12    1    3    3    0    0  0.13348909673E+01  0.96883087950E+01 -0.59752929627E+01  0.11460776029E+02  0.00000000000E+00 0. -1.
</event>
<event>
 7    1  0.5642630E-013  0.5052886E+02  0.7816164E-02  0.1300439E+00
        -11   -1    0    0    0    0  0.00000000000E+00  0.00000000000E+00  0.45593999997E+02  0.45594000000E+02  0.51100000000E-03 0. -1.
         11   -1    0    0    0    0 -0.00000000000E+00 -0.00000000000E+00 -0.45593999997E+02  0.45594000000E+02  0.51100000000E-03 0.  1.
    9900012    2    1    2    0    0  0.66350258040E+01 -0.29049818714E+02 -0.27663157709E+02  0.50528857988E+02  0.29999994340E+02 0.  0.
         12    1    1    2    0    0 -0.66350258040E+01  0.29049818714E+02  0.27663157709E+02  0.40659142012E+02  0.00000000000E+00 0. -1.
         11    1    3    3    0    0  0.17574663386E+01  0.17483525320E+01  0.73321228851E+00  0.25851547397E+01  0.51100000000E-03 0. -1.
        -11    1    3    3    0    0  0.62330472115E+01 -0.91109396273E+01  0.13334976030E+01  0.11119276710E+02  0.51100000000E-03 0.  1.
         12    1    3    3    0    0 -0.13554877461E+01 -0.21687231619E+02 -0.29729867600E+02  0.36824426538E+02  0.00000000000E+00 0. -1.
</event>
<event>
 7    1  0.5642630E-013  0.5052886E+02  0.7816164E-02  0.1300439E+00
        -11   -1    0    0    0    0  0.00000000000E+00  0.00000000000E+00  0.45593999997E+02  0.45594000000E+02  0.51100000000E-03 0.  1.
         11   -1    0    0    0    0 -0.00000000000E+00 -0.00000000000E+00 -0.45593999997E+02  0.45594000000E+02  0.51100000000E-03 0. -1.
    9900012    2    1    2    0    0 -0.72574128659E+01  0.31834345729E+02  0.24229532083E+02  0.50528857922E+02  0.29999994141E+02 0.  0.
         12    1    1    2    0    0  0.72574128659E+01 -0.31834345729E+02 -0.24229532083E+02  0.40659142078E+02  0.00000000000E+00 0. -1.
         11    1    3    3    0    0 -0.50127966933E+01 -0.25163473153E+01  0.65978991545E+01  0.86598157032E+01  0.51100000000E-03 0. -1.
        -11    1    3    3    0    0  0.39990263860E+01  0.15353146974E+02  0.10653398093E+01  0.15901140941E+02  0.51100000000E-03 0.  1.
        -12    1    3    3    0    0 -0.62436425586E+01  0.18997546070E+02  0.16566293120E+02  0.25967901279E+02  0.00000000000E+00 0.  1.
</event>
<event>
 7    1  0.5642630E-013  0.5052886E+02  0.7816164E-02  0.1300439E+00
        -11   -1    0    0    0    0  0.00000000000E+00  0.00000000000E+00  0.45593999997E+02  0.45594000000E+02  0.51100000000E-03 0.  1.
         11   -1    0    0    0    0 -0.00000000000E+00 -0.00000000000E+00 -0.45593999997E+02  0.45594000000E+02  0.51100000000E-03 0. -1.
    9900012    2    1    2    0    0  0.22744238117E+02 -0.15967764856E+02  0.29679889239E+02  0.50528859487E+02  0.29999998896E+02 0.  0.
         12    1    1    2    0    0 -0.22744238117E+02  0.15967764856E+02 -0.29679889239E+02  0.40659140513E+02  0.00000000000E+00 0. -1.
         11    1    3    3    0    0  0.14445060235E+02 -0.22587539696E+00  0.64681567167E+01  0.15828702930E+02  0.51100000000E-03 0. -1.
        -11    1    3    3    0    0  0.67717671362E+01 -0.11915352086E+02  0.26228709775E+02  0.29593540886E+02  0.51100000000E-03 0.  1.
         12    1    3    3    0    0  0.15274107461E+01 -0.38265373740E+01 -0.30169772525E+01  0.51066156703E+01  0.00000000000E+00 0. -1.
</event>
<event>
 7    1  0.5642630E-013  0.5052886E+02  0.7816164E-02  0.1300439E+00
        -11   -1    0    0    0    0  0.00000000000E+00  0.00000000000E+00  0.45593999997E+02  0.45594000000E+02  0.51100000000E-03 0. -1.
         11   -1    0    0    0    0 -0.00000000000E+00 -0.00000000000E+00 -0.45593999997E+02  0.45594000000E+02  0.51100000000E-03 0.  1.
    9900012    2    1    2    0    0 -0.13776289930E+00  0.12921794027E+02 -0.38550924669E+02  0.50528861638E+02  0.30000005436E+02 0.  0.
         12    1    1    2    0    0  0.13776289930E+00 -0.12921794027E+02  0.38550924669E+02  0.40659138362E+02  0.00000000000E+00 0. -1.
         11    1    3    3    0    0  0.99480137819E+00 -0.40397872653E+01 -0.24183981594E+02  0.24539243609E+02  0.51100000000E-03 0. -1.
        -11    1    3    3    0    0  0.59472190490E+01  0.10283390611E+02 -0.87345149657E+01  0.14744805486E+02  0.51100000000E-03 0.  1.
         12    1    3    3    0    0 -0.70797833265E+01  0.66781906804E+01 -0.56324281094E+01  0.11244812543E+02  0.00000000000E+00 0. -1.
</event>
<event>
 7    1  0.5642630E-013  0.5052886E+02  0.7816164E-02  0.1300439E+00
        -11   -1    0    0    0    0  0.00000000000E+00  0.00000000000E+00  0.45593999997E+02  0.45594000000E+02  0.51100000000E-03 0. -1.
         11   -1    0    0    0    0 -0.00000000000E+00 -0.00000000000E+00 -0.45593999997E+02  0.45594000000E+02  0.51100000000E-03 0.  1.
    9900012    2    1    2    0    0  0.17829365832E+02  0.94761145936E+01 -0.35291399695E+02  0.50528856794E+02  0.29999990711E+02 0.  0.
         12    1    1    2    0    0 -0.17829365832E+02 -0.94761145936E+01  0.35291399695E+02  0.40659143206E+02  0.00000000000E+00 0. -1.
         11    1    3    3    0    0 -0.10478436143E+01  0.12142927396E+01 -0.19484375209E+01  0.25236664065E+01  0.51100000000E-03 0. -1.
        -11    1    3    3    0    0  0.15670621036E+02 -0.76996027461E+01 -0.12107872441E+02  0.21247419171E+02  0.51100000000E-03 0.  1.
        -12    1    3    3    0    0  0.32065884103E+01  0.15961424600E+02 -0.21235089734E+02  0.26757771217E+02  0.00000000000E+00 0.  1.
</event>
<event>
 7    1  0.5642630E-013  0.5052886E+02  0.7816164E-02  0.1300439E+00
        -11   -1    0    0    0    0  0.00000000000E+00  0.00000000000E+00  0.45593999997E+02  0.45594000000E+02  0.51100000000E-03 0.  1.
         11   -1    0    0    0    0 -0.00000000000E+00 -0.00000000000E+00 -0.45593999997E+02  0.45594000000E+02  0.51100000000E-03 0. -1.
    9900012    2    1    2    0    0  0.54028053458E+01  0.31545019722E+02  0.25077615725E+02  0.50528863446E+02  0.30000010931E+02 0.  0.
         12    1    1    2    0    0 -0.54028053458E+01 -0.31545019722E+02 -0.25077615725E+02  0.40659136554E+02  0.00000000000E+00 0. -1.
         11    1    3    3    0    0 -0.79095630289E+01  0.14623138797E+02  0.85764905001E+01  0.18707045869E+02  0.51100000000E-03 0. -1.
        -11    1    3    3    0    0 -0.29763154114E+01  0.42162386928E+01  0.79184374173E+01  0.94518132406E+01  0.51100000000E-03 0.  1.
         12    1    3    3    0    0  0.16288683786E+02  0.12705642233E+02  0.85826878073E+01  0.22370004337E+02  0.00000000000E+00 0. -1.
</event>
<event>
 7    1  0.5642630E-013  0.5052885E+02  0.7816164E-02  0.1300439E+00
        -11   -1    0    0    0    0  0.00000000000E+00  0.00000000000E+00  0.45593999997E+02  0.45594000000E+02  0.51100000000E-03 0.  1.
         11   -1    0    0    0    0 -0.00000000000E+00 -0.00000000000E+00 -0.45593999997E+02  0.45594000000E+02  0.51100000000E-03 0. -1.
    9900012    2    1    2    0    0  0.82546930325E+00  0.28037911283E+02  0.29433997753E+02  0.50528854751E+02  0.29999984500E+02 0.  0.
         12    1    1    2    0    0 -0.82546930325E+00 -0.28037911283E+02 -0.29433997753E+02  0.40659145249E+02  0.00000000000E+00 0. -1.
         11    1    3    3    0    0 -0.37493306099E+01 -0.33144037031E-01 -0.75348470481E+00  0.38244369534E+01  0.51100000000E-03 0. -1.
        -11    1    3    3    0    0  0.11568983493E+02  0.17442005192E+02  0.10900282831E+02  0.23598328123E+02  0.51100000000E-03 0.  1.
         12    1    3    3    0    0 -0.69941835794E+01  0.10629050128E+02  0.19287199627E+02  0.23106089674E+02  0.00000000000E+00 0. -1.
</event>
<event>
 7    1  0.5642630E-013  0.5052888E+02  0.7816164E-02  0.1300439E+00
        -11   -1    0    0    0    0  0.00000000000E+00  0.00000000000E+00  0.45593999997E+02  0.45594000000E+02  0.51100000000E-03 0. -1.
         11   -1    0    0    0    0 -0.00000000000E+00 -0.00000000000E+00 -0.45593999997E+02  0.45594000000E+02  0.51100000000E-03 0.  1.
    9900012    2    1    2    0    0  0.44925207497E+01  0.34520253147E+02 -0.21007944906E+02  0.50528875942E+02  0.30000048913E+02 0.  0.
         12    1    1    2    0    0 -0.44925207497E+01 -0.34520253147E+02  0.21007944906E+02  0.40659124058E+02  0.00000000000E+00 0. -1.
         11    1    3    3    0    0  0.87105717623E+01  0.79440982289E+01  0.19382429981E+01  0.11947365537E+02  0.51100000000E-03 0. -1.
        -11    1    3    3    0    0  0.48454648765E+01  0.14649955611E+02 -0.15432089744E+02  0.21823132759E+02  0.51100000000E-03 0.  1.
        -12    1    3    3    0    0 -0.90635158892E+01  0.11926199307E+02 -0.75140981596E+01  0.16758377646E+02  0.00000000000E+00 0.  1.
</event>
<event>
 7    1  0.5642630E-013  0.5052886E+02  0.7816164E-02  0.1300439E+00
        -11   -1    0    0    0    0  0.00000000000E+00  0.00000000000E+00  0.45593999997E+02  0.45594000000E+02  0.51100000000E-03 0.  1.
         11   -1    0    0    0    0 -0.00000000000E+00 -0.00000000000E+00 -0.45593999997E+02  0.45594000000E+02  0.51100000000E-03 0. -1.
    9900012    2    1    2    0    0  0.23153882390E+02 -0.21697841587E+02  0.25421783816E+02  0.50528859679E+02  0.29999999480E+02 0.  0.
         12    1    1    2    0    0 -0.23153882390E+02  0.21697841587E+02 -0.25421783816E+02  0.40659140321E+02  0.00000000000E+00 0. -1.
         11    1    3    3    0    0 -0.36571092912E+01 -0.55656592787E+01  0.15418893595E+01  0.68358199678E+01  0.51100000000E-03 0. -1.
        -11    1    3    3    0    0  0.10216023061E+02 -0.11913981124E+02  0.21176608611E+02  0.26358278129E+02  0.51100000000E-03 0.  1.
         12    1    3    3    0    0  0.16594968620E+02 -0.42182011841E+01  0.27032858454E+01  0.17334761582E+02  0.00000000000E+00 0. -1.
</event>
<event>
 7    1  0.5642630E-013  0.5052886E+02  0.7816164E-02  0.1300439E+00
        -11   -1    0    0    0    0  0.00000000000E+00  0.00000000000E+00  0.45593999997E+02  0.45594000000E+02  0.51100000000E-03 0.  1.
         11   -1    0    0    0    0 -0.00000000000E+00 -0.00000000000E+00 -0.45593999997E+02  0.45594000000E+02  0.51100000000E-03 0. -1.
    9900012    2    1    2    0    0 -0.11471852438E+02 -0.18359400587E+01  0.38963980889E+02  0.50528857351E+02  0.29999992404E+02 0.  0.
         12    1    1    2    0    0  0.11471852438E+02  0.18359400587E+01 -0.38963980889E+02  0.40659142649E+02  0.00000000000E+00 0. -1.
         11    1    3    3    0    0 -0.21886369130E+01 -0.24383503160E+01 -0.35411981112E+01  0.48244966706E+01  0.51100000000E-03 0. -1.
        -11    1    3    3    0    0  0.15793946981E+00  0.59474665600E+01  0.15063910713E+02  0.16196256036E+02  0.51100000000E-03 0.  1.
        -12    1    3    3    0    0 -0.94411549947E+01 -0.53450563027E+01  0.27441268287E+02  0.29508104645E+02  0.00000000000E+00 0.  1.
</event>
<event>
 7    1  0.5642630E-013  0.5052887E+02  0.7816164E-02  0.1300439E+00
        -11   -1    0    0    0    0  0.00000000000E+00  0.00000000000E+00  0.45593999997E+02  0.45594000000E+02  0.51100000000E-03 0.  1.
         11   -1    0    0    0    0 -0.00000000000E+00 -0.00000000000E+00 -0.45593999997E+02  0.45594000000E+02  0.51100000000E-03 0. -1.
    9900012    2    1    2    0    0 -0.34773154121E+02 -0.20369848894E+02  0.53909154803E+01  0.50528868662E+02  0.30000026784E+02 0.  0.
         12    1    1    2    0    0  0.34773154121E+02  0.20369848894E+02 -0.53909154803E+01  0.40659131338E+02  0.00000000000E+00 0. -1.
         11    1    3    3    0    0  0.37509960402E+00 -0.11842501882E+01 -0.19846779210E+01  0.23413873948E+01  0.51100000000E-03 0. -1.
        -11    1    3    3    0    0 -0.13101842471E+02 -0.18476933310E+02 -0.45634763904E+01  0.23105857649E+02  0.51100000000E-03 0.  1.
        -12    1    3    3    0    0 -0.22046411254E+02 -0.70866539655E+00  0.11939069792E+02  0.25081623618E+02  0.00000000000E+00 0.  1.
</event>
<event>
 7    1  0.5642630E-013  0.5052888E+02  0.7816164E-02  0.1300439E+00
        -11   -1    0    0    0    0  0.00000000000E+00  0.00000000000E+00  0.45593999997E+02  0.45594000000E+02  0.51100000000E-03 0. -1.
         11   -1    0    0    0    0 -0.00000000000E+00 -0.00000000000E+00 -0.45593999997E+02  0.45594000000E+02  0.51100000000E-03 0.  1.
    9900012    2    1    2    0    0 -0.32156560881E+02 -0.28104538212E+01 -0.24722886390E+02  0.50528878393E+02  0.30000056363E+02 0.  0.
         12    1    1    2    0    0  0.32156560881E+02  0.28104538212E+01  0.24722886390E+02  0.40659121607E+02  0.00000000000E+00 0. -1.
         11    1    3    3    0    0 -0.23134412602E+02  0.65342524619E+01 -0.97540849143E+01  0.25943008200E+02  0.51100000000E-03 0. -1.
        -11    1    3    3    0    0 -0.66732358208E+01  0.23136974065E+01 -0.28791739234E+01  0.76272481769E+01  0.51100000000E-03 0.  1.
        -12    1    3    3    0    0 -0.23489124582E+01 -0.11658403690E+02 -0.12089627552E+02  0.16958622016E+02  0.00000000000E+00 0.  1.
</event>
<event>
 7    1  0.5642630E-013  0.5052886E+02  0.7816164E-02  0.1300439E+00
        -11   -1    0    0    0    0  0.00000000000E+00  0.00000000000E+00  0.45593999997E+02  0.45594000000E+02  0.51100000000E-03 0. -1.
         11   -1    0    0    0    0 -0.00000000000E+00 -0.00000000000E+00 -0.45593999997E+02  0.45594000000E+02  0.51100000000E-03 0.  1.
    9900012    2    1    2    0    0 -0.20799184299E+02  0.24995544544E+02 -0.24408654328E+02  0.50528859322E+02  0.29999998396E+02 0.  0.
         12    1    1    2    0    0  0.20799184299E+02 -0.24995544544E+02  0.24408654328E+02  0.40659140678E+02  0.00000000000E+00 0. -1.
         11    1    3    3    0    0 -0.24709401889E+01  0.15379068753E+02 -0.10207290467E+02  0.18622837594E+02  0.51100000000E-03 0. -1.
        -11    1    3    3    0    0  0.12877828329E+01  0.74347445750E+01  0.76937622944E-01  0.75458419795E+01  0.51100000000E-03 0.  1.
         12    1    3    3    0    0 -0.19616026942E+02  0.21817312160E+01 -0.14278301484E+02  0.24360179748E+02  0.00000000000E+00 0. -1.
</event>
<event>
 7    1  0.5642630E-013  0.5052886E+02  0.7816164E-02  0.1300439E+00
        -11   -1    0    0    0    0  0.00000000000E+00  0.00000000000E+00  0.45593999997E+02  0.45594000000E+02  0.51100000000E-03 0.  1.
         11   -1    0    0    0    0 -0.00000000000E+00 -0.00000000000E+00 -0.45593999997E+02  0.45594000000E+02  0.51100000000E-03 0. -1.
    9900012    2    1    2    0    0  0.73745273966E+01  0.26886725734E+02  0.29595375084E+02  0.50528857100E+02  0.29999991641E+02 0.  0.
         12    1    1    2    0    0 -0.73745273966E+01 -0.26886725734E+02 -0.29595375084E+02  0.40659142900E+02  0.00000000000E+00 0. -1.
         11    1    3    3    0    0  0.50529038339E+01  0.62889547720E+01  0.97162268121E+00  0.81256901353E+01  0.51100000000E-03 0. -1.
        -11    1    3    3    0    0  0.11101561645E+02  0.37523345971E+01  0.14959845229E+02  0.19003201189E+02  0.51100000000E-03 0.  1.
         12    1    3    3    0    0 -0.87799380822E+01  0.16845436365E+02  0.13663907173E+02  0.23399965776E+02  0.00000000000E+00 0. -1.
</event>
<event>
 7    1  0.5642630E-013  0.5052886E+02  0.7816164E-02  0.1300439E+00
        -11   -1    0    0    0    0  0.00000000000E+00  0.00000000000E+00  0.45593999997E+02  0.45594000000E+02  0.51100000000E-03 0.  1.
         11   -1    0    0    0    0 -0.00000000000E+00 -0.00000000000E+00 -0.45593999997E+02  0.45594000000E+02  0.51100000000E-03 0. -1.
    9900012    2    1    2    0    0  0.22695559759E+01  0.82307302865E+01  0.39752605277E+02  0.50528862876E+02  0.30000009197E+02 0.  0.
         12    1    1    2    0    0 -0.22695559759E+01 -0.82307302865E+01 -0.39752605277E+02  0.40659137124E+02  0.00000000000E+00 0. -1.
         11    1    3    3    0    0  0.48094179237E+01  0.12198925847E+02  0.13210630251E+02  0.18613571514E+02  0.51100000000E-03 0. -1.
        -11    1    3    3    0    0 -0.19948747176E+00  0.27822561436E+01  0.24253077957E+02  0.24412958345E+02  0.51100000000E-03 0.  1.
        -12    1    3    3    0    0 -0.23403744760E+01 -0.67504517046E+01  0.22888970686E+01  0.75023330168E+01  0.00000000000E+00 0.  1.
</event>
<event>
 7    1  0.5642630E-013  0.5052885E+02  0.7816164E-02  0.1300439E+00
        -11   -1    0    0    0    0  0.00000000000E+00  0.00000000000E+00  0.45593999997E+02  0.45594000000E+02  0.51100000000E-03 0. -1.
         11   -1    0    0    0    0 -0.00000000000E+00 -0.00000000000E+00 -0.45593999997E+02  0.45594000000E+02  0.51100000000E-03 0.  1.
    9900012    2    1    2    0    0 -0.33896032276E+01  0.33213874290E+02 -0.23205941228E+02  0.50528848955E+02  0.29999966884E+02 0.  0.
         12    1    1    2    0    0  0.33896032276E+01 -0.33213874290E+02  0.23205941228E+02  0.40659151045E+02  0.00000000000E+00 0. -1.
         11    1    3    3    0    0 -0.86371391942E+01  0.18068298207E+02 -0.22785179432E+02  0.30335259609E+02  0.51100000000E-03 0. -1.
        -11    1    3    3    0    0 -0.28462546492E+01  0.88303174504E+01 -0.27300006743E+01  0.96710173066E+01  0.51100000000E-03 0.  1.
         12    1    3    3    0    0  0.80937906158E+01  0.63152586324E+01  0.23092388780E+01  0.10522572039E+02  0.00000000000E+00 0. -1.
</event>
<event>
 7    1  0.5642630E-013  0.5052886E+02  0.7816164E-02  0.1300439E+00
        -11   -1    0    0    0    0  0.00000000000E+00  0.00000000000E+00  0.45593999997E+02  0.45594000000E+02  0.51100000000E-03 0.  1.
         11   -1    0    0    0    0 -0.00000000000E+00 -0.00000000000E+00 -0.45593999997E+02  0.45594000000E+02  0.51100000000E-03 0. -1.
    9900012    2    1    2    0    0 -0.29688610186E+02 -0.25309539515E+02  0.11453339358E+02  0.50528863909E+02  0.30000012336E+02 0.  0.
         12    1    1    2    0    0  0.29688610186E+02  0.25309539515E+02 -0.11453339358E+02  0.40659136091E+02  0.00000000000E+00 0. -1.
         11    1    3    3    0    0 -0.44619619862E+01 -0.30002713971E+01  0.63640378711E+01  0.83313691257E+01  0.51100000000E-03 0. -1.
        -11    1    3    3    0    0 -0.12958678283E+02 -0.25945433513E+02  0.22356245995E+01  0.29087641372E+02  0.51100000000E-03 0.  1.
         12    1    3    3    0    0 -0.12267969917E+02  0.36361653947E+01  0.28536768878E+01  0.13109853410E+02  0.00000000000E+00 0. -1.
</event>
<event>
 7    1  0.5642630E-013  0.5052887E+02  0.7816164E-02  0.1300439E+00
        -11   -1    0    0    0    0  0.00000000000E+00  0.00000000000E+00  0.45593999997E+02  0.45594000000E+02  0.51100000000E-03 0. -1.
         11   -1    0    0    0    0 -0.00000000000E+00 -0.00000000000E+00 -0.45593999997E+02  0.45594000000E+02  0.51100000000E-03 0.  1.
    9900012    2    1    2    0    0 -0.14019879874E+01 -0.31913766060E+01 -0.40509439453E+02  0.50528866466E+02  0.30000020110E+02 0.  0.
         12    1    1    2    0    0  0.14019879874E+01  0.31913766060E+01  0.40509439453E+02  0.40659133534E+02  0.00000000000E+00 0. -1.
         11    1    3    3    0    0  0.10383126886E+01 -0.31004751858E+00  0.79922025341E+00  0.13464679639E+01  0.51100000000E-03 0. -1.
        -11    1    3    3    0    0 -0.55763391151E+01  0.70067190702E+01 -0.29231333730E+01  0.94198927293E+01  0.51100000000E-03 0.  1.
        -12    1    3    3    0    0  0.31360384390E+01 -0.98880481576E+01 -0.38385526333E+02  0.39762505773E+02  0.00000000000E+00 0.  1.
</event>
<event>
 7    1  0.5642630E-013  0.5052885E+02  0.7816164E-02  0.1300439E+00
        -11   -1    0    0    0    0  0.00000000000E+00  0.00000000000E+00  0.45593999997E+02  0.45594000000E+02  0.51100000000E-03 0.  1.
         11   -1    0    0    0    0 -0.00000000000E+00 -0.00000000000E+00 -0.45593999997E+02  0.45594000000E+02  0.51100000000E-03 0. -1.
    9900012    2    1    2    0    0 -0.38546631545E+02 -0.12436991390E+02  0.35559263676E+01  0.50528853789E+02  0.29999981576E+02 0.  0.
         12    1    1    2    0    0  0.38546631545E+02  0.12436991390E+02 -0.35559263676E+01  0.40659146211E+02  0.00000000000E+00 0. -1.
         11    1    3    3    0    0 -0.37274165446E+01 -0.87382290396E+01 -0.40187596323E+01  0.10315071987E+02  0.51100000000E-03 0. -1.
        -11    1    3    3    0    0 -0.13240831118E+02 -0.70197447074E+01  0.10339185864E+02  0.18207009338E+02  0.51100000000E-03 0.  1.
        -12    1    3    3    0    0 -0.21578383882E+02  0.33209823569E+01 -0.27644998636E+01  0.22006772464E+02  0.00000000000E+00 0.  1.
</event>
<event>
 7    1  0.5642630E-013  0.5052886E+02  0.7816164E-02  0.1300439E+00
        -11   -1    0    0    0    0  0.00000000000E+00  0.00000000000E+00  0.45593999997E+02  0.45594000000E+02  0.51100000000E-03 0. -1.
         11   -1    0    0    0    0 -0.00000000000E+00 -0.00000000000E+00 -0.45593999997E+02  0.45594000000E+02  0.51100000000E-03 0.  1.
    9900012    2    1    2    0    0  0.27696207252E+02 -0.29263984679E+02  0.54502169250E+01  0.50528861298E+02  0.30000004401E+02 0.  0.
         12    1    1    2    0    0 -0.27696207252E+02  0.29263984679E+02 -0.54502169250E+01  0.40659138702E+02  0.00000000000E+00 0. -1.
         11    1    3    3    0    0  0.55739388505E+01 -0.67570853304E+01  0.30675452208E+01  0.92809929649E+01  0.51100000000E-03 0.  1.
        -11    1    3    3    0    0 -0.27857064685E+01 -0.11571521841E+02 -0.52292349694E+01  0.13000199109E+02  0.51100000000E-03 0. -1.
         12    1    3    3    0    0  0.24907974870E+02 -0.10935377508E+02  0.76119066736E+01  0.28247669224E+02  0.00000000000E+00 0. -1.
</event>
<event>
 7    1  0.5642630E-013  0.5052885E+02  0.7816164E-02  0.1300439E+00
        -11   -1    0    0    0    0  0.00000000000E+00  0.00000000000E+00  0.45593999997E+02  0.45594000000E+02  0.51100000000E-03 0. -1.
         11   -1    0    0    0    0 -0.00000000000E+00 -0.00000000000E+00 -0.45593999997E+02  0.45594000000E+02  0.51100000000E-03 0.  1.
    9900012    2    1    2    0    0  0.14538593433E+02  0.12760903237E+01 -0.37949534125E+02  0.50528852864E+02  0.29999978765E+02 0.  0.
         12    1    1    2    0    0 -0.14538593433E+02 -0.12760903237E+01  0.37949534125E+02  0.40659147136E+02  0.00000000000E+00 0. -1.
         11    1    3    3    0    0  0.10119885079E+02 -0.83144239111E+01 -0.15789797911E+02  0.20514858940E+02  0.51100000000E-03 0. -1.
        -11    1    3    3    0    0  0.59656619681E+01  0.59710906789E-01 -0.18906006649E+02  0.19824978582E+02  0.51100000000E-03 0.  1.
        -12    1    3    3    0    0 -0.15469536141E+01  0.95308033280E+01 -0.32537295653E+01  0.10189015342E+02  0.00000000000E+00 0.  1.
</event>
<event>
 7    1  0.5642630E-013  0.5052886E+02  0.7816164E-02  0.1300439E+00
        -11   -1    0    0    0    0  0.00000000000E+00  0.00000000000E+00  0.45593999997E+02  0.45594000000E+02  0.51100000000E-03 0.  1.
         11   -1    0    0    0    0 -0.00000000000E+00 -0.00000000000E+00 -0.45593999997E+02  0.45594000000E+02  0.51100000000E-03 0. -1.
    9900012    2    1    2    0    0 -0.35304964418E+02  0.63022312699E+01  0.19157435894E+02  0.50528856113E+02  0.29999988642E+02 0.  0.
         12    1    1    2    0    0  0.35304964418E+02 -0.63022312699E+01 -0.19157435894E+02  0.40659143887E+02  0.00000000000E+00 0. -1.
         11    1    3    3    0    0 -0.73492143161E+00  0.59044050056E+01  0.93726273037E+01  0.11101722876E+02  0.51100000000E-03 0. -1.
        -11    1    3    3    0    0 -0.81738110879E+01 -0.40382966908E+01  0.87564526117E+01  0.12640984553E+02  0.51100000000E-03 0.  1.
        -12    1    3    3    0    0 -0.26396231899E+02  0.44361229551E+01  0.10283559785E+01  0.26786148685E+02  0.00000000000E+00 0.  1.
</event>
<event>
 7    1  0.5642630E-013  0.5052886E+02  0.7816164E-02  0.1300439E+00
        -11   -1    0    0    0    0  0.00000000000E+00  0.00000000000E+00  0.45593999997E+02  0.45594000000E+02  0.51100000000E-03 0.  1.
         11   -1    0    0    0    0 -0.00000000000E+00 -0.00000000000E+00 -0.45593999997E+02  0.45594000000E+02  0.51100000000E-03 0. -1.
    9900012    2    1    2    0    0  0.22112746279E+02 -0.31401157780E+02  0.13347635650E+02  0.50528860371E+02  0.30000001583E+02 0.  0.
         12    1    1    2    0    0 -0.22112746279E+02  0.31401157780E+02 -0.13347635650E+02  0.40659139629E+02  0.00000000000E+00 0. -1.
         11    1    3    3    0    0  0.95507164541E+01 -0.13965501697E+02  0.39639398746E+01  0.17377118347E+02  0.51100000000E-03 0.  1.
        -11    1    3    3    0    0 -0.26401900570E+01 -0.57434528703E+01 -0.58856784829E+01  0.86370750764E+01  0.51100000000E-03 0. -1.
         12    1    3    3    0    0  0.15202219882E+02 -0.11692203213E+02  0.15269374258E+02  0.24514666947E+02  0.00000000000E+00 0. -1.
</event>
<event>
 7    1  0.5642630E-013  0.5052886E+02  0.7816164E-02  0.1300439E+00
        -11   -1    0    0    0    0  0.00000000000E+00  0.00000000000E+00  0.45593999997E+02  0.45594000000E+02  0.51100000000E-03 0.  1.
         11   -1    0    0    0    0 -0.00000000000E+00 -0.00000000000E+00 -0.45593999997E+02  0.45594000000E+02  0.51100000000E-03 0. -1.
    9900012    2    1    2    0    0  0.31439635723E+02  0.25505876462E+02  0.37636391440E+01  0.50528863166E+02  0.30000010079E+02 0.  0.
         12    1    1    2    0    0 -0.31439635723E+02 -0.25505876462E+02 -0.37636391440E+01  0.40659136834E+02  0.00000000000E+00 0. -1.
         11    1    3    3    0    0 -0.40235896034E+01  0.87346156016E+00 -0.15797737811E+01  0.44099766274E+01  0.51100000000E-03 0. -1.
        -11    1    3    3    0    0  0.32561941373E+01  0.54714806107E+01  0.58400747061E+01  0.86398132599E+01  0.51100000000E-03 0.  1.
         12    1    3    3    0    0  0.32207031189E+02  0.19160934291E+02 -0.49666178103E+00  0.37479073279E+02  0.00000000000E+00 0. -1.
</event>
<event>
 7    1  0.5642630E-013  0.5052889E+02  0.7816164E-02  0.1300439E+00
        -11   -1    0    0    0    0  0.00000000000E+00  0.00000000000E+00  0.45593999997E+02  0.45594000000E+02  0.51100000000E-03 0.  1.
         11   -1    0    0    0    0 -0.00000000000E+00 -0.00000000000E+00 -0.45593999997E+02  0.45594000000E+02  0.51100000000E-03 0. -1.
    9900012    2    1    2    0    0 -0.31268103800E+02 -0.12414708443E+01  0.25960117754E+02  0.50528889349E+02  0.30000089666E+02 0.  0.
         12    1    1    2    0    0  0.31268103800E+02  0.12414708443E+01 -0.25960117754E+02  0.40659110651E+02  0.00000000000E+00 0. -1.
         11    1    3    3    0    0 -0.11301201754E+01  0.60272691627E+01  0.10441895694E+02  0.12109431495E+02  0.51100000000E-03 0. -1.
        -11    1    3    3    0    0  0.62442115240E+00  0.26028787747E+01  0.25769452947E+00  0.26891051343E+01  0.51100000000E-03 0.  1.
         12    1    3    3    0    0 -0.30762404777E+02 -0.98716187818E+01  0.15260527530E+02  0.35730352720E+02  0.00000000000E+00 0. -1.
</event>
<event>
 7    1  0.5642630E-013  0.5052886E+02  0.7816164E-02  0.1300439E+00
        -11   -1    0    0    0    0  0.00000000000E+00  0.00000000000E+00  0.45593999997E+02  0.45594000000E+02  0.51100000000E-03 0. -1.
         11   -1    0    0    0    0 -0.00000000000E+00 -0.00000000000E+00 -0.45593999997E+02  0.45594000000E+02  0.51100000000E-03 0.  1.
    9900012    2    1    2    0    0 -0.34335623006E+02  0.21401822792E+02 -0.40239916443E+01  0.50528861608E+02  0.30000005344E+02 0.  0.
         12    1    1    2    0    0  0.34335623006E+02 -0.21401822792E+02  0.40239916443E+01  0.40659138392E+02  0.00000000000E+00 0. -1.
         11    1    3    3    0    0 -0.22198326255E+02  0.53438538501E+01 -0.56296014106E+01  0.23516268301E+02  0.51100000000E-03 0.  1.
        -11    1    3    3    0    0 -0.26855035545E+01  0.12246964805E+02 -0.63776975608E+01  0.14066808548E+02  0.51100000000E-03 0. -1.
         12    1    3    3    0    0 -0.94517931962E+01  0.38110041371E+01  0.79833073271E+01  0.12945784759E+02  0.00000000000E+00 0. -1.
</event>
<event>
 7    1  0.5642630E-013  0.5052885E+02  0.7816164E-02  0.1300439E+00
        -11   -1    0    0    0    0  0.00000000000E+00  0.00000000000E+00  0.45593999997E+02  0.45594000000E+02  0.51100000000E-03 0.  1.
         11   -1    0    0    0    0 -0.00000000000E+00 -0.00000000000E+00 -0.45593999997E+02  0.45594000000E+02  0.51100000000E-03 0. -1.
    9900012    2    1    2    0    0  0.12545987433E+02  0.38268508167E+02  0.55933689421E+01  0.50528852270E+02  0.29999976959E+02 0.  0.
         12    1    1    2    0    0 -0.12545987433E+02 -0.38268508167E+02 -0.55933689421E+01  0.40659147730E+02  0.00000000000E+00 0. -1.
         11    1    3    3    0    0  0.56091532896E+01  0.16935512758E+01 -0.20866315369E+01  0.62197064225E+01  0.51100000000E-03 0. -1.
        -11    1    3    3    0    0 -0.83719731175E+01  0.11262721588E+02  0.31509711994E+01  0.14382887443E+02  0.51100000000E-03 0.  1.
         12    1    3    3    0    0  0.15308807261E+02  0.25312235304E+02  0.45290292795E+01  0.29926258404E+02  0.00000000000E+00 0. -1.
</event>
<event>
 7    1  0.5642630E-013  0.5052889E+02  0.7816164E-02  0.1300439E+00
        -11   -1    0    0    0    0  0.00000000000E+00  0.00000000000E+00  0.45593999997E+02  0.45594000000E+02  0.51100000000E-03 0.  1.
         11   -1    0    0    0    0 -0.00000000000E+00 -0.00000000000E+00 -0.45593999997E+02  0.45594000000E+02  0.51100000000E-03 0. -1.
    9900012    2    1    2    0    0  0.57954601390E+01  0.29979342375E+02  0.26848002577E+02  0.50528885772E+02  0.30000078793E+02 0.  0.
         12    1    1    2    0    0 -0.57954601390E+01 -0.29979342375E+02 -0.26848002577E+02  0.40659114228E+02  0.00000000000E+00 0. -1.
         11    1    3    3    0    0 -0.60969353712E+01  0.10780140412E+02  0.14051912716E+02  0.18730731418E+02  0.51100000000E-03 0. -1.
        -11    1    3    3    0    0 -0.13292215397E+01  0.14324777267E+02  0.97562469472E+01  0.17382474749E+02  0.51100000000E-03 0.  1.
         12    1    3    3    0    0  0.13221617050E+02  0.48744246960E+01  0.30398429136E+01  0.14415679605E+02  0.00000000000E+00 0. -1.
</event>
<event>
 7    1  0.5642630E-013  0.5052888E+02  0.7816164E-02  0.1300439E+00
        -11   -1    0    0    0    0  0.00000000000E+00  0.00000000000E+00  0.45593999997E+02  0.45594000000E+02  0.51100000000E-03 0.  1.
         11   -1    0    0    0    0 -0.00000000000E+00 -0.00000000000E+00 -0.45593999997E+02  0.45594000000E+02  0.51100000000E-03 0. -1.
    9900012    2    1    2    0    0  0.24571292046E+02 -0.79794738240E+01  0.31396560288E+02  0.50528875646E+02  0.30000048013E+02 0.  0.
         12    1    1    2    0    0 -0.24571292046E+02  0.79794738240E+01 -0.31396560288E+02  0.40659124354E+02  0.00000000000E+00 0. -1.
         11    1    3    3    0    0  0.14197627478E+02 -0.55883790035E+01  0.25120600122E+02  0.29391276881E+02  0.51100000000E-03 0. -1.
        -11    1    3    3    0    0  0.79492430665E+01 -0.57932069489E+01  0.11050059331E+02  0.14793766375E+02  0.51100000000E-03 0.  1.
         12    1    3    3    0    0  0.24244215014E+01  0.34021121284E+01 -0.47740991655E+01  0.63438323900E+01  0.00000000000E+00 0. -1.
</event>
<event>
 7    1  0.5642630E-013  0.5052885E+02  0.7816164E-02  0.1300439E+00
        -11   -1    0    0    0    0  0.00000000000E+00  0.00000000000E+00  0.45593999997E+02  0.45594000000E+02  0.51100000000E-03 0.  1.
         11   -1    0    0    0    0 -0.00000000000E+00 -0.00000000000E+00 -0.45593999997E+02  0.45594000000E+02  0.51100000000E-03 0. -1.
    9900012    2    1    2    0    0 -0.36515037214E+02 -0.17363777829E+02 -0.42799159832E+01  0.50528850918E+02  0.29999972851E+02 0.  0.
         12    1    1    2    0    0  0.36515037214E+02  0.17363777829E+02  0.42799159832E+01  0.40659149082E+02  0.00000000000E+00 0. -1.
         11    1    3    3    0    0 -0.17208804275E+02  0.20192849390E+01 -0.71315731385E+01  0.18737123363E+02  0.51100000000E-03 0. -1.
        -11    1    3    3    0    0 -0.22167788474E+02 -0.17365472392E+02  0.26622710128E+01  0.28285299441E+02  0.51100000000E-03 0.  1.
         12    1    3    3    0    0  0.28615555356E+01 -0.20175903762E+01  0.18938614243E+00  0.35064281142E+01  0.00000000000E+00 0. -1.
</event>
<event>
 7    1  0.5642630E-013  0.5052886E+02  0.7816164E-02  0.1300439E+00
        -11   -1    0    0    0    0  0.00000000000E+00  0.00000000000E+00  0.45593999997E+02  0.45594000000E+02  0.51100000000E-03 0. -1.
         11   -1    0    0    0    0 -0.00000000000E+00 -0.00000000000E+00 -0.45593999997E+02  0.45594000000E+02  0.51100000000E-03 0.  1.
    9900012    2    1    2    0    0 -0.26850903952E+02 -0.24339470440E+02  0.18433253764E+02  0.50528859470E+02  0.29999998844E+02 0.  0.
         12    1    1    2    0    0  0.26850903952E+02  0.24339470440E+02 -0.18433253764E+02  0.40659140530E+02  0.00000000000E+00 0. -1.
         11    1    3    3    0    0 -0.68140665515E+01 -0.41255205312E+00  0.12896019065E+02  0.14591401925E+02  0.51100000000E-03 0. -1.
        -11    1    3    3    0    0 -0.16056591391E+01 -0.14003883502E+02  0.51322971860E+01  0.15000912275E+02  0.51100000000E-03 0.  1.
         12    1    3    3    0    0 -0.18431178261E+02 -0.99230348844E+01  0.40493751357E+00  0.20936545269E+02  0.00000000000E+00 0. -1.
</event>
<event>
 7    1  0.5642630E-013  0.5052886E+02  0.7816164E-02  0.1300439E+00
        -11   -1    0    0    0    0  0.00000000000E+00  0.00000000000E+00  0.45593999997E+02  0.45594000000E+02  0.51100000000E-03 0. -1.
         11   -1    0    0    0    0 -0.00000000000E+00 -0.00000000000E+00 -0.45593999997E+02  0.45594000000E+02  0.51100000000E-03 0.  1.
    9900012    2    1    2    0    0  0.51038511881E+00 -0.39260584858E+02 -0.10559906773E+02  0.50528860223E+02  0.30000001133E+02 0.  0.
         12    1    1    2    0    0 -0.51038511881E+00  0.39260584858E+02  0.10559906773E+02  0.40659139777E+02  0.00000000000E+00 0. -1.
         11    1    3    3    0    0 -0.30473337417E+00 -0.26875987164E+02 -0.44095650025E+01  0.27237030165E+02  0.51100000000E-03 0. -1.
        -11    1    3    3    0    0  0.57820906315E+00 -0.16251191199E+02 -0.89034428063E+01  0.18539332112E+02  0.51100000000E-03 0.  1.
         12    1    3    3    0    0  0.23690942984E+00  0.38665935044E+01  0.27531010354E+01  0.47524979450E+01  0.00000000000E+00 0. -1.
</event>
<event>
 7    1  0.5642630E-013  0.5052885E+02  0.7816164E-02  0.1300439E+00
        -11   -1    0    0    0    0  0.00000000000E+00  0.00000000000E+00  0.45593999997E+02  0.45594000000E+02  0.51100000000E-03 0.  1.
         11   -1    0    0    0    0 -0.00000000000E+00 -0.00000000000E+00 -0.45593999997E+02  0.45594000000E+02  0.51100000000E-03 0. -1.
    9900012    2    1    2    0    0  0.43929555850E+01 -0.40402336313E+02 -0.12328810567E+01  0.50528845631E+02  0.29999956780E+02 0.  0.
         12    1    1    2    0    0 -0.43929555850E+01  0.40402336313E+02  0.12328810567E+01  0.40659154369E+02  0.00000000000E+00 0. -1.
         11    1    3    3    0    0  0.78179027328E+00 -0.68160132407E+01 -0.36619194644E+01  0.77768172765E+01  0.51100000000E-03 0.  1.
        -11    1    3    3    0    0 -0.39322787865E+01 -0.34739780790E+01 -0.83749306946E+01  0.98828540690E+01  0.51100000000E-03 0. -1.
        -12    1    3    3    0    0  0.75434440983E+01 -0.30112344993E+02  0.10803969102E+02  0.32869174285E+02  0.00000000000E+00 0.  1.
</event>
<event>
 7    1  0.5642630E-013  0.5052885E+02  0.7816164E-02  0.1300439E+00
        -11   -1    0    0    0    0  0.00000000000E+00  0.00000000000E+00  0.45593999997E+02  0.45594000000E+02  0.51100000000E-03 0. -1.
         11   -1    0    0    0    0 -0.00000000000E+00 -0.00000000000E+00 -0.45593999997E+02  0.45594000000E+02  0.51100000000E-03 0.  1.
    9900012    2    1    2    0    0  0.58926908314E+01  0.35482063455E+02 -0.18959576176E+02  0.50528853907E+02  0.29999981936E+02 0.  0.
         12    1    1    2    0    0 -0.58926908314E+01 -0.35482063455E+02  0.18959576176E+02  0.40659146093E+02  0.00000000000E+00 0. -1.
         11    1    3    3    0    0  0.36491085540E+01  0.12458954681E+02  0.22187318043E+01  0.13170585259E+02  0.51100000000E-03 0. -1.
        -11    1    3    3    0    0 -0.31393482109E+01  0.24021255289E+02 -0.12934815547E+02  0.27462441013E+02  0.51100000000E-03 0.  1.
         12    1    3    3    0    0  0.53829304883E+01 -0.99814651540E+00 -0.82434924325E+01  0.98958276356E+01  0.00000000000E+00 0. -1.
</event>
<event>
 7    1  0.5642630E-013  0.5052886E+02  0.7816164E-02  0.1300439E+00
        -11   -1    0    0    0    0  0.00000000000E+00  0.00000000000E+00  0.45593999997E+02  0.45594000000E+02  0.51100000000E-03 0. -1.
         11   -1    0    0    0    0 -0.00000000000E+00 -0.00000000000E+00 -0.45593999997E+02  0.45594000000E+02  0.51100000000E-03 0.  1.
    9900012    2    1    2    0    0  0.28504580751E+02  0.94671163020E+01 -0.27404896723E+02  0.50528858602E+02  0.29999996206E+02 0.  0.
         12    1    1    2    0    0 -0.28504580751E+02 -0.94671163020E+01  0.27404896723E+02  0.40659141398E+02  0.00000000000E+00 0. -1.
         11    1    3    3    0    0 -0.80746034526E+00  0.32650315562E+01 -0.24625467517E+01  0.41685201256E+01  0.51100000000E-03 0.  1.
        -11    1    3    3    0    0  0.31175967180E+01 -0.28328098358E+01  0.43386278706E+01  0.60471408883E+01  0.51100000000E-03 0. -1.
         12    1    3    3    0    0  0.26194444378E+02  0.90348945816E+01 -0.29280977842E+02  0.40313197588E+02  0.00000000000E+00 0. -1.
</event>
<event>
 7    1  0.5642630E-013  0.5052883E+02  0.7816164E-02  0.1300439E+00
        -11   -1    0    0    0    0  0.00000000000E+00  0.00000000000E+00  0.45593999997E+02  0.45594000000E+02  0.51100000000E-03 0. -1.
         11   -1    0    0    0    0 -0.00000000000E+00 -0.00000000000E+00 -0.45593999997E+02  0.45594000000E+02  0.51100000000E-03 0.  1.
    9900012    2    1    2    0    0 -0.10040848453E+02  0.36604568372E+02 -0.14575832292E+02  0.50528831902E+02  0.29999915051E+02 0.  0.
         12    1    1    2    0    0  0.10040848453E+02 -0.36604568372E+02  0.14575832292E+02  0.40659168098E+02  0.00000000000E+00 0. -1.
         11    1    3    3    0    0 -0.10736202374E+02  0.21213485084E+02 -0.15904589450E+02  0.28604789051E+02  0.51100000000E-03 0. -1.
        -11    1    3    3    0    0 -0.12133298656E+01  0.97226442084E+01 -0.67310682146E+01  0.11887357122E+02  0.51100000000E-03 0.  1.
         12    1    3    3    0    0  0.19086837872E+01  0.56684390805E+01  0.80598253725E+01  0.10036685730E+02  0.00000000000E+00 0. -1.
</event>
<event>
 7    1  0.5642630E-013  0.5052888E+02  0.7816164E-02  0.1300439E+00
        -11   -1    0    0    0    0  0.00000000000E+00  0.00000000000E+00  0.45593999997E+02  0.45594000000E+02  0.51100000000E-03 0. -1.
         11   -1    0    0    0    0 -0.00000000000E+00 -0.00000000000E+00 -0.45593999997E+02  0.45594000000E+02  0.51100000000E-03 0.  1.
    9900012    2    1    2    0    0  0.43002283089E+01  0.33231978050E+01 -0.40294268936E+02  0.50528883971E+02  0.30000073317E+02 0.  0.
         12    1    1    2    0    0 -0.43002283089E+01 -0.33231978050E+01  0.40294268936E+02  0.40659116029E+02  0.00000000000E+00 0. -1.
         11    1    3    3    0    0 -0.22717691046E+01 -0.69198985828E+01 -0.14519418573E+02  0.16243751020E+02  0.51100000000E-03 0. -1.
        -11    1    3    3    0    0 -0.24886910254E+01  0.17227768672E+01 -0.20588155265E+02  0.20809461325E+02  0.51100000000E-03 0.  1.
         12    1    3    3    0    0  0.90606884389E+01  0.85203195205E+01 -0.51866950991E+01  0.13475671626E+02  0.00000000000E+00 0. -1.
</event>
<event>
 7    1  0.5642630E-013  0.5052886E+02  0.7816164E-02  0.1300439E+00
        -11   -1    0    0    0    0  0.00000000000E+00  0.00000000000E+00  0.45593999997E+02  0.45594000000E+02  0.51100000000E-03 0.  1.
         11   -1    0    0    0    0 -0.00000000000E+00 -0.00000000000E+00 -0.45593999997E+02  0.45594000000E+02  0.51100000000E-03 0. -1.
    9900012    2    1    2    0    0 -0.17087601319E+02  0.27643080636E+02  0.24434400274E+02  0.50528856592E+02  0.29999990097E+02 0.  0.
         12    1    1    2    0    0  0.17087601319E+02 -0.27643080636E+02 -0.24434400274E+02  0.40659143408E+02  0.00000000000E+00 0. -1.
         11    1    3    3    0    0 -0.12724995077E+02  0.43973018450E+01  0.88042732822E+01  0.16086546911E+02  0.51100000000E-03 0. -1.
        -11    1    3    3    0    0  0.41541803396E+01  0.18479925631E+01 -0.24481660122E+01  0.51638946438E+01  0.51100000000E-03 0.  1.
        -12    1    3    3    0    0 -0.85167865818E+01  0.21397786228E+02  0.18078293004E+02  0.29278415037E+02  0.00000000000E+00 0.  1.
</event>
<event>
 7    1  0.5642630E-013  0.5052886E+02  0.7816164E-02  0.1300439E+00
        -11   -1    0    0    0    0  0.00000000000E+00  0.00000000000E+00  0.45593999997E+02  0.45594000000E+02  0.51100000000E-03 0.  1.
         11   -1    0    0    0    0 -0.00000000000E+00 -0.00000000000E+00 -0.45593999997E+02  0.45594000000E+02  0.51100000000E-03 0. -1.
    9900012    2    1    2    0    0 -0.14811055427E+02 -0.73039624587E+01  0.37154410216E+02  0.50528862910E+02  0.30000009301E+02 0.  0.
         12    1    1    2    0    0  0.14811055427E+02  0.73039624587E+01 -0.37154410216E+02  0.40659137090E+02  0.00000000000E+00 0. -1.
         11    1    3    3    0    0 -0.90083684266E+01  0.35738902776E+01  0.32812113353E+02  0.34213420998E+02  0.51100000000E-03 0. -1.
        -11    1    3    3    0    0 -0.58112364101E+01 -0.56810447308E+01  0.67721742082E+01  0.10578614352E+02  0.51100000000E-03 0.  1.
        -12    1    3    3    0    0  0.85494099934E-02 -0.51968080056E+01 -0.24298773452E+01  0.57368275599E+01  0.00000000000E+00 0.  1.
</event>
<event>
 7    1  0.5642630E-013  0.5052884E+02  0.7816164E-02  0.1300439E+00
        -11   -1    0    0    0    0  0.00000000000E+00  0.00000000000E+00  0.45593999997E+02  0.45594000000E+02  0.51100000000E-03 0. -1.
         11   -1    0    0    0    0 -0.00000000000E+00 -0.00000000000E+00 -0.45593999997E+02  0.45594000000E+02  0.51100000000E-03 0.  1.
    9900012    2    1    2    0    0 -0.11429261033E+02  0.37363451275E+02 -0.11247756281E+02  0.50528837191E+02  0.29999931127E+02 0.  0.
         12    1    1    2    0    0  0.11429261033E+02 -0.37363451275E+02  0.11247756281E+02  0.40659162809E+02  0.00000000000E+00 0. -1.
         11    1    3    3    0    0 -0.34709616107E+00  0.14010167587E+02 -0.62614017066E+01  0.15349606612E+02  0.51100000000E-03 0. -1.
        -11    1    3    3    0    0  0.68422310025E+01  0.10740919897E+02 -0.15524942598E+00  0.12736074277E+02  0.51100000000E-03 0.  1.
        -12    1    3    3    0    0 -0.17924395875E+02  0.12612363790E+02 -0.48311051487E+01  0.22443156302E+02  0.00000000000E+00 0.  1.
</event>
<event>
 7    1  0.5642630E-013  0.5052886E+02  0.7816164E-02  0.1300439E+00
        -11   -1    0    0    0    0  0.00000000000E+00  0.00000000000E+00  0.45593999997E+02  0.45594000000E+02  0.51100000000E-03 0. -1.
         11   -1    0    0    0    0 -0.00000000000E+00 -0.00000000000E+00 -0.45593999997E+02  0.45594000000E+02  0.51100000000E-03 0.  1.
    9900012    2    1    2    0    0 -0.30375919286E+02 -0.23086606428E+02 -0.14052681264E+02  0.50528859336E+02  0.29999998438E+02 0.  0.
         12    1    1    2    0    0  0.30375919286E+02  0.23086606428E+02  0.14052681264E+02  0.40659140664E+02  0.00000000000E+00 0. -1.
         11    1    3    3    0    0  0.40763070714E+01 -0.68982976555E+01 -0.57149748911E+01  0.98419372154E+01  0.51100000000E-03 0. -1.
        -11    1    3    3    0    0 -0.17334651191E+02 -0.14386429648E+02 -0.60363578502E+01  0.23321601709E+02  0.51100000000E-03 0.  1.
        -12    1    3    3    0    0 -0.17117575167E+02 -0.18018791244E+01 -0.23013485227E+01  0.17365320412E+02  0.00000000000E+00 0.  1.
</event>
<event>
 7    1  0.5642630E-013  0.5052887E+02  0.7816164E-02  0.1300439E+00
        -11   -1    0    0    0    0  0.00000000000E+00  0.00000000000E+00  0.45593999997E+02  0.45594000000E+02  0.51100000000E-03 0.  1.
         11   -1    0    0    0    0 -0.00000000000E+00 -0.00000000000E+00 -0.45593999997E+02  0.45594000000E+02  0.51100000000E-03 0. -1.
    9900012    2    1    2    0    0  0.10405145728E+02  0.17216639762E+02  0.35333903159E+02  0.50528874889E+02  0.30000045712E+02 0.  0.
         12    1    1    2    0    0 -0.10405145728E+02 -0.17216639762E+02 -0.35333903159E+02  0.40659125111E+02  0.00000000000E+00 0. -1.
         11    1    3    3    0    0  0.74023314580E+01  0.15189580427E+02  0.16418980438E+02  0.23560576891E+02  0.51100000000E-03 0. -1.
        -11    1    3    3    0    0  0.82048506770E+01  0.55427353363E+01  0.38080267623E+01  0.10608607718E+02  0.51100000000E-03 0.  1.
         12    1    3    3    0    0 -0.52020364068E+01 -0.35156760008E+01  0.15106895959E+02  0.16359690279E+02  0.00000000000E+00 0. -1.
</event>
<event>
 7    1  0.5642630E-013  0.5052887E+02  0.7816164E-02  0.1300439E+00
        -11   -1    0    0    0    0  0.00000000000E+00  0.00000000000E+00  0.45593999997E+02  0.45594000000E+02  0.51100000000E-03 0.  1.
         11   -1    0    0    0    0 -0.00000000000E+00 -0.00000000000E+00 -0.45593999997E+02  0.45594000000E+02  0.51100000000E-03 0. -1.
    9900012    2    1    2    0    0  0.72968073989E+01  0.47929907353E+00  0.39996149382E+02  0.50528867062E+02  0.30000021923E+02 0.  0.
         12    1    1    2    0    0 -0.72968073989E+01 -0.47929907353E+00 -0.39996149382E+02  0.40659132938E+02  0.00000000000E+00 0. -1.
         11    1    3    3    0    0 -0.64230086062E+01 -0.40190184319E+01  0.10025713117E+02  0.12566720832E+02  0.51100000000E-03 0. -1.
        -11    1    3    3    0    0  0.11236096742E+02 -0.54546112478E+01  0.20474574958E+02  0.23983554236E+02  0.51100000000E-03 0.  1.
        -12    1    3    3    0    0  0.24837192636E+01  0.99529287533E+01  0.94958613077E+01  0.13978591994E+02  0.00000000000E+00 0.  1.
</event>
<event>
 7    1  0.5642630E-013  0.5052886E+02  0.7816164E-02  0.1300439E+00
        -11   -1    0    0    0    0  0.00000000000E+00  0.00000000000E+00  0.45593999997E+02  0.45594000000E+02  0.51100000000E-03 0. -1.
         11   -1    0    0    0    0 -0.00000000000E+00 -0.00000000000E+00 -0.45593999997E+02  0.45594000000E+02  0.51100000000E-03 0.  1.
    9900012    2    1    2    0    0 -0.28656302780E+02  0.10471271920E+02 -0.26876282467E+02  0.50528858545E+02  0.29999996032E+02 0.  0.
         12    1    1    2    0    0  0.28656302780E+02 -0.10471271920E+02  0.26876282467E+02  0.40659141455E+02  0.00000000000E+00 0. -1.
         11    1    3    3    0    0 -0.79209799240E+00 -0.25855526234E+01  0.56559934357E-01  0.27047552357E+01  0.51100000000E-03 0. -1.
        -11    1    3    3    0    0 -0.85680457496E+00 -0.17276386822E+01  0.38375486126E+01  0.42948374954E+01  0.51100000000E-03 0.  1.
        -12    1    3    3    0    0 -0.27007400213E+02  0.14784463225E+02 -0.30770391014E+02  0.43529265814E+02  0.00000000000E+00 0.  1.
</event>
<event>
 7    1  0.5642630E-013  0.5052886E+02  0.7816164E-02  0.1300439E+00
        -11   -1    0    0    0    0  0.00000000000E+00  0.00000000000E+00  0.45593999997E+02  0.45594000000E+02  0.51100000000E-03 0.  1.
         11   -1    0    0    0    0 -0.00000000000E+00 -0.00000000000E+00 -0.45593999997E+02  0.45594000000E+02  0.51100000000E-03 0. -1.
    9900012    2    1    2    0    0  0.99184950822E+01 -0.23632871502E+02  0.31563848277E+02  0.50528859844E+02  0.29999999983E+02 0.  0.
         12    1    1    2    0    0 -0.99184950822E+01  0.23632871502E+02 -0.31563848277E+02  0.40659140156E+02  0.00000000000E+00 0. -1.
         11    1    3    3    0    0  0.18102352886E+01  0.13217081229E+00  0.20911164195E+02  0.20989788211E+02  0.51100000000E-03 0. -1.
        -11    1    3    3    0    0  0.48450633680E+01 -0.17599345492E+01  0.32507238072E+01  0.60941951223E+01  0.51100000000E-03 0.  1.
        -12    1    3    3    0    0  0.32631964256E+01 -0.22005107765E+02  0.74019602753E+01  0.23444876511E+02  0.00000000000E+00 0.  1.
</event>
<event>
 7    1  0.5642630E-013  0.5052888E+02  0.7816164E-02  0.1300439E+00
        -11   -1    0    0    0    0  0.00000000000E+00  0.00000000000E+00  0.45593999997E+02  0.45594000000E+02  0.51100000000E-03 0.  1.
         11   -1    0    0    0    0 -0.00000000000E+00 -0.00000000000E+00 -0.45593999997E+02  0.45594000000E+02  0.51100000000E-03 0. -1.
    9900012    2    1    2    0    0  0.31235895707E+02 -0.25032561332E+02  0.71311983737E+01  0.50528876820E+02  0.30000051583E+02 0.  0.
         12    1    1    2    0    0 -0.31235895707E+02  0.25032561332E+02 -0.71311983737E+01  0.40659123180E+02  0.00000000000E+00 0. -1.
         11    1    3    3    0    0  0.12467379903E+02 -0.84916030059E+01 -0.67656318938E+01  0.16532291385E+02  0.51100000000E-03 0. -1.
        -11    1    3    3    0    0  0.33853723320E+01 -0.98388403326E+01  0.13715786652E+02  0.17215874322E+02  0.51100000000E-03 0.  1.
         12    1    3    3    0    0  0.15383143472E+02 -0.67021179938E+01  0.18104361547E+00  0.16780711113E+02  0.00000000000E+00 0. -1.
</event>
<event>
 7    1  0.5642630E-013  0.5052887E+02  0.7816164E-02  0.1300439E+00
        -11   -1    0    0    0    0  0.00000000000E+00  0.00000000000E+00  0.45593999997E+02  0.45594000000E+02  0.51100000000E-03 0.  1.
         11   -1    0    0    0    0 -0.00000000000E+00 -0.00000000000E+00 -0.45593999997E+02  0.45594000000E+02  0.51100000000E-03 0. -1.
    9900012    2    1    2    0    0 -0.27995700278E+02 -0.26620891484E+02 -0.12678097425E+02  0.50528865088E+02  0.30000015922E+02 0.  0.
         12    1    1    2    0    0  0.27995700278E+02  0.26620891484E+02  0.12678097425E+02  0.40659134912E+02  0.00000000000E+00 0. -1.
         11    1    3    3    0    0 -0.11649561247E+02 -0.44325942413E+01 -0.16578067040E+02  0.20741081843E+02  0.51100000000E-03 0. -1.
        -11    1    3    3    0    0 -0.39093108078E+01 -0.11354285121E+02 -0.21880163189E+01  0.12206142604E+02  0.51100000000E-03 0.  1.
        -12    1    3    3    0    0 -0.12436828223E+02 -0.10834012122E+02  0.60879859341E+01  0.17581640641E+02  0.00000000000E+00 0.  1.
</event>
<event>
 7    1  0.5642630E-013  0.5052889E+02  0.7816164E-02  0.1300439E+00
        -11   -1    0    0    0    0  0.00000000000E+00  0.00000000000E+00  0.45593999997E+02  0.45594000000E+02  0.51100000000E-03 0.  1.
         11   -1    0    0    0    0 -0.00000000000E+00 -0.00000000000E+00 -0.45593999997E+02  0.45594000000E+02  0.51100000000E-03 0. -1.
    9900012    2    1    2    0    0 -0.39793402807E+02 -0.25203574852E+01 -0.79558742603E+01  0.50528892237E+02  0.30000098445E+02 0.  0.
         12    1    1    2    0    0  0.39793402807E+02  0.25203574852E+01  0.79558742603E+01  0.40659107763E+02  0.00000000000E+00 0. -1.
         11    1    3    3    0    0 -0.10813561949E+02  0.32580716420E+00 -0.78102702910E+01  0.13343147852E+02  0.51100000000E-03 0. -1.
        -11    1    3    3    0    0 -0.25122494624E+02  0.18690080409E+01 -0.87279984838E+01  0.26661036832E+02  0.51100000000E-03 0.  1.
        -12    1    3    3    0    0 -0.38573462340E+01 -0.47151726903E+01  0.85823945144E+01  0.10524707553E+02  0.00000000000E+00 0.  1.
</event>
<event>
 7    1  0.5642630E-013  0.5052885E+02  0.7816164E-02  0.1300439E+00
        -11   -1    0    0    0    0  0.00000000000E+00  0.00000000000E+00  0.45593999997E+02  0.45594000000E+02  0.51100000000E-03 0.  1.
         11   -1    0    0    0    0 -0.00000000000E+00 -0.00000000000E+00 -0.45593999997E+02  0.45594000000E+02  0.51100000000E-03 0. -1.
    9900012    2    1    2    0    0 -0.29696028677E+02 -0.17019209522E+02  0.21946721798E+02  0.50528853309E+02  0.29999980118E+02 0.  0.
         12    1    1    2    0    0  0.29696028677E+02  0.17019209522E+02 -0.21946721798E+02  0.40659146691E+02  0.00000000000E+00 0. -1.
         11    1    3    3    0    0  0.96891764861E+00  0.28129281027E+01  0.29218556555E+00  0.29894378378E+01  0.51100000000E-03 0. -1.
        -11    1    3    3    0    0 -0.23583678332E+02 -0.62325290191E+01  0.49977808874E+01  0.24900042484E+02  0.51100000000E-03 0.  1.
        -12    1    3    3    0    0 -0.70812679937E+01 -0.13599608606E+02  0.16656755345E+02  0.22639372987E+02  0.00000000000E+00 0.  1.
</event>
<event>
 7    1  0.5642630E-013  0.5052885E+02  0.7816164E-02  0.1300439E+00
        -11   -1    0    0    0    0  0.00000000000E+00  0.00000000000E+00  0.45593999997E+02  0.45594000000E+02  0.51100000000E-03 0.  1.
         11   -1    0    0    0    0 -0.00000000000E+00 -0.00000000000E+00 -0.45593999997E+02  0.45594000000E+02  0.51100000000E-03 0. -1.
    9900012    2    1    2    0    0 -0.15479160335E+02  0.18405538031E+02  0.32784111072E+02  0.50528853752E+02  0.29999981464E+02 0.  0.
         12    1    1    2    0    0  0.15479160335E+02 -0.18405538031E+02 -0.32784111072E+02  0.40659146248E+02  0.00000000000E+00 0. -1.
         11    1    3    3    0    0 -0.73502192426E+01  0.80292371042E+01  0.25339621643E+01  0.11176552953E+02  0.51100000000E-03 0. -1.
        -11    1    3    3    0    0 -0.92032349612E+01  0.14557212708E+02  0.30501894741E+02  0.35028239445E+02  0.51100000000E-03 0.  1.
         12    1    3    3    0    0  0.10742938693E+01 -0.41809117803E+01 -0.25174583337E+00  0.43240613544E+01  0.00000000000E+00 0. -1.
</event>
<event>
 7    1  0.5642630E-013  0.5052886E+02  0.7816164E-02  0.1300439E+00
        -11   -1    0    0    0    0  0.00000000000E+00  0.00000000000E+00  0.45593999997E+02  0.45594000000E+02  0.51100000000E-03 0.  1.
         11   -1    0    0    0    0 -0.00000000000E+00 -0.00000000000E+00 -0.45593999997E+02  0.45594000000E+02  0.51100000000E-03 0. -1.
    9900012    2    1    2    0    0  0.37332760677E+02  0.64273975245E+01  0.14768847950E+02  0.50528864145E+02  0.30000013054E+02 0.  0.
         12    1    1    2    0    0 -0.37332760677E+02 -0.64273975245E+01 -0.14768847950E+02  0.40659135855E+02  0.00000000000E+00 0. -1.
         11    1    3    3    0    0  0.19546292870E+02  0.15745325763E+01  0.27325510019E+01  0.19799079601E+02  0.51100000000E-03 0. -1.
        -11    1    3    3    0    0  0.12639467488E+02 -0.46722763200E+01 -0.13160663294E+01  0.13539510155E+02  0.51100000000E-03 0.  1.
        -12    1    3    3    0    0  0.51470003190E+01  0.95251412682E+01  0.13352363277E+02  0.17190274389E+02  0.00000000000E+00 0.  1.
</event>
<event>
 7    1  0.5642630E-013  0.5052887E+02  0.7816164E-02  0.1300439E+00
        -11   -1    0    0    0    0  0.00000000000E+00  0.00000000000E+00  0.45593999997E+02  0.45594000000E+02  0.51100000000E-03 0.  1.
         11   -1    0    0    0    0 -0.00000000000E+00 -0.00000000000E+00 -0.45593999997E+02  0.45594000000E+02  0.51100000000E-03 0. -1.
    9900012    2    1    2    0    0  0.26868350151E+02 -0.23584465272E+02  0.19365691374E+02  0.50528865179E+02  0.30000016198E+02 0.  0.
         12    1    1    2    0    0 -0.26868350151E+02  0.23584465272E+02 -0.19365691374E+02  0.40659134821E+02  0.00000000000E+00 0. -1.
         11    1    3    3    0    0  0.72612537359E+01  0.26866999773E+01 -0.13913368669E+01  0.78663829759E+01  0.51100000000E-03 0. -1.
        -11    1    3    3    0    0  0.15827071524E+02 -0.87970490754E+01  0.15996155036E+02  0.24161151497E+02  0.51100000000E-03 0.  1.
         12    1    3    3    0    0  0.37800248918E+01 -0.17474116174E+02  0.47608732050E+01  0.18501330706E+02  0.00000000000E+00 0. -1.
</event>
<event>
 7    1  0.5642630E-013  0.5052886E+02  0.7816164E-02  0.1300439E+00
        -11   -1    0    0    0    0  0.00000000000E+00  0.00000000000E+00  0.45593999997E+02  0.45594000000E+02  0.51100000000E-03 0. -1.
         11   -1    0    0    0    0 -0.00000000000E+00 -0.00000000000E+00 -0.45593999997E+02  0.45594000000E+02  0.51100000000E-03 0.  1.
    9900012    2    1    2    0    0  0.14542603116E+02 -0.18017331024E+02 -0.33422354493E+02  0.50528864465E+02  0.30000014028E+02 0.  0.
         12    1    1    2    0    0 -0.14542603116E+02  0.18017331024E+02  0.33422354493E+02  0.40659135535E+02  0.00000000000E+00 0. -1.
         11    1    3    3    0    0  0.38579231457E+01 -0.94382169525E+01 -0.12085805128E+02  0.15812343156E+02  0.51100000000E-03 0. -1.
        -11    1    3    3    0    0  0.58623975601E+01 -0.44875265748E+01 -0.25891000357E+02  0.26923029169E+02  0.51100000000E-03 0.  1.
        -12    1    3    3    0    0  0.48222824101E+01 -0.40915874969E+01  0.45544509922E+01  0.77934921394E+01  0.00000000000E+00 0.  1.
</event>
<event>
 7    1  0.5642630E-013  0.5052886E+02  0.7816164E-02  0.1300439E+00
        -11   -1    0    0    0    0  0.00000000000E+00  0.00000000000E+00  0.45593999997E+02  0.45594000000E+02  0.51100000000E-03 0.  1.
         11   -1    0    0    0    0 -0.00000000000E+00 -0.00000000000E+00 -0.45593999997E+02  0.45594000000E+02  0.51100000000E-03 0. -1.
    9900012    2    1    2    0    0 -0.10912529143E+02  0.35902386589E+02  0.15655713832E+02  0.50528855510E+02  0.29999986808E+02 0.  0.
         12    1    1    2    0    0  0.10912529143E+02 -0.35902386589E+02 -0.15655713832E+02  0.40659144490E+02  0.00000000000E+00 0. -1.
         11    1    3    3    0    0  0.28876700854E+01  0.22343352245E+02  0.84904672676E+01  0.24075964420E+02  0.51100000000E-03 0.  1.
        -11    1    3    3    0    0 -0.12412081491E+00  0.17022099583E+01 -0.45719955098E+01  0.48801708906E+01  0.51100000000E-03 0. -1.
        -12    1    3    3    0    0 -0.13676078414E+02  0.11856824386E+02  0.11737242074E+02  0.21572720199E+02  0.00000000000E+00 0.  1.
</event>
<event>
 7    1  0.5642630E-013  0.5052887E+02  0.7816164E-02  0.1300439E+00
        -11   -1    0    0    0    0  0.00000000000E+00  0.00000000000E+00  0.45593999997E+02  0.45594000000E+02  0.51100000000E-03 0. -1.
         11   -1    0    0    0    0 -0.00000000000E+00 -0.00000000000E+00 -0.45593999997E+02  0.45594000000E+02  0.51100000000E-03 0.  1.
    9900012    2    1    2    0    0  0.65447084244E+01 -0.46359588309E+01 -0.39860253692E+02  0.50528866377E+02  0.30000019838E+02 0.  0.
         12    1    1    2    0    0 -0.65447084244E+01  0.46359588309E+01  0.39860253692E+02  0.40659133623E+02  0.00000000000E+00 0. -1.
         11    1    3    3    0    0 -0.18231081870E+01  0.34241339825E+01 -0.17138096553E+01  0.42409386682E+01  0.51100000000E-03 0. -1.
        -11    1    3    3    0    0  0.37507686605E+01  0.70372391824E+00  0.24271384443E+01  0.45226645008E+01  0.51100000000E-03 0.  1.
        -12    1    3    3    0    0  0.46170479510E+01 -0.87638167316E+01 -0.40573582481E+02  0.41765263208E+02  0.00000000000E+00 0.  1.
</event>
<event>
 7    1  0.5642630E-013  0.5052886E+02  0.7816164E-02  0.1300439E+00
        -11   -1    0    0    0    0  0.00000000000E+00  0.00000000000E+00  0.45593999997E+02  0.45594000000E+02  0.51100000000E-03 0.  1.
         11   -1    0    0    0    0 -0.00000000000E+00 -0.00000000000E+00 -0.45593999997E+02  0.45594000000E+02  0.51100000000E-03 0. -1.
    9900012    2    1    2    0    0  0.30302898879E+02  0.24220193217E+01  0.27000630992E+02  0.50528856723E+02  0.29999990495E+02 0.  0.
         12    1    1    2    0    0 -0.30302898879E+02 -0.24220193217E+01 -0.27000630992E+02  0.40659143277E+02  0.00000000000E+00 0. -1.
         11    1    3    3    0    0  0.15138653206E+01  0.46670136743E+01  0.77739262085E+01  0.91927544187E+01  0.51100000000E-03 0. -1.
        -11    1    3    3    0    0  0.76935502468E+01  0.44755074886E+01  0.16866025347E+02  0.19070492756E+02  0.51100000000E-03 0.  1.
        -12    1    3    3    0    0  0.21095483312E+02 -0.67205018412E+01  0.23606794360E+01  0.22265609548E+02  0.00000000000E+00 0.  1.
</event>
<event>
 7    1  0.5642630E-013  0.5052886E+02  0.7816164E-02  0.1300439E+00
        -11   -1    0    0    0    0  0.00000000000E+00  0.00000000000E+00  0.45593999997E+02  0.45594000000E+02  0.51100000000E-03 0. -1.
         11   -1    0    0    0    0 -0.00000000000E+00 -0.00000000000E+00 -0.45593999997E+02  0.45594000000E+02  0.51100000000E-03 0.  1.
    9900012    2    1    2    0    0 -0.38362424365E+02  0.12169587646E+01 -0.13416746100E+02  0.50528859974E+02  0.30000000376E+02 0.  0.
         12    1    1    2    0    0  0.38362424365E+02 -0.12169587646E+01  0.13416746100E+02  0.40659140026E+02  0.00000000000E+00 0. -1.
         11    1    3    3    0    0 -0.10386591966E+02  0.19706680618E+01 -0.55143614774E+01  0.11923632334E+02  0.51100000000E-03 0. -1.
        -11    1    3    3    0    0 -0.82427184243E+01  0.11606707485E+02 -0.52369018749E+01  0.15168493899E+02  0.51100000000E-03 0.  1.
         12    1    3    3    0    0 -0.19733113975E+02 -0.12360416782E+02 -0.26654827473E+01  0.23436733741E+02  0.00000000000E+00 0. -1.
</event>
<event>
 7    1  0.5642630E-013  0.5052887E+02  0.7816164E-02  0.1300439E+00
        -11   -1    0    0    0    0  0.00000000000E+00  0.00000000000E+00  0.45593999997E+02  0.45594000000E+02  0.51100000000E-03 0.  1.
         11   -1    0    0    0    0 -0.00000000000E+00 -0.00000000000E+00 -0.45593999997E+02  0.45594000000E+02  0.51100000000E-03 0. -1.
    9900012    2    1    2    0    0  0.15459477169E+02  0.25571711490E+02  0.27572765321E+02  0.50528865106E+02  0.30000015976E+02 0.  0.
         12    1    1    2    0    0 -0.15459477169E+02 -0.25571711490E+02 -0.27572765321E+02  0.40659134894E+02  0.00000000000E+00 0. -1.
         11    1    3    3    0    0 -0.62266842100E+01  0.50945316329E+01  0.76765964176E+01  0.11120071116E+02  0.51100000000E-03 0. -1.
        -11    1    3    3    0    0  0.16565216254E+02  0.20766680754E+02  0.21346729486E+02  0.34078501714E+02  0.51100000000E-03 0.  1.
         12    1    3    3    0    0  0.51209451251E+01 -0.28950089704E+00 -0.14505605821E+01  0.53302922759E+01  0.00000000000E+00 0. -1.
</event>
<event>
 7    1  0.5642630E-013  0.5052886E+02  0.7816164E-02  0.1300439E+00
        -11   -1    0    0    0    0  0.00000000000E+00  0.00000000000E+00  0.45593999997E+02  0.45594000000E+02  0.51100000000E-03 0. -1.
         11   -1    0    0    0    0 -0.00000000000E+00 -0.00000000000E+00 -0.45593999997E+02  0.45594000000E+02  0.51100000000E-03 0.  1.
    9900012    2    1    2    0    0  0.23034424846E+02  0.11545965992E+02 -0.31452692065E+02  0.50528857156E+02  0.29999991810E+02 0.  0.
         12    1    1    2    0    0 -0.23034424846E+02 -0.11545965992E+02  0.31452692065E+02  0.40659142844E+02  0.00000000000E+00 0. -1.
         11    1    3    3    0    0  0.31829013913E+01 -0.45024436547E+01  0.39405065781E+01  0.67772009329E+01  0.51100000000E-03 0. -1.
        -11    1    3    3    0    0  0.62719220353E+01  0.39256830517E+01 -0.12192622494E+02  0.14262118952E+02  0.51100000000E-03 0.  1.
         12    1    3    3    0    0  0.13579601420E+02  0.12122726595E+02 -0.23200576149E+02  0.29489537271E+02  0.00000000000E+00 0. -1.
</event>
<event>
 7    1  0.5642630E-013  0.5052887E+02  0.7816164E-02  0.1300439E+00
        -11   -1    0    0    0    0  0.00000000000E+00  0.00000000000E+00  0.45593999997E+02  0.45594000000E+02  0.51100000000E-03 0.  1.
         11   -1    0    0    0    0 -0.00000000000E+00 -0.00000000000E+00 -0.45593999997E+02  0.45594000000E+02  0.51100000000E-03 0. -1.
    9900012    2    1    2    0    0 -0.15803415519E+02 -0.14225972356E+02  0.34656004919E+02  0.50528869309E+02  0.30000028753E+02 0.  0.
         12    1    1    2    0    0  0.15803415519E+02  0.14225972356E+02 -0.34656004919E+02  0.40659130691E+02  0.00000000000E+00 0. -1.
         11    1    3    3    0    0 -0.82008151442E+01 -0.10659305230E+02  0.20854757692E+02  0.24815218630E+02  0.51100000000E-03 0. -1.
        -11    1    3    3    0    0 -0.80706014255E+01 -0.11257287448E+02  0.74456131729E+01  0.15725720456E+02  0.51100000000E-03 0.  1.
         12    1    3    3    0    0  0.46800105059E+00  0.76906203220E+01  0.63556340548E+01  0.99879302240E+01  0.00000000000E+00 0. -1.
</event>
<event>
 7    1  0.5642630E-013  0.5052887E+02  0.7816164E-02  0.1300439E+00
        -11   -1    0    0    0    0  0.00000000000E+00  0.00000000000E+00  0.45593999997E+02  0.45594000000E+02  0.51100000000E-03 0.  1.
         11   -1    0    0    0    0 -0.00000000000E+00 -0.00000000000E+00 -0.45593999997E+02  0.45594000000E+02  0.51100000000E-03 0. -1.
    9900012    2    1    2    0    0  0.26238322153E+02  0.15340741626E+02  0.27006983846E+02  0.50528867206E+02  0.30000022361E+02 0.  0.
         12    1    1    2    0    0 -0.26238322153E+02 -0.15340741626E+02 -0.27006983846E+02  0.40659132794E+02  0.00000000000E+00 0. -1.
         11    1    3    3    0    0 -0.19698889992E+01  0.41009987549E+01  0.10948820120E+01  0.46794679546E+01  0.51100000000E-03 0. -1.
        -11    1    3    3    0    0  0.18830359314E+02  0.98157772534E+01  0.35118000619E+01  0.21523583692E+02  0.51100000000E-03 0.  1.
         12    1    3    3    0    0  0.93778518384E+01  0.14239656176E+01  0.22400301772E+02  0.24325815560E+02  0.00000000000E+00 0. -1.
</event>
<event>
 7    1  0.5642630E-013  0.5052886E+02  0.7816164E-02  0.1300439E+00
        -11   -1    0    0    0    0  0.00000000000E+00  0.00000000000E+00  0.45593999997E+02  0.45594000000E+02  0.51100000000E-03 0. -1.
         11   -1    0    0    0    0 -0.00000000000E+00 -0.00000000000E+00 -0.45593999997E+02  0.45594000000E+02  0.51100000000E-03 0.  1.
    9900012    2    1    2    0    0 -0.19036512736E+02 -0.35628156106E+02 -0.46272806530E+01  0.50528855262E+02  0.29999986053E+02 0.  0.
         12    1    1    2    0    0  0.19036512736E+02  0.35628156106E+02  0.46272806530E+01  0.40659144738E+02  0.00000000000E+00 0. -1.
         11    1    3    3    0    0 -0.36553805657E+01  0.34820419945E+00 -0.43114774696E+01  0.56632050534E+01  0.51100000000E-03 0. -1.
        -11    1    3    3    0    0  0.10975014675E+01  0.73037149591E+00  0.41765930556E+01  0.43797125255E+01  0.51100000000E-03 0.  1.
        -12    1    3    3    0    0 -0.16478633637E+02 -0.36706731801E+02 -0.44923962390E+01  0.40485937683E+02  0.00000000000E+00 0.  1.
</event>
<event>
 7    1  0.5642630E-013  0.5052886E+02  0.7816164E-02  0.1300439E+00
        -11   -1    0    0    0    0  0.00000000000E+00  0.00000000000E+00  0.45593999997E+02  0.45594000000E+02  0.51100000000E-03 0. -1.
         11   -1    0    0    0    0 -0.00000000000E+00 -0.00000000000E+00 -0.45593999997E+02  0.45594000000E+02  0.51100000000E-03 0.  1.
    9900012    2    1    2    0    0 -0.20709811090E+02  0.34252531348E+02  0.71437604026E+01  0.50528862137E+02  0.30000006950E+02 0.  0.
         12    1    1    2    0    0  0.20709811090E+02 -0.34252531348E+02 -0.71437604026E+01  0.40659137863E+02  0.00000000000E+00 0. -1.
         11    1    3    3    0    0  0.43609776572E+01  0.27418993544E+01 -0.22913588891E+01  0.56379485645E+01  0.51100000000E-03 0. -1.
        -11    1    3    3    0    0 -0.10565661101E+02  0.19748573089E+02 -0.27902187055E+01  0.22570437617E+02  0.51100000000E-03 0.  1.
        -12    1    3    3    0    0 -0.14505127646E+02  0.11762058905E+02  0.12225337997E+02  0.22320475955E+02  0.00000000000E+00 0.  1.
</event>
<event>
 7    1  0.5642630E-013  0.5052886E+02  0.7816164E-02  0.1300439E+00
        -11   -1    0    0    0    0  0.00000000000E+00  0.00000000000E+00  0.45593999997E+02  0.45594000000E+02  0.51100000000E-03 0.  1.
         11   -1    0    0    0    0 -0.00000000000E+00 -0.00000000000E+00 -0.45593999997E+02  0.45594000000E+02  0.51100000000E-03 0. -1.
    9900012    2    1    2    0    0 -0.32173943250E+02  0.21453212790E+02  0.12560372320E+02  0.50528856919E+02  0.29999991092E+02 0.  0.
         12    1    1    2    0    0  0.32173943250E+02 -0.21453212790E+02 -0.12560372320E+02  0.40659143081E+02  0.00000000000E+00 0. -1.
         11    1    3    3    0    0 -0.49444180642E+01  0.46704550476E+00 -0.18592254450E+01  0.53030294185E+01  0.51100000000E-03 0. -1.
        -11    1    3    3    0    0 -0.47888983226E+01  0.72216336451E+01 -0.71168318354E+01  0.11213154564E+02  0.51100000000E-03 0.  1.
        -12    1    3    3    0    0 -0.22440626863E+02  0.13764533640E+02  0.21536429601E+02  0.34012672936E+02  0.00000000000E+00 0.  1.
</event>
<event>
 7    1  0.5642630E-013  0.5052886E+02  0.7816164E-02  0.1300439E+00
        -11   -1    0    0    0    0  0.00000000000E+00  0.00000000000E+00  0.45593999997E+02  0.45594000000E+02  0.51100000000E-03 0. -1.
         11   -1    0    0    0    0 -0.00000000000E+00 -0.00000000000E+00 -0.45593999997E+02  0.45594000000E+02  0.51100000000E-03 0.  1.
    9900012    2    1    2    0    0  0.23115237280E+02 -0.11430479855E+02 -0.31435581236E+02  0.50528857954E+02  0.29999994238E+02 0.  0.
         12    1    1    2    0    0 -0.23115237280E+02  0.11430479855E+02  0.31435581236E+02  0.40659142046E+02  0.00000000000E+00 0. -1.
         11    1    3    3    0    0  0.31645801134E+01  0.41186319375E+01  0.20985090633E+01  0.56019136802E+01  0.51100000000E-03 0. -1.
        -11    1    3    3    0    0 -0.16128496394E+01  0.22693851523E+00  0.45731770884E+00  0.16917224350E+01  0.51100000000E-03 0.  1.
        -12    1    3    3    0    0  0.21563506806E+02 -0.15776050307E+02 -0.33991408009E+02  0.43235221839E+02  0.00000000000E+00 0.  1.
</event>
<event>
 7    1  0.5642630E-013  0.5052885E+02  0.7816164E-02  0.1300439E+00
        -11   -1    0    0    0    0  0.00000000000E+00  0.00000000000E+00  0.45593999997E+02  0.45594000000E+02  0.51100000000E-03 0.  1.
         11   -1    0    0    0    0 -0.00000000000E+00 -0.00000000000E+00 -0.45593999997E+02  0.45594000000E+02  0.51100000000E-03 0. -1.
    9900012    2    1    2    0    0 -0.22283457540E+02 -0.68003988627E+01  0.33322192106E+02  0.50528851074E+02  0.29999973324E+02 0.  0.
         12    1    1    2    0    0  0.22283457540E+02  0.68003988627E+01 -0.33322192106E+02  0.40659148926E+02  0.00000000000E+00 0. -1.
         11    1    3    3    0    0  0.81300726957E+00  0.59321642883E+01  0.76019634446E+01  0.96768487865E+01  0.51100000000E-03 0. -1.
        -11    1    3    3    0    0  0.23681350409E+01 -0.42349458245E+01  0.47157740889E+01  0.67661920773E+01  0.51100000000E-03 0.  1.
         12    1    3    3    0    0 -0.25464599851E+02 -0.84976173265E+01  0.21004454573E+02  0.34085810210E+02  0.00000000000E+00 0. -1.
</event>
<event>
 7    1  0.5642630E-013  0.5052887E+02  0.7816164E-02  0.1300439E+00
        -11   -1    0    0    0    0  0.00000000000E+00  0.00000000000E+00  0.45593999997E+02  0.45594000000E+02  0.51100000000E-03 0.  1.
         11   -1    0    0    0    0 -0.00000000000E+00 -0.00000000000E+00 -0.45593999997E+02  0.45594000000E+02  0.51100000000E-03 0. -1.
    9900012    2    1    2    0    0 -0.32257378576E+02  0.83909853552E+01  0.23285565776E+02  0.50528872103E+02  0.30000037245E+02 0.  0.
         12    1    1    2    0    0  0.32257378576E+02 -0.83909853552E+01 -0.23285565776E+02  0.40659127897E+02  0.00000000000E+00 0. -1.
         11    1    3    3    0    0 -0.62748598544E+01  0.57852576172E+01 -0.21191052965E+01  0.87939569824E+01  0.51100000000E-03 0. -1.
        -11    1    3    3    0    0 -0.98853644607E+01  0.66031270241E+01  0.60916680653E+00  0.11903478545E+02  0.51100000000E-03 0.  1.
        -12    1    3    3    0    0 -0.16097154261E+02 -0.39973992861E+01  0.24795504266E+02  0.29831436576E+02  0.00000000000E+00 0.  1.
</event>
<event>
 7    1  0.5642630E-013  0.5052886E+02  0.7816164E-02  0.1300439E+00
        -11   -1    0    0    0    0  0.00000000000E+00  0.00000000000E+00  0.45593999997E+02  0.45594000000E+02  0.51100000000E-03 0.  1.
         11   -1    0    0    0    0 -0.00000000000E+00 -0.00000000000E+00 -0.45593999997E+02  0.45594000000E+02  0.51100000000E-03 0. -1.
    9900012    2    1    2    0    0 -0.36141218540E+02  0.46216536978E+01  0.18044895926E+02  0.50528860443E+02  0.30000001804E+02 0.  0.
         12    1    1    2    0    0  0.36141218540E+02 -0.46216536978E+01 -0.18044895926E+02  0.40659139557E+02  0.00000000000E+00 0. -1.
         11    1    3    3    0    0 -0.34338119782E+01  0.31123461308E+01  0.27273166558E-01  0.46344910429E+01  0.51100000000E-03 0. -1.
        -11    1    3    3    0    0 -0.24144435341E+02  0.12946762400E+02  0.83410438865E+01  0.28638181297E+02  0.51100000000E-03 0.  1.
         12    1    3    3    0    0 -0.85629712209E+01 -0.11437454833E+02  0.96765788731E+01  0.17256188104E+02  0.00000000000E+00 0. -1.
</event>
<event>
 7    1  0.5642630E-013  0.5052885E+02  0.7816164E-02  0.1300439E+00
        -11   -1    0    0    0    0  0.00000000000E+00  0.00000000000E+00  0.45593999997E+02  0.45594000000E+02  0.51100000000E-03 0. -1.
         11   -1    0    0    0    0 -0.00000000000E+00 -0.00000000000E+00 -0.45593999997E+02  0.45594000000E+02  0.51100000000E-03 0.  1.
    9900012    2    1    2    0    0 -0.19389831309E+02  0.21223515307E+02 -0.28753486482E+02  0.50528854103E+02  0.29999982532E+02 0.  0.
         12    1    1    2    0    0  0.19389831309E+02 -0.21223515307E+02  0.28753486482E+02  0.40659145897E+02  0.00000000000E+00 0. -1.
         11    1    3    3    0    0  0.12148970721E+01  0.33892224846E+01  0.17313928960E+01  0.39950626488E+01  0.51100000000E-03 0. -1.
        -11    1    3    3    0    0 -0.23565549959E+01  0.14928091495E+02 -0.20685013520E+02  0.25617787799E+02  0.51100000000E-03 0.  1.
        -12    1    3    3    0    0 -0.18248173385E+02  0.29062013270E+01 -0.97998658585E+01  0.20916003655E+02  0.00000000000E+00 0.  1.
</event>
<event>
 7    1  0.5642630E-013  0.5052885E+02  0.7816164E-02  0.1300439E+00
        -11   -1    0    0    0    0  0.00000000000E+00  0.00000000000E+00  0.45593999997E+02  0.45594000000E+02  0.51100000000E-03 0. -1.
         11   -1    0    0    0    0 -0.00000000000E+00 -0.00000000000E+00 -0.45593999997E+02  0.45594000000E+02  0.51100000000E-03 0.  1.
    9900012    2    1    2    0    0 -0.18136022220E+02  0.86131537133E+01 -0.35356252884E+02  0.50528851745E+02  0.29999975364E+02 0.  0.
         12    1    1    2    0    0  0.18136022220E+02 -0.86131537133E+01  0.35356252884E+02  0.40659148255E+02  0.00000000000E+00 0. -1.
         11    1    3    3    0    0 -0.23470509056E+01 -0.56506746752E+01 -0.13472175081E+02  0.14796562909E+02  0.51100000000E-03 0. -1.
        -11    1    3    3    0    0 -0.74047268797E+00 -0.38409952724E+01 -0.65732794499E+01  0.76491533827E+01  0.51100000000E-03 0.  1.
        -12    1    3    3    0    0 -0.15048498626E+02  0.18104823661E+02 -0.15310798352E+02  0.28083135453E+02  0.00000000000E+00 0.  1.
</event>
<event>
 7    1  0.5642630E-013  0.5052884E+02  0.7816164E-02  0.1300439E+00
        -11   -1    0    0    0    0  0.00000000000E+00  0.00000000000E+00  0.45593999997E+02  0.45594000000E+02  0.51100000000E-03 0.  1.
         11   -1    0    0    0    0 -0.00000000000E+00 -0.00000000000E+00 -0.45593999997E+02  0.45594000000E+02  0.51100000000E-03 0. -1.
    9900012    2    1    2    0    0 -0.79482687603E+01 -0.72426032890E+01  0.39211435786E+02  0.50528843896E+02  0.29999951507E+02 0.  0.
         12    1    1    2    0    0  0.79482687603E+01  0.72426032890E+01 -0.39211435786E+02  0.40659156104E+02  0.00000000000E+00 0. -1.
         11    1    3    3    0    0 -0.65006443083E+01  0.35100098044E+01  0.16179014853E+02  0.17785923286E+02  0.51100000000E-03 0. -1.
        -11    1    3    3    0    0  0.83436959645E+01 -0.31815390229E+01  0.16466979633E+02  0.18732348262E+02  0.51100000000E-03 0.  1.
         12    1    3    3    0    0 -0.97913204166E+01 -0.75710740705E+01  0.65654413001E+01  0.14010572349E+02  0.00000000000E+00 0. -1.
</event>
<event>
 7    1  0.7494124E-013  0.5052886E+02  0.7816164E-02  0.1300439E+00
        -11   -1    0    0    0    0  0.00000000000E+00  0.00000000000E+00  0.45593999997E+02  0.45594000000E+02  0.51100000000E-03 0. -1.
         11   -1    0    0    0    0 -0.00000000000E+00 -0.00000000000E+00 -0.45593999997E+02  0.45594000000E+02  0.51100000000E-03 0.  1.
    9900012    2    1    2    0    0  0.68488531542E+01 -0.24094681278E+02 -0.32026629805E+02  0.50528862379E+02  0.30000007687E+02 0.  0.
         12    1    1    2    0    0 -0.68488531542E+01  0.24094681278E+02  0.32026629805E+02  0.40659137621E+02  0.00000000000E+00 0. -1.
         11    1    3    3    0    0  0.22684199860E+01  0.25654461860E+01  0.55431749383E+00  0.34690793464E+01  0.51100000000E-03 0. -1.
        -11    1    3    3    0    0  0.71023857483E+01 -0.49166234450E+01 -0.10872765383E+01  0.87062758944E+01  0.51100000000E-03 0.  1.
        -12    1    3    3    0    0 -0.25219525801E+01 -0.21743504019E+02 -0.31493670761E+02  0.38353507138E+02  0.00000000000E+00 0.  1.
</event>
<event>
 7    1  0.5642630E-013  0.5052885E+02  0.7816164E-02  0.1300439E+00
        -11   -1    0    0    0    0  0.00000000000E+00  0.00000000000E+00  0.45593999997E+02  0.45594000000E+02  0.51100000000E-03 0. -1.
         11   -1    0    0    0    0 -0.00000000000E+00 -0.00000000000E+00 -0.45593999997E+02  0.45594000000E+02  0.51100000000E-03 0.  1.
    9900012    2    1    2    0    0 -0.28217317434E+02  0.29247306705E+02 -0.12427203663E+01  0.50528852117E+02  0.29999976494E+02 0.  0.
         12    1    1    2    0    0  0.28217317434E+02 -0.29247306705E+02  0.12427203663E+01  0.40659147883E+02  0.00000000000E+00 0. -1.
         11    1    3    3    0    0  0.18891421195E+01 -0.14714271653E+01 -0.34002291565E+01  0.41587876152E+01  0.51100000000E-03 0. -1.
        -11    1    3    3    0    0 -0.18125098134E+02  0.18013744132E+02 -0.72114735031E+01  0.26552203494E+02  0.51100000000E-03 0.  1.
        -12    1    3    3    0    0 -0.11981361420E+02  0.12704989738E+02  0.93689822933E+01  0.19817861008E+02  0.00000000000E+00 0.  1.
</event>
<event>
 7    1  0.5642630E-013  0.5052886E+02  0.7816164E-02  0.1300439E+00
        -11   -1    0    0    0    0  0.00000000000E+00  0.00000000000E+00  0.45593999997E+02  0.45594000000E+02  0.51100000000E-03 0. -1.
         11   -1    0    0    0    0 -0.00000000000E+00 -0.00000000000E+00 -0.45593999997E+02  0.45594000000E+02  0.51100000000E-03 0.  1.
    9900012    2    1    2    0    0 -0.84640233871E+01  0.35792013536E+02 -0.17333718381E+02  0.50528859357E+02  0.29999998502E+02 0.  0.
         12    1    1    2    0    0  0.84640233871E+01 -0.35792013536E+02  0.17333718381E+02  0.40659140643E+02  0.00000000000E+00 0. -1.
         11    1    3    3    0    0 -0.90547665154E+01  0.12825564350E+02  0.22515840640E+01  0.15860439105E+02  0.51100000000E-03 0. -1.
        -11    1    3    3    0    0 -0.51986130766E+01  0.12641476853E+01 -0.84592826260E+00  0.54165710719E+01  0.51100000000E-03 0.  1.
        -12    1    3    3    0    0  0.57893562049E+01  0.21702301501E+02 -0.18739374182E+02  0.29251849180E+02  0.00000000000E+00 0.  1.
</event>
<event>
 7    1  0.5642630E-013  0.5052886E+02  0.7816164E-02  0.1300439E+00
        -11   -1    0    0    0    0  0.00000000000E+00  0.00000000000E+00  0.45593999997E+02  0.45594000000E+02  0.51100000000E-03 0.  1.
         11   -1    0    0    0    0 -0.00000000000E+00 -0.00000000000E+00 -0.45593999997E+02  0.45594000000E+02  0.51100000000E-03 0. -1.
    9900012    2    1    2    0    0 -0.34346803479E+02 -0.12112992403E+02  0.18075903400E+02  0.50528858618E+02  0.29999996256E+02 0.  0.
         12    1    1    2    0    0  0.34346803479E+02  0.12112992403E+02 -0.18075903400E+02  0.40659141382E+02  0.00000000000E+00 0. -1.
         11    1    3    3    0    0 -0.57451912191E+01 -0.26816250476E+01  0.80736321491E+01  0.10265567270E+02  0.51100000000E-03 0. -1.
        -11    1    3    3    0    0 -0.21735492899E+02 -0.13208065956E+02  0.16300995568E+02  0.30209387856E+02  0.51100000000E-03 0.  1.
         12    1    3    3    0    0 -0.68661193611E+01  0.37766986007E+01 -0.62987243175E+01  0.10053903492E+02  0.00000000000E+00 0. -1.
</event>
<event>
 7    1  0.6493144E-013  0.5052886E+02  0.7816164E-02  0.1300439E+00
        -11   -1    0    0    0    0  0.00000000000E+00  0.00000000000E+00  0.45593999997E+02  0.45594000000E+02  0.51100000000E-03 0.  1.
         11   -1    0    0    0    0 -0.00000000000E+00 -0.00000000000E+00 -0.45593999997E+02  0.45594000000E+02  0.51100000000E-03 0. -1.
    9900012    2    1    2    0    0  0.24449152322E+02 -0.32248161909E+02 -0.39319773452E+01  0.50528862753E+02  0.30000008824E+02 0.  0.
         12    1    1    2    0    0 -0.24449152322E+02  0.32248161909E+02  0.39319773452E+01  0.40659137247E+02  0.00000000000E+00 0. -1.
         11    1    3    3    0    0 -0.17213358634E+01  0.14310687432E+01 -0.30696895872E+01  0.37992037752E+01  0.51100000000E-03 0. -1.
        -11    1    3    3    0    0 -0.22998692320E+01 -0.80076007786E+01 -0.10240928724E+01  0.83940356912E+01  0.51100000000E-03 0.  1.
        -12    1    3    3    0    0  0.28470357418E+02 -0.25671629874E+02  0.16180511437E+00  0.38335623287E+02  0.00000000000E+00 0.  1.
</event>
<event>
 7    1  0.5642630E-013  0.5052886E+02  0.7816164E-02  0.1300439E+00
        -11   -1    0    0    0    0  0.00000000000E+00  0.00000000000E+00  0.45593999997E+02  0.45594000000E+02  0.51100000000E-03 0. -1.
         11   -1    0    0    0    0 -0.00000000000E+00 -0.00000000000E+00 -0.45593999997E+02  0.45594000000E+02  0.51100000000E-03 0.  1.
    9900012    2    1    2    0    0 -0.14063425393E+02 -0.36040686159E+02 -0.12508178091E+02  0.50528861892E+02  0.30000006206E+02 0.  0.
         12    1    1    2    0    0  0.14063425393E+02  0.36040686159E+02  0.12508178091E+02  0.40659138108E+02  0.00000000000E+00 0. -1.
         11    1    3    3    0    0  0.89967024326E+00 -0.15722776357E+02  0.31073049397E+01  0.16052116595E+02  0.51100000000E-03 0. -1.
        -11    1    3    3    0    0 -0.21111445636E+01 -0.14743934275E+02 -0.21552273321E+01  0.15049436348E+02  0.51100000000E-03 0.  1.
        -12    1    3    3    0    0 -0.12851951072E+02 -0.55739755267E+01 -0.13460255699E+02  0.19427308949E+02  0.00000000000E+00 0.  1.
</event>
<event>
 7    1  0.5642630E-013  0.5052887E+02  0.7816164E-02  0.1300439E+00
        -11   -1    0    0    0    0  0.00000000000E+00  0.00000000000E+00  0.45593999997E+02  0.45594000000E+02  0.51100000000E-03 0. -1.
         11   -1    0    0    0    0 -0.00000000000E+00 -0.00000000000E+00 -0.45593999997E+02  0.45594000000E+02  0.51100000000E-03 0.  1.
    9900012    2    1    2    0    0 -0.19375819175E+02 -0.20273074897E+02 -0.29440537656E+02  0.50528865824E+02  0.30000018159E+02 0.  0.
         12    1    1    2    0    0  0.19375819175E+02  0.20273074897E+02  0.29440537656E+02  0.40659134176E+02  0.00000000000E+00 0. -1.
         11    1    3    3    0    0 -0.45715741188E+01  0.52252478963E+01  0.11329756759E+01  0.70346385582E+01  0.51100000000E-03 0. -1.
        -11    1    3    3    0    0 -0.18483887126E+01  0.38381101045E+00 -0.28259948170E+01  0.33985436133E+01  0.51100000000E-03 0.  1.
        -12    1    3    3    0    0 -0.12955856343E+02 -0.25882133804E+02 -0.27747518515E+02  0.40095683652E+02  0.00000000000E+00 0.  1.
</event>
<event>
 7    1  0.5642630E-013  0.5052887E+02  0.7816164E-02  0.1300439E+00
        -11   -1    0    0    0    0  0.00000000000E+00  0.00000000000E+00  0.45593999997E+02  0.45594000000E+02  0.51100000000E-03 0.  1.
         11   -1    0    0    0    0 -0.00000000000E+00 -0.00000000000E+00 -0.45593999997E+02  0.45594000000E+02  0.51100000000E-03 0. -1.
    9900012    2    1    2    0    0  0.22821975223E+02  0.36264958201E+01  0.33454013188E+02  0.50528867897E+02  0.30000024459E+02 0.  0.
         12    1    1    2    0    0 -0.22821975223E+02 -0.36264958201E+01 -0.33454013188E+02  0.40659132103E+02  0.00000000000E+00 0. -1.
         11    1    3    3    0    0  0.86045876406E+01 -0.24372246626E+01  0.22906636842E+01  0.92318000897E+01  0.51100000000E-03 0. -1.
        -11    1    3    3    0    0 -0.11081241808E+01 -0.64327187796E+01  0.12521593647E+02  0.14120839842E+02  0.51100000000E-03 0.  1.
         12    1    3    3    0    0  0.15325511764E+02  0.12496439262E+02  0.18641755856E+02  0.27176227966E+02  0.00000000000E+00 0. -1.
</event>
<event>
 7    1  0.5642630E-013  0.5052885E+02  0.7816164E-02  0.1300439E+00
        -11   -1    0    0    0    0  0.00000000000E+00  0.00000000000E+00  0.45593999997E+02  0.45594000000E+02  0.51100000000E-03 0. -1.
         11   -1    0    0    0    0 -0.00000000000E+00 -0.00000000000E+00 -0.45593999997E+02  0.45594000000E+02  0.51100000000E-03 0.  1.
    9900012    2    1    2    0    0 -0.22481061396E+02  0.25261695061E+02 -0.22574654548E+02  0.50528851130E+02  0.29999973495E+02 0.  0.
         12    1    1    2    0    0  0.22481061396E+02 -0.25261695061E+02  0.22574654548E+02  0.40659148870E+02  0.00000000000E+00 0. -1.
         11    1    3    3    0    0 -0.12827588330E+02  0.20896278307E+01 -0.12471483460E+02  0.18012536379E+02  0.51100000000E-03 0.  1.
        -11    1    3    3    0    0 -0.98810639884E+01  0.25290728396E+02 -0.11978954792E+02  0.29677461591E+02  0.51100000000E-03 0. -1.
         12    1    3    3    0    0  0.22759092242E+00 -0.21186611648E+01  0.18757837045E+01  0.28388531602E+01  0.00000000000E+00 0. -1.
</event>
<event>
 7    1  0.5642630E-013  0.5052886E+02  0.7816164E-02  0.1300439E+00
        -11   -1    0    0    0    0  0.00000000000E+00  0.00000000000E+00  0.45593999997E+02  0.45594000000E+02  0.51100000000E-03 0.  1.
         11   -1    0    0    0    0 -0.00000000000E+00 -0.00000000000E+00 -0.45593999997E+02  0.45594000000E+02  0.51100000000E-03 0. -1.
    9900012    2    1    2    0    0 -0.95622326282E+01 -0.31077450252E+02  0.24411498136E+02  0.50528862672E+02  0.30000008577E+02 0.  0.
         12    1    1    2    0    0  0.95622326282E+01  0.31077450252E+02 -0.24411498136E+02  0.40659137328E+02  0.00000000000E+00 0. -1.
         11    1    3    3    0    0 -0.82598445807E+01 -0.73173206106E+00  0.25048390075E+01  0.86622562315E+01  0.51100000000E-03 0. -1.
        -11    1    3    3    0    0 -0.68355195392E+01 -0.52146230246E+01  0.10889529499E+02  0.13874381919E+02  0.51100000000E-03 0.  1.
        -12    1    3    3    0    0  0.55331314917E+01 -0.25131095166E+02  0.11017129630E+02  0.27992224521E+02  0.00000000000E+00 0.  1.
</event>
<event>
 7    1  0.5642630E-013  0.5052886E+02  0.7816164E-02  0.1300439E+00
        -11   -1    0    0    0    0  0.00000000000E+00  0.00000000000E+00  0.45593999997E+02  0.45594000000E+02  0.51100000000E-03 0. -1.
         11   -1    0    0    0    0 -0.00000000000E+00 -0.00000000000E+00 -0.45593999997E+02  0.45594000000E+02  0.51100000000E-03 0.  1.
    9900012    2    1    2    0    0 -0.29321796143E+02  0.19926477249E+02 -0.19908116386E+02  0.50528864217E+02  0.30000013273E+02 0.  0.
         12    1    1    2    0    0  0.29321796143E+02 -0.19926477249E+02  0.19908116386E+02  0.40659135783E+02  0.00000000000E+00 0. -1.
         11    1    3    3    0    0 -0.23492094586E+02  0.91295973189E+01 -0.41505799829E+01  0.25543205940E+02  0.51100000000E-03 0. -1.
        -11    1    3    3    0    0 -0.94537349980E+01  0.31736242330E+01 -0.45658783409E+01  0.10967781976E+02  0.51100000000E-03 0.  1.
         12    1    3    3    0    0  0.36240334407E+01  0.76232556972E+01 -0.11191658062E+02  0.14017876300E+02  0.00000000000E+00 0. -1.
</event>
<event>
 7    1  0.5642630E-013  0.5052885E+02  0.7816164E-02  0.1300439E+00
        -11   -1    0    0    0    0  0.00000000000E+00  0.00000000000E+00  0.45593999997E+02  0.45594000000E+02  0.51100000000E-03 0. -1.
         11   -1    0    0    0    0 -0.00000000000E+00 -0.00000000000E+00 -0.45593999997E+02  0.45594000000E+02  0.51100000000E-03 0.  1.
    9900012    2    1    2    0    0  0.32496039614E+02 -0.13155622759E+02 -0.20593763053E+02  0.50528854935E+02  0.29999985059E+02 0.  0.
         12    1    1    2    0    0 -0.32496039614E+02  0.13155622759E+02  0.20593763053E+02  0.40659145065E+02  0.00000000000E+00 0. -1.
         11    1    3    3    0    0  0.64862936953E+01  0.44986988837E+01 -0.17749080169E+01  0.80907722918E+01  0.51100000000E-03 0. -1.
        -11    1    3    3    0    0  0.75508183459E+01  0.47309084913E+01 -0.58359320914E+01  0.10651500199E+02  0.51100000000E-03 0.  1.
        -12    1    3    3    0    0  0.18458927573E+02 -0.22385230134E+02 -0.12982922945E+02  0.31786582444E+02  0.00000000000E+00 0.  1.
</event>
<event>
 7    1  0.5642630E-013  0.5052891E+02  0.7816164E-02  0.1300439E+00
        -11   -1    0    0    0    0  0.00000000000E+00  0.00000000000E+00  0.45593999997E+02  0.45594000000E+02  0.51100000000E-03 0.  1.
         11   -1    0    0    0    0 -0.00000000000E+00 -0.00000000000E+00 -0.45593999997E+02  0.45594000000E+02  0.51100000000E-03 0. -1.
    9900012    2    1    2    0    0 -0.91755055023E+01 -0.37777170389E+02  0.11910376814E+02  0.50528910245E+02  0.30000153181E+02 0.  0.
         12    1    1    2    0    0  0.91755055023E+01  0.37777170389E+02 -0.11910376814E+02  0.40659089755E+02  0.00000000000E+00 0. -1.
         11    1    3    3    0    0 -0.47017350122E+01 -0.53158132544E+01 -0.10300320459E+01  0.71711330316E+01  0.51100000000E-03 0. -1.
        -11    1    3    3    0    0 -0.23800634638E+01 -0.19635307264E+02 -0.57458178280E+01  0.20596708868E+02  0.51100000000E-03 0.  1.
        -12    1    3    3    0    0 -0.20937070263E+01 -0.12826049871E+02  0.18686226687E+02  0.22761068345E+02  0.00000000000E+00 0.  1.
</event>
<event>
 7    1  0.5642630E-013  0.5052880E+02  0.7816164E-02  0.1300439E+00
        -11   -1    0    0    0    0  0.00000000000E+00  0.00000000000E+00  0.45593999997E+02  0.45594000000E+02  0.51100000000E-03 0. -1.
         11   -1    0    0    0    0 -0.00000000000E+00 -0.00000000000E+00 -0.45593999997E+02  0.45594000000E+02  0.51100000000E-03 0.  1.
    9900012    2    1    2    0    0  0.22551682975E+02 -0.33177497069E+02 -0.66215900487E+01  0.50528804588E+02  0.29999832026E+02 0.  0.
         12    1    1    2    0    0 -0.22551682975E+02  0.33177497069E+02  0.66215900487E+01  0.40659195412E+02  0.00000000000E+00 0. -1.
         11    1    3    3    0    0 -0.38093933608E+01 -0.11903079605E+02  0.16346233258E+01  0.12604236412E+02  0.51100000000E-03 0. -1.
        -11    1    3    3    0    0  0.24495511135E+01 -0.10495199645E+02 -0.27820286987E+01  0.11130552555E+02  0.51100000000E-03 0.  1.
        -12    1    3    3    0    0  0.23911525222E+02 -0.10779217819E+02 -0.54741846758E+01  0.26794015621E+02  0.00000000000E+00 0.  1.
</event>
<event>
 7    1  0.5642630E-013  0.5052884E+02  0.7816164E-02  0.1300439E+00
        -11   -1    0    0    0    0  0.00000000000E+00  0.00000000000E+00  0.45593999997E+02  0.45594000000E+02  0.51100000000E-03 0. -1.
         11   -1    0    0    0    0 -0.00000000000E+00 -0.00000000000E+00 -0.45593999997E+02  0.45594000000E+02  0.51100000000E-03 0.  1.
    9900012    2    1    2    0    0 -0.86728570933E+01  0.18307201469E+02 -0.35253296754E+02  0.50528843494E+02  0.29999950283E+02 0.  0.
         12    1    1    2    0    0  0.86728570933E+01 -0.18307201469E+02  0.35253296754E+02  0.40659156506E+02  0.00000000000E+00 0. -1.
         11    1    3    3    0    0  0.99782078394E+00  0.10341374140E+02 -0.56667720754E+01  0.11834355557E+02  0.51100000000E-03 0. -1.
        -11    1    3    3    0    0 -0.35281802144E+01 -0.44866245290E+01  0.32539444625E+00  0.57169692230E+01  0.51100000000E-03 0.  1.
        -12    1    3    3    0    0 -0.61424976628E+01  0.12452451858E+02 -0.29911919125E+02  0.32977518714E+02  0.00000000000E+00 0.  1.
</event>
<event>
 7    1  0.5642630E-013  0.5052885E+02  0.7816164E-02  0.1300439E+00
        -11   -1    0    0    0    0  0.00000000000E+00  0.00000000000E+00  0.45593999997E+02  0.45594000000E+02  0.51100000000E-03 0. -1.
         11   -1    0    0    0    0 -0.00000000000E+00 -0.00000000000E+00 -0.45593999997E+02  0.45594000000E+02  0.51100000000E-03 0.  1.
    9900012    2    1    2    0    0  0.38435142578E+02 -0.27457369423E+01  0.12975627735E+02  0.50528853778E+02  0.29999981545E+02 0.  0.
         12    1    1    2    0    0 -0.38435142578E+02  0.27457369423E+01 -0.12975627735E+02  0.40659146222E+02  0.00000000000E+00 0. -1.
         11    1    3    3    0    0  0.53849911242E+00 -0.21978098868E+01  0.40120492982E+01  0.46061794825E+01  0.51100000000E-03 0. -1.
        -11    1    3    3    0    0  0.56134317247E+00 -0.50602687608E+01 -0.36413551298E+01  0.62594643166E+01  0.51100000000E-03 0.  1.
        -12    1    3    3    0    0  0.37335300293E+02  0.45123417053E+01  0.12604933566E+02  0.39663209979E+02  0.00000000000E+00 0.  1.
</event>
<event>
 7    1  0.5642630E-013  0.5052886E+02  0.7816164E-02  0.1300439E+00
        -11   -1    0    0    0    0  0.00000000000E+00  0.00000000000E+00  0.45593999997E+02  0.45594000000E+02  0.51100000000E-03 0. -1.
         11   -1    0    0    0    0 -0.00000000000E+00 -0.00000000000E+00 -0.45593999997E+02  0.45594000000E+02  0.51100000000E-03 0.  1.
    9900012    2    1    2    0    0  0.36191213352E+02  0.21678245834E+01 -0.18402779730E+02  0.50528859710E+02  0.29999999575E+02 0.  0.
         12    1    1    2    0    0 -0.36191213352E+02 -0.21678245834E+01  0.18402779730E+02  0.40659140290E+02  0.00000000000E+00 0. -1.
         11    1    3    3    0    0  0.29085238246E+02 -0.12694480690E+01 -0.43770268212E+01  0.29440124767E+02  0.51100000000E-03 0. -1.
        -11    1    3    3    0    0  0.52899231561E+01 -0.43985992108E+01 -0.31626961495E+01  0.75718960116E+01  0.51100000000E-03 0.  1.
         12    1    3    3    0    0  0.18160519497E+01  0.78358718633E+01 -0.10863056760E+02  0.13516838932E+02  0.00000000000E+00 0. -1.
</event>
<event>
 7    1  0.5642630E-013  0.5052886E+02  0.7816164E-02  0.1300439E+00
        -11   -1    0    0    0    0  0.00000000000E+00  0.00000000000E+00  0.45593999997E+02  0.45594000000E+02  0.51100000000E-03 0.  1.
         11   -1    0    0    0    0 -0.00000000000E+00 -0.00000000000E+00 -0.45593999997E+02  0.45594000000E+02  0.51100000000E-03 0. -1.
    9900012    2    1    2    0    0  0.29787278092E+02 -0.21003878702E+02  0.18020015205E+02  0.50528858289E+02  0.29999995256E+02 0.  0.
         12    1    1    2    0    0 -0.29787278092E+02  0.21003878702E+02 -0.18020015205E+02  0.40659141711E+02  0.00000000000E+00 0. -1.
         11    1    3    3    0    0  0.53683548906E+01 -0.19989981323E+02  0.60008540939E+01  0.21550611073E+02  0.51100000000E-03 0. -1.
        -11    1    3    3    0    0  0.17249954819E+01 -0.26929833557E+01  0.33376053540E+01  0.46224861846E+01  0.51100000000E-03 0.  1.
        -12    1    3    3    0    0  0.22693927720E+02  0.16790859767E+01  0.86815557570E+01  0.24355761032E+02  0.00000000000E+00 0.  1.
</event>
<event>
 7    1  0.5642630E-013  0.5052887E+02  0.7816164E-02  0.1300439E+00
        -11   -1    0    0    0    0  0.00000000000E+00  0.00000000000E+00  0.45593999997E+02  0.45594000000E+02  0.51100000000E-03 0.  1.
         11   -1    0    0    0    0 -0.00000000000E+00 -0.00000000000E+00 -0.45593999997E+02  0.45594000000E+02  0.51100000000E-03 0. -1.
    9900012    2    1    2    0    0  0.38672950264E+00  0.24687517498E+02  0.32303893950E+02  0.50528872559E+02  0.30000038631E+02 0.  0.
         12    1    1    2    0    0 -0.38672950264E+00 -0.24687517498E+02 -0.32303893950E+02  0.40659127441E+02  0.00000000000E+00 0. -1.
         11    1    3    3    0    0  0.33695528240E+01  0.15772687859E+01  0.10969767308E+02  0.11583499390E+02  0.51100000000E-03 0. -1.
        -11    1    3    3    0    0 -0.79863987850E+01  0.15577603399E+02  0.23825745095E+02  0.29565358492E+02  0.51100000000E-03 0.  1.
         12    1    3    3    0    0  0.50035754636E+01  0.75326453131E+01 -0.24916184525E+01  0.93800146773E+01  0.00000000000E+00 0. -1.
</event>
<event>
 7    1  0.5642630E-013  0.5052887E+02  0.7816164E-02  0.1300439E+00
        -11   -1    0    0    0    0  0.00000000000E+00  0.00000000000E+00  0.45593999997E+02  0.45594000000E+02  0.51100000000E-03 0. -1.
         11   -1    0    0    0    0 -0.00000000000E+00 -0.00000000000E+00 -0.45593999997E+02  0.45594000000E+02  0.51100000000E-03 0.  1.
    9900012    2    1    2    0    0  0.34464928638E+02 -0.83873548635E+01 -0.19874253674E+02  0.50528868347E+02  0.30000025829E+02 0.  0.
         12    1    1    2    0    0 -0.34464928638E+02  0.83873548635E+01  0.19874253674E+02  0.40659131653E+02  0.00000000000E+00 0. -1.
         11    1    3    3    0    0 -0.15717997265E+01  0.31470116918E+00 -0.62889282315E+01  0.64900084567E+01  0.51100000000E-03 0. -1.
        -11    1    3    3    0    0  0.10555426509E+02  0.41713684297E+01 -0.10255357743E+02  0.15296722069E+02  0.51100000000E-03 0.  1.
        -12    1    3    3    0    0  0.25481301856E+02 -0.12873424462E+02 -0.33299676991E+01  0.28742137821E+02  0.00000000000E+00 0.  1.
</event>
<event>
 7    1  0.5642630E-013  0.5052885E+02  0.7816164E-02  0.1300439E+00
        -11   -1    0    0    0    0  0.00000000000E+00  0.00000000000E+00  0.45593999997E+02  0.45594000000E+02  0.51100000000E-03 0.  1.
         11   -1    0    0    0    0 -0.00000000000E+00 -0.00000000000E+00 -0.45593999997E+02  0.45594000000E+02  0.51100000000E-03 0. -1.
    9900012    2    1    2    0    0  0.18190801686E+02  0.20720797405E+02 -0.29881599405E+02  0.50528847352E+02  0.29999962011E+02 0.  0.
         12    1    1    2    0    0 -0.18190801686E+02 -0.20720797405E+02  0.29881599405E+02  0.40659152648E+02  0.00000000000E+00 0. -1.
         11    1    3    3    0    0  0.24748255921E+00  0.41637854486E+01 -0.36858255231E+01  0.55662974163E+01  0.51100000000E-03 0. -1.
        -11    1    3    3    0    0  0.44396609190E+01  0.17944111006E+02 -0.25333321927E+02  0.31360467296E+02  0.51100000000E-03 0.  1.
        -12    1    3    3    0    0  0.13503658208E+02 -0.13870990505E+01 -0.86245195441E+00  0.13602082640E+02  0.00000000000E+00 0.  1.
</event>
<event>
 7    1  0.5642630E-013  0.5052886E+02  0.7816164E-02  0.1300439E+00
        -11   -1    0    0    0    0  0.00000000000E+00  0.00000000000E+00  0.45593999997E+02  0.45594000000E+02  0.51100000000E-03 0. -1.
         11   -1    0    0    0    0 -0.00000000000E+00 -0.00000000000E+00 -0.45593999997E+02  0.45594000000E+02  0.51100000000E-03 0.  1.
    9900012    2    1    2    0    0  0.32390591876E+02 -0.22317723564E+02  0.10292449438E+02  0.50528859053E+02  0.29999997576E+02 0.  0.
         12    1    1    2    0    0 -0.32390591876E+02  0.22317723564E+02 -0.10292449438E+02  0.40659140947E+02  0.00000000000E+00 0. -1.
         11    1    3    3    0    0  0.18550066517E+02 -0.11550478829E+02  0.13036960291E+02  0.25445645263E+02  0.51100000000E-03 0. -1.
        -11    1    3    3    0    0  0.10678614579E+02 -0.78506416731E+00  0.52346868162E+01  0.11918518423E+02  0.51100000000E-03 0.  1.
        -12    1    3    3    0    0  0.31619107799E+01 -0.99821805684E+01 -0.79791976686E+01  0.13164695367E+02  0.00000000000E+00 0.  1.
</event>
<event>
 7    1  0.5642630E-013  0.5052886E+02  0.7816164E-02  0.1300439E+00
        -11   -1    0    0    0    0  0.00000000000E+00  0.00000000000E+00  0.45593999997E+02  0.45594000000E+02  0.51100000000E-03 0.  1.
         11   -1    0    0    0    0 -0.00000000000E+00 -0.00000000000E+00 -0.45593999997E+02  0.45594000000E+02  0.51100000000E-03 0. -1.
    9900012    2    1    2    0    0  0.33290289909E+02 -0.23315819128E+02 -0.11379019124E+01  0.50528860258E+02  0.30000001239E+02 0.  0.
         12    1    1    2    0    0 -0.33290289909E+02  0.23315819128E+02  0.11379019124E+01  0.40659139742E+02  0.00000000000E+00 0. -1.
         11    1    3    3    0    0  0.17525722117E+02 -0.13444349137E+02  0.55653416960E+01  0.22778816648E+02  0.51100000000E-03 0. -1.
        -11    1    3    3    0    0  0.67126811948E+01 -0.12865784024E+02  0.22331187791E+01  0.14682483003E+02  0.51100000000E-03 0.  1.
        -12    1    3    3    0    0  0.90518865972E+01  0.29943140329E+01 -0.89363623875E+01  0.13067560607E+02  0.00000000000E+00 0.  1.
</event>
<event>
 7    1  0.5642630E-013  0.5052886E+02  0.7816164E-02  0.1300439E+00
        -11   -1    0    0    0    0  0.00000000000E+00  0.00000000000E+00  0.45593999997E+02  0.45594000000E+02  0.51100000000E-03 0.  1.
         11   -1    0    0    0    0 -0.00000000000E+00 -0.00000000000E+00 -0.45593999997E+02  0.45594000000E+02  0.51100000000E-03 0. -1.
    9900012    2    1    2    0    0 -0.29235169171E+02  0.21780272800E+02  0.18002499062E+02  0.50528863608E+02  0.30000011423E+02 0.  0.
         12    1    1    2    0    0  0.29235169171E+02 -0.21780272800E+02 -0.18002499062E+02  0.40659136392E+02  0.00000000000E+00 0. -1.
         11    1    3    3    0    0 -0.18477964002E+02  0.99075845487E+01  0.60097242433E+01  0.21810826921E+02  0.51100000000E-03 0. -1.
        -11    1    3    3    0    0 -0.13010717281E+02 -0.22397380097E+00  0.26783919946E+01  0.13285432336E+02  0.51100000000E-03 0.  1.
         12    1    3    3    0    0  0.22535121121E+01  0.12096662052E+02  0.93143828243E+01  0.15432604350E+02  0.00000000000E+00 0. -1.
</event>
<event>
 7    1  0.5642630E-013  0.5052886E+02  0.7816164E-02  0.1300439E+00
        -11   -1    0    0    0    0  0.00000000000E+00  0.00000000000E+00  0.45593999997E+02  0.45594000000E+02  0.51100000000E-03 0.  1.
         11   -1    0    0    0    0 -0.00000000000E+00 -0.00000000000E+00 -0.45593999997E+02  0.45594000000E+02  0.51100000000E-03 0. -1.
    9900012    2    1    2    0    0 -0.15881108428E+02 -0.34177781146E+02  0.15258941044E+02  0.50528860674E+02  0.30000002504E+02 0.  0.
         12    1    1    2    0    0  0.15881108428E+02  0.34177781146E+02 -0.15258941044E+02  0.40659139326E+02  0.00000000000E+00 0. -1.
         11    1    3    3    0    0  0.38245395916E+01  0.31363977699E+01  0.17961047825E+01  0.52621370858E+01  0.51100000000E-03 0. -1.
        -11    1    3    3    0    0 -0.81860109360E+01 -0.20936273464E+02  0.30137229767E+01  0.22680847604E+02  0.51100000000E-03 0.  1.
        -12    1    3    3    0    0 -0.11519637084E+02 -0.16377905451E+02  0.10449113285E+02  0.22585875984E+02  0.00000000000E+00 0.  1.
</event>
<event>
 7    1  0.5642630E-013  0.5052888E+02  0.7816164E-02  0.1300439E+00
        -11   -1    0    0    0    0  0.00000000000E+00  0.00000000000E+00  0.45593999997E+02  0.45594000000E+02  0.51100000000E-03 0.  1.
         11   -1    0    0    0    0 -0.00000000000E+00 -0.00000000000E+00 -0.45593999997E+02  0.45594000000E+02  0.51100000000E-03 0. -1.
    9900012    2    1    2    0    0  0.17442756538E+02 -0.10396580655E+02  0.35225347718E+02  0.50528883349E+02  0.30000071429E+02 0.  0.
         12    1    1    2    0    0 -0.17442756538E+02  0.10396580655E+02 -0.35225347718E+02  0.40659116651E+02  0.00000000000E+00 0. -1.
         11    1    3    3    0    0  0.78170901921E+01 -0.67228795813E+01  0.14207827760E+02  0.17554668293E+02  0.51100000000E-03 0. -1.
        -11    1    3    3    0    0  0.10114674040E+02 -0.11959222959E+02  0.81353482007E+01  0.17649746041E+02  0.51100000000E-03 0.  1.
         12    1    3    3    0    0 -0.48900769386E+00  0.82855218852E+01  0.12882171757E+02  0.15324469015E+02  0.00000000000E+00 0. -1.
</event>
<event>
 7    1  0.5642630E-013  0.5052886E+02  0.7816164E-02  0.1300439E+00
        -11   -1    0    0    0    0  0.00000000000E+00  0.00000000000E+00  0.45593999997E+02  0.45594000000E+02  0.51100000000E-03 0.  1.
         11   -1    0    0    0    0 -0.00000000000E+00 -0.00000000000E+00 -0.45593999997E+02  0.45594000000E+02  0.51100000000E-03 0. -1.
    9900012    2    1    2    0    0  0.24019609188E+02  0.25399404994E+02  0.20762810278E+02  0.50528859696E+02  0.29999999532E+02 0.  0.
         12    1    1    2    0    0 -0.24019609188E+02 -0.25399404994E+02 -0.20762810278E+02  0.40659140304E+02  0.00000000000E+00 0. -1.
         11    1    3    3    0    0  0.19359155004E+01 -0.19951426339E+01  0.42370296114E+00  0.28120966226E+01  0.51100000000E-03 0. -1.
        -11    1    3    3    0    0 -0.12015477628E+01  0.58309267265E+01 -0.44613306902E+01  0.74395494020E+01  0.51100000000E-03 0.  1.
        -12    1    3    3    0    0  0.23285241451E+02  0.21563620901E+02  0.24800438007E+02  0.40277213672E+02  0.00000000000E+00 0.  1.
</event>
<event>
 7    1  0.5642630E-013  0.5052885E+02  0.7816164E-02  0.1300439E+00
        -11   -1    0    0    0    0  0.00000000000E+00  0.00000000000E+00  0.45593999997E+02  0.45594000000E+02  0.51100000000E-03 0.  1.
         11   -1    0    0    0    0 -0.00000000000E+00 -0.00000000000E+00 -0.45593999997E+02  0.45594000000E+02  0.51100000000E-03 0. -1.
    9900012    2    1    2    0    0 -0.17911280929E+02 -0.20568358571E+02  0.30154522866E+02  0.50528848409E+02  0.29999965224E+02 0.  0.
         12    1    1    2    0    0  0.17911280929E+02  0.20568358571E+02 -0.30154522866E+02  0.40659151591E+02  0.00000000000E+00 0. -1.
         11    1    3    3    0    0  0.84667525268E+00 -0.92818850755E+00 -0.16851698399E+00  0.12675926491E+01  0.51100000000E-03 0. -1.
        -11    1    3    3    0    0 -0.57716695667E+01  0.70250623017E+01  0.58798090082E+01  0.10827549315E+02  0.51100000000E-03 0.  1.
         12    1    3    3    0    0 -0.12986286615E+02 -0.26665232365E+02  0.24443230842E+02  0.38433706445E+02  0.00000000000E+00 0. -1.
</event>
<event>
 7    1  0.5642630E-013  0.5052886E+02  0.7816164E-02  0.1300439E+00
        -11   -1    0    0    0    0  0.00000000000E+00  0.00000000000E+00  0.45593999997E+02  0.45594000000E+02  0.51100000000E-03 0. -1.
         11   -1    0    0    0    0 -0.00000000000E+00 -0.00000000000E+00 -0.45593999997E+02  0.45594000000E+02  0.51100000000E-03 0.  1.
    9900012    2    1    2    0    0 -0.23666963246E+02  0.32155812227E+02 -0.76840498251E+01  0.50528855505E+02  0.29999986794E+02 0.  0.
         12    1    1    2    0    0  0.23666963246E+02 -0.32155812227E+02  0.76840498251E+01  0.40659144495E+02  0.00000000000E+00 0. -1.
         11    1    3    3    0    0 -0.89480496803E+01  0.23329112481E+01  0.82348751349E+01  0.12382376053E+02  0.51100000000E-03 0. -1.
        -11    1    3    3    0    0  0.74968846800E-01 -0.36587973766E-01 -0.20508611093E+01  0.20525570781E+01  0.51100000000E-03 0.  1.
        -12    1    3    3    0    0 -0.14793882413E+02  0.29859488953E+02 -0.13868063851E+02  0.36093922374E+02  0.00000000000E+00 0.  1.
</event>
<event>
 7    1  0.5642630E-013  0.5052886E+02  0.7816164E-02  0.1300439E+00
        -11   -1    0    0    0    0  0.00000000000E+00  0.00000000000E+00  0.45593999997E+02  0.45594000000E+02  0.51100000000E-03 0.  1.
         11   -1    0    0    0    0 -0.00000000000E+00 -0.00000000000E+00 -0.45593999997E+02  0.45594000000E+02  0.51100000000E-03 0. -1.
    9900012    2    1    2    0    0 -0.24183917457E+02 -0.19722277596E+02  0.26064062478E+02  0.50528862650E+02  0.30000008512E+02 0.  0.
         12    1    1    2    0    0  0.24183917457E+02  0.19722277596E+02 -0.26064062478E+02  0.40659137350E+02  0.00000000000E+00 0. -1.
         11    1    3    3    0    0 -0.78149399710E+01 -0.10171362929E+02  0.27054367993E+01  0.13109130372E+02  0.51100000000E-03 0.  1.
        -11    1    3    3    0    0 -0.86840114105E+00  0.56872564004E+01  0.11005009176E+02  0.12418101027E+02  0.51100000000E-03 0. -1.
         12    1    3    3    0    0 -0.15500576345E+02 -0.15238171067E+02  0.12353616504E+02  0.25001631251E+02  0.00000000000E+00 0. -1.
</event>
<event>
 7    1  0.5642630E-013  0.5052886E+02  0.7816164E-02  0.1300439E+00
        -11   -1    0    0    0    0  0.00000000000E+00  0.00000000000E+00  0.45593999997E+02  0.45594000000E+02  0.51100000000E-03 0.  1.
         11   -1    0    0    0    0 -0.00000000000E+00 -0.00000000000E+00 -0.45593999997E+02  0.45594000000E+02  0.51100000000E-03 0. -1.
    9900012    2    1    2    0    0 -0.28831101284E+02  0.44758181199E+01  0.28317840382E+02  0.50528862859E+02  0.30000009147E+02 0.  0.
         12    1    1    2    0    0  0.28831101284E+02 -0.44758181199E+01 -0.28317840382E+02  0.40659137141E+02  0.00000000000E+00 0. -1.
         11    1    3    3    0    0 -0.10744621706E+02 -0.57443180329E+00  0.11490049660E+02  0.15741604395E+02  0.51100000000E-03 0. -1.
        -11    1    3    3    0    0 -0.11886648940E+02  0.56784240524E+01  0.22686652433E+02  0.26233968850E+02  0.51100000000E-03 0.  1.
         12    1    3    3    0    0 -0.61998306383E+01 -0.62817412922E+00 -0.58588617102E+01  0.85532896140E+01  0.00000000000E+00 0. -1.
</event>
<event>
 7    1  0.5642630E-013  0.5052886E+02  0.7816164E-02  0.1300439E+00
        -11   -1    0    0    0    0  0.00000000000E+00  0.00000000000E+00  0.45593999997E+02  0.45594000000E+02  0.51100000000E-03 0.  1.
         11   -1    0    0    0    0 -0.00000000000E+00 -0.00000000000E+00 -0.45593999997E+02  0.45594000000E+02  0.51100000000E-03 0. -1.
    9900012    2    1    2    0    0  0.29153113987E+02 -0.17205860266E+02  0.22521548644E+02  0.50528857904E+02  0.29999994085E+02 0.  0.
         12    1    1    2    0    0 -0.29153113987E+02  0.17205860266E+02 -0.22521548644E+02  0.40659142096E+02  0.00000000000E+00 0. -1.
         11    1    3    3    0    0  0.52703240472E+01 -0.45233824997E+01 -0.14747966717E+01  0.71001641027E+01  0.51100000000E-03 0. -1.
        -11    1    3    3    0    0  0.17849278316E+02 -0.11130368881E+02  0.26616240168E+01  0.21202973624E+02  0.51100000000E-03 0.  1.
        -12    1    3    3    0    0  0.60335116239E+01 -0.15521088862E+01  0.21334721299E+02  0.22225720178E+02  0.00000000000E+00 0.  1.
</event>
<event>
 7    1  0.5642630E-013  0.5052886E+02  0.7816164E-02  0.1300439E+00
        -11   -1    0    0    0    0  0.00000000000E+00  0.00000000000E+00  0.45593999997E+02  0.45594000000E+02  0.51100000000E-03 0. -1.
         11   -1    0    0    0    0 -0.00000000000E+00 -0.00000000000E+00 -0.45593999997E+02  0.45594000000E+02  0.51100000000E-03 0.  1.
    9900012    2    1    2    0    0  0.22048040544E+02  0.44267573110E+01 -0.33874077958E+02  0.50528862901E+02  0.30000009275E+02 0.  0.
         12    1    1    2    0    0 -0.22048040544E+02 -0.44267573110E+01  0.33874077958E+02  0.40659137099E+02  0.00000000000E+00 0. -1.
         11    1    3    3    0    0  0.12139617387E+01  0.30184788338E+01  0.17116943023E+01  0.36762501572E+01  0.51100000000E-03 0. -1.
        -11    1    3    3    0    0  0.48157777197E+01 -0.95336103793E+00  0.24699840541E+01  0.54955831177E+01  0.51100000000E-03 0.  1.
        -12    1    3    3    0    0  0.16018301085E+02  0.23616395152E+01 -0.38055756314E+02  0.41357029626E+02  0.00000000000E+00 0.  1.
</event>
<event>
 7    1  0.5642630E-013  0.5052886E+02  0.7816164E-02  0.1300439E+00
        -11   -1    0    0    0    0  0.00000000000E+00  0.00000000000E+00  0.45593999997E+02  0.45594000000E+02  0.51100000000E-03 0. -1.
         11   -1    0    0    0    0 -0.00000000000E+00 -0.00000000000E+00 -0.45593999997E+02  0.45594000000E+02  0.51100000000E-03 0.  1.
    9900012    2    1    2    0    0  0.24853755920E+02  0.30516996143E+02 -0.10206342402E+02  0.50528860042E+02  0.30000000584E+02 0.  0.
         12    1    1    2    0    0 -0.24853755920E+02 -0.30516996143E+02  0.10206342402E+02  0.40659139958E+02  0.00000000000E+00 0. -1.
         11    1    3    3    0    0  0.47479722155E+01  0.14702664233E-01 -0.45834392354E+01  0.65993463171E+01  0.51100000000E-03 0. -1.
        -11    1    3    3    0    0  0.97296940168E+01 -0.52139418652E+00  0.28221765307E+01  0.10144135162E+02  0.51100000000E-03 0.  1.
         12    1    3    3    0    0  0.10376089688E+02  0.31023687665E+02 -0.84450796970E+01  0.33785378563E+02  0.00000000000E+00 0. -1.
</event>
<event>
 7    1  0.5642630E-013  0.5052887E+02  0.7816164E-02  0.1300439E+00
        -11   -1    0    0    0    0  0.00000000000E+00  0.00000000000E+00  0.45593999997E+02  0.45594000000E+02  0.51100000000E-03 0.  1.
         11   -1    0    0    0    0 -0.00000000000E+00 -0.00000000000E+00 -0.45593999997E+02  0.45594000000E+02  0.51100000000E-03 0. -1.
    9900012    2    1    2    0    0 -0.13005645381E+02 -0.25466779490E+02  0.28904343856E+02  0.50528871097E+02  0.30000034188E+02 0.  0.
         12    1    1    2    0    0  0.13005645381E+02  0.25466779490E+02 -0.28904343856E+02  0.40659128903E+02  0.00000000000E+00 0. -1.
         11    1    3    3    0    0 -0.83971742167E+01 -0.12450289959E+02  0.14451380075E+01  0.15086771656E+02  0.51100000000E-03 0. -1.
        -11    1    3    3    0    0 -0.10619899295E+02 -0.12266802122E+02  0.18257392630E+02  0.24425173106E+02  0.51100000000E-03 0.  1.
        -12    1    3    3    0    0  0.60114281302E+01 -0.74968740924E+00  0.92018132187E+01  0.11016926336E+02  0.00000000000E+00 0.  1.
</event>
<event>
 7    1  0.5754772E-013  0.5052887E+02  0.7816164E-02  0.1300439E+00
        -11   -1    0    0    0    0  0.00000000000E+00  0.00000000000E+00  0.45593999997E+02  0.45594000000E+02  0.51100000000E-03 0. -1.
         11   -1    0    0    0    0 -0.00000000000E+00 -0.00000000000E+00 -0.45593999997E+02  0.45594000000E+02  0.51100000000E-03 0.  1.
    9900012    2    1    2    0    0 -0.17409796480E+02  0.65230372783E+01 -0.36159559832E+02  0.50528870692E+02  0.30000032957E+02 0.  0.
         12    1    1    2    0    0  0.17409796480E+02 -0.65230372783E+01  0.36159559832E+02  0.40659129308E+02  0.00000000000E+00 0. -1.
         11    1    3    3    0    0 -0.50176053584E+01 -0.26682698627E+01  0.26400563436E+01  0.62662528955E+01  0.51100000000E-03 0. -1.
        -11    1    3    3    0    0 -0.13723583243E+02  0.29077954417E+01 -0.20266000214E+02  0.24647571407E+02  0.51100000000E-03 0.  1.
        -12    1    3    3    0    0  0.13313921208E+01  0.62835116993E+01 -0.18533615962E+02  0.19615046390E+02  0.00000000000E+00 0.  1.
</event>
<event>
 7    1  0.5642630E-013  0.5052888E+02  0.7816164E-02  0.1300439E+00
        -11   -1    0    0    0    0  0.00000000000E+00  0.00000000000E+00  0.45593999997E+02  0.45594000000E+02  0.51100000000E-03 0. -1.
         11   -1    0    0    0    0 -0.00000000000E+00 -0.00000000000E+00 -0.45593999997E+02  0.45594000000E+02  0.51100000000E-03 0.  1.
    9900012    2    1    2    0    0 -0.31745961735E+02  0.22498635394E+02 -0.11797004187E+02  0.50528880618E+02  0.30000063128E+02 0.  0.
         12    1    1    2    0    0  0.31745961735E+02 -0.22498635394E+02  0.11797004187E+02  0.40659119382E+02  0.00000000000E+00 0. -1.
         11    1    3    3    0    0 -0.14737487191E+02  0.22660709408E+01 -0.13248518364E+02  0.19946223836E+02  0.51100000000E-03 0. -1.
        -11    1    3    3    0    0 -0.83346762158E+01  0.12537947774E+01 -0.35163027353E+01  0.91325360198E+01  0.51100000000E-03 0.  1.
         12    1    3    3    0    0 -0.86737983286E+01  0.18978769676E+02  0.49678169126E+01  0.21450120763E+02  0.00000000000E+00 0. -1.
</event>
<event>
 7    1  0.5642630E-013  0.5052885E+02  0.7816164E-02  0.1300439E+00
        -11   -1    0    0    0    0  0.00000000000E+00  0.00000000000E+00  0.45593999997E+02  0.45594000000E+02  0.51100000000E-03 0.  1.
         11   -1    0    0    0    0 -0.00000000000E+00 -0.00000000000E+00 -0.45593999997E+02  0.45594000000E+02  0.51100000000E-03 0. -1.
    9900012    2    1    2    0    0 -0.56944934629E+01 -0.34181770609E+02 -0.21268423878E+02  0.50528849099E+02  0.29999967320E+02 0.  0.
         12    1    1    2    0    0  0.56944934629E+01  0.34181770609E+02  0.21268423878E+02  0.40659150901E+02  0.00000000000E+00 0. -1.
         11    1    3    3    0    0  0.22163355260E+01  0.26166172512E-01 -0.39240797885E+01  0.45067982294E+01  0.51100000000E-03 0. -1.
        -11    1    3    3    0    0  0.68858789166E+01 -0.10931525453E+02 -0.12579450217E+02  0.18032086546E+02  0.51100000000E-03 0.  1.
         12    1    3    3    0    0 -0.14796707905E+02 -0.23276411329E+02 -0.47648938719E+01  0.27989964323E+02  0.00000000000E+00 0. -1.
</event>
<event>
 7    1  0.5642630E-013  0.5052887E+02  0.7816164E-02  0.1300439E+00
        -11   -1    0    0    0    0  0.00000000000E+00  0.00000000000E+00  0.45593999997E+02  0.45594000000E+02  0.51100000000E-03 0.  1.
         11   -1    0    0    0    0 -0.00000000000E+00 -0.00000000000E+00 -0.45593999997E+02  0.45594000000E+02  0.51100000000E-03 0. -1.
    9900012    2    1    2    0    0  0.31427946092E+02  0.15700165457E+02  0.20468357334E+02  0.50528872576E+02  0.30000038681E+02 0.  0.
         12    1    1    2    0    0 -0.31427946092E+02 -0.15700165457E+02 -0.20468357334E+02  0.40659127424E+02  0.00000000000E+00 0. -1.
         11    1    3    3    0    0  0.18311259818E+01 -0.16209646869E+01  0.82319252022E+01  0.85874991513E+01  0.51100000000E-03 0. -1.
        -11    1    3    3    0    0  0.53301738842E+01 -0.38475026516E+01  0.64763797586E+01  0.92280835133E+01  0.51100000000E-03 0.  1.
        -12    1    3    3    0    0  0.24266646226E+02  0.21168632795E+02  0.57600523737E+01  0.32713289911E+02  0.00000000000E+00 0.  1.
</event>
<event>
 7    1  0.5642630E-013  0.5052885E+02  0.7816164E-02  0.1300439E+00
        -11   -1    0    0    0    0  0.00000000000E+00  0.00000000000E+00  0.45593999997E+02  0.45594000000E+02  0.51100000000E-03 0.  1.
         11   -1    0    0    0    0 -0.00000000000E+00 -0.00000000000E+00 -0.45593999997E+02  0.45594000000E+02  0.51100000000E-03 0. -1.
    9900012    2    1    2    0    0  0.21965122707E+02 -0.33689861952E+02  0.59743511541E+01  0.50528852375E+02  0.29999977279E+02 0.  0.
         12    1    1    2    0    0 -0.21965122707E+02  0.33689861952E+02 -0.59743511541E+01  0.40659147625E+02  0.00000000000E+00 0. -1.
         11    1    3    3    0    0  0.39632689759E+01 -0.78783424063E+01  0.13343407112E+02  0.15994445713E+02  0.51100000000E-03 0. -1.
        -11    1    3    3    0    0  0.14306403401E+00 -0.16695224222E+01  0.24254174225E+01  0.29479522334E+01  0.51100000000E-03 0.  1.
        -12    1    3    3    0    0  0.17858789697E+02 -0.24141997124E+02 -0.97944733805E+01  0.31586454428E+02  0.00000000000E+00 0.  1.
</event>
<event>
 7    1  0.5642630E-013  0.5052886E+02  0.7816164E-02  0.1300439E+00
        -11   -1    0    0    0    0  0.00000000000E+00  0.00000000000E+00  0.45593999997E+02  0.45594000000E+02  0.51100000000E-03 0.  1.
         11   -1    0    0    0    0 -0.00000000000E+00 -0.00000000000E+00 -0.45593999997E+02  0.45594000000E+02  0.51100000000E-03 0. -1.
    9900012    2    1    2    0    0 -0.33188556479E+00 -0.30503767785E+02  0.26880769029E+02  0.50528859076E+02  0.29999997648E+02 0.  0.
         12    1    1    2    0    0  0.33188556479E+00  0.30503767785E+02 -0.26880769029E+02  0.40659140924E+02  0.00000000000E+00 0. -1.
         11    1    3    3    0    0  0.26250600041E+01 -0.14910671548E+02  0.77819748519E+01  0.17022872816E+02  0.51100000000E-03 0.  1.
        -11    1    3    3    0    0 -0.10255385240E+02 -0.12843285126E+02  0.19732953354E+02  0.25680972482E+02  0.51100000000E-03 0. -1.
         12    1    3    3    0    0  0.72984396712E+01 -0.27498111101E+01 -0.63415917745E+00  0.78250137788E+01  0.00000000000E+00 0. -1.
</event>
<event>
 7    1  0.5642630E-013  0.5052886E+02  0.7816164E-02  0.1300439E+00
        -11   -1    0    0    0    0  0.00000000000E+00  0.00000000000E+00  0.45593999997E+02  0.45594000000E+02  0.51100000000E-03 0. -1.
         11   -1    0    0    0    0 -0.00000000000E+00 -0.00000000000E+00 -0.45593999997E+02  0.45594000000E+02  0.51100000000E-03 0.  1.
    9900012    2    1    2    0    0  0.37362070328E+02  0.98245727060E+01 -0.12677491859E+02  0.50528864152E+02  0.30000013076E+02 0.  0.
         12    1    1    2    0    0 -0.37362070328E+02 -0.98245727060E+01  0.12677491859E+02  0.40659135848E+02  0.00000000000E+00 0. -1.
         11    1    3    3    0    0  0.79233342580E+01  0.10152739028E+02 -0.14004468193E+02  0.19025836780E+02  0.51100000000E-03 0. -1.
        -11    1    3    3    0    0  0.69016238444E+01  0.45990536765E+01 -0.81930702295E+00  0.83339648828E+01  0.51100000000E-03 0.  1.
        -12    1    3    3    0    0  0.22537112226E+02 -0.49272199980E+01  0.21462833574E+01  0.23169062489E+02  0.00000000000E+00 0.  1.
</event>
<event>
 7    1  0.5642630E-013  0.5052886E+02  0.7816164E-02  0.1300439E+00
        -11   -1    0    0    0    0  0.00000000000E+00  0.00000000000E+00  0.45593999997E+02  0.45594000000E+02  0.51100000000E-03 0.  1.
         11   -1    0    0    0    0 -0.00000000000E+00 -0.00000000000E+00 -0.45593999997E+02  0.45594000000E+02  0.51100000000E-03 0. -1.
    9900012    2    1    2    0    0 -0.13249776389E+02  0.10589424158E+02  0.36952311441E+02  0.50528858357E+02  0.29999995461E+02 0.  0.
         12    1    1    2    0    0  0.13249776389E+02 -0.10589424158E+02 -0.36952311441E+02  0.40659141643E+02  0.00000000000E+00 0. -1.
         11    1    3    3    0    0 -0.35096830561E+01  0.78685892716E+00 -0.68465251341E+00  0.36613892788E+01  0.51100000000E-03 0. -1.
        -11    1    3    3    0    0 -0.47929073434E+01 -0.28675835829E+01 -0.12041846749E+01  0.57135853368E+01  0.51100000000E-03 0.  1.
        -12    1    3    3    0    0 -0.49471859895E+01  0.12670148814E+02  0.38841148629E+02  0.41153883741E+02  0.00000000000E+00 0.  1.
</event>
<event>
 7    1  0.5642630E-013  0.5052885E+02  0.7816164E-02  0.1300439E+00
        -11   -1    0    0    0    0  0.00000000000E+00  0.00000000000E+00  0.45593999997E+02  0.45594000000E+02  0.51100000000E-03 0.  1.
         11   -1    0    0    0    0 -0.00000000000E+00 -0.00000000000E+00 -0.45593999997E+02  0.45594000000E+02  0.51100000000E-03 0. -1.
    9900012    2    1    2    0    0  0.10999616381E+02 -0.83338420276E+01  0.38245548539E+02  0.50528850150E+02  0.29999970517E+02 0.  0.
         12    1    1    2    0    0 -0.10999616381E+02  0.83338420276E+01 -0.38245548539E+02  0.40659149850E+02  0.00000000000E+00 0. -1.
         11    1    3    3    0    0  0.32040369459E+01 -0.49460038248E+01  0.21394344172E+00  0.58969974260E+01  0.51100000000E-03 0. -1.
        -11    1    3    3    0    0  0.11689231333E+02  0.77911734517E+00  0.82979708375E+01  0.14356234648E+02  0.51100000000E-03 0.  1.
        -12    1    3    3    0    0 -0.38936518976E+01 -0.41669555480E+01  0.29733634259E+02  0.30275618076E+02  0.00000000000E+00 0.  1.
</event>
<event>
 7    1  0.5642630E-013  0.5052900E+02  0.7816164E-02  0.1300438E+00
        -11   -1    0    0    0    0  0.00000000000E+00  0.00000000000E+00  0.45593999997E+02  0.45594000000E+02  0.51100000000E-03 0.  1.
         11   -1    0    0    0    0 -0.00000000000E+00 -0.00000000000E+00 -0.45593999997E+02  0.45594000000E+02  0.51100000000E-03 0. -1.
    9900012    2    1    2    0    0 -0.36842700900E+02  0.13176322923E+00  0.17197439708E+02  0.50529004640E+02  0.30000440101E+02 0.  0.
         12    1    1    2    0    0  0.36842700900E+02 -0.13176322923E+00 -0.17197439708E+02  0.40658995360E+02  0.00000000000E+00 0. -1.
         11    1    3    3    0    0 -0.15727749332E+02  0.66888464131E+01  0.26611747749E+01  0.17296953976E+02  0.51100000000E-03 0. -1.
        -11    1    3    3    0    0 -0.78175813016E+01 -0.69264353869E+01 -0.33252841132E+01  0.10961186034E+02  0.51100000000E-03 0.  1.
        -12    1    3    3    0    0 -0.13297370266E+02  0.36935220308E+00  0.17861549046E+02  0.22270864631E+02  0.00000000000E+00 0.  1.
</event>
<event>
 7    1  0.5642630E-013  0.5052886E+02  0.7816164E-02  0.1300439E+00
        -11   -1    0    0    0    0  0.00000000000E+00  0.00000000000E+00  0.45593999997E+02  0.45594000000E+02  0.51100000000E-03 0.  1.
         11   -1    0    0    0    0 -0.00000000000E+00 -0.00000000000E+00 -0.45593999997E+02  0.45594000000E+02  0.51100000000E-03 0. -1.
    9900012    2    1    2    0    0  0.20159260620E+02  0.24401827921E+02  0.25520985438E+02  0.50528859670E+02  0.29999999454E+02 0.  0.
         12    1    1    2    0    0 -0.20159260620E+02 -0.24401827921E+02 -0.25520985438E+02  0.40659140330E+02  0.00000000000E+00 0. -1.
         11    1    3    3    0    0  0.17748633313E+01  0.88101667584E+01 -0.10091704066E+01  0.90436498896E+01  0.51100000000E-03 0. -1.
        -11    1    3    3    0    0  0.40475016018E+01  0.15049381109E+02  0.65905935758E+01  0.16920462905E+02  0.51100000000E-03 0.  1.
         12    1    3    3    0    0  0.14336895687E+02  0.54228005352E+00  0.19939562269E+02  0.24564746875E+02  0.00000000000E+00 0. -1.
</event>
<event>
 7    1  0.5642630E-013  0.5052886E+02  0.7816164E-02  0.1300439E+00
        -11   -1    0    0    0    0  0.00000000000E+00  0.00000000000E+00  0.45593999997E+02  0.45594000000E+02  0.51100000000E-03 0.  1.
         11   -1    0    0    0    0 -0.00000000000E+00 -0.00000000000E+00 -0.45593999997E+02  0.45594000000E+02  0.51100000000E-03 0. -1.
    9900012    2    1    2    0    0 -0.14718843260E+02 -0.27964433511E+02  0.25583433984E+02  0.50528856097E+02  0.29999988593E+02 0.  0.
         12    1    1    2    0    0  0.14718843260E+02  0.27964433511E+02 -0.25583433984E+02  0.40659143903E+02  0.00000000000E+00 0. -1.
         11    1    3    3    0    0  0.44669185864E+00 -0.24339917771E+02  0.74930334228E+01  0.25471095007E+02  0.51100000000E-03 0. -1.
        -11    1    3    3    0    0 -0.30914701691E+01 -0.28535003646E+01  0.13806500172E+01  0.44278490115E+01  0.51100000000E-03 0.  1.
        -12    1    3    3    0    0 -0.12074064949E+02 -0.77101537509E+00  0.16709750544E+02  0.20629912078E+02  0.00000000000E+00 0.  1.
</event>
<event>
 7    1  0.5642630E-013  0.5052886E+02  0.7816164E-02  0.1300439E+00
        -11   -1    0    0    0    0  0.00000000000E+00  0.00000000000E+00  0.45593999997E+02  0.45594000000E+02  0.51100000000E-03 0.  1.
         11   -1    0    0    0    0 -0.00000000000E+00 -0.00000000000E+00 -0.45593999997E+02  0.45594000000E+02  0.51100000000E-03 0. -1.
    9900012    2    1    2    0    0 -0.34771487084E+01 -0.33736195692E+02  0.22426413458E+02  0.50528862239E+02  0.30000007261E+02 0.  0.
         12    1    1    2    0    0  0.34771487084E+01  0.33736195692E+02 -0.22426413458E+02  0.40659137761E+02  0.00000000000E+00 0. -1.
         11    1    3    3    0    0  0.82475437891E+00  0.30944530930E+00  0.17239581239E+01  0.19359772879E+01  0.51100000000E-03 0. -1.
        -11    1    3    3    0    0  0.73659740927E+01 -0.30805692125E+01 -0.22811319561E+01  0.83036765514E+01  0.51100000000E-03 0.  1.
         12    1    3    3    0    0 -0.11667877180E+02 -0.30965071788E+02  0.22983587290E+02  0.40289208400E+02  0.00000000000E+00 0. -1.
</event>
<event>
 7    1  0.5642630E-013  0.5052885E+02  0.7816164E-02  0.1300439E+00
        -11   -1    0    0    0    0  0.00000000000E+00  0.00000000000E+00  0.45593999997E+02  0.45594000000E+02  0.51100000000E-03 0.  1.
         11   -1    0    0    0    0 -0.00000000000E+00 -0.00000000000E+00 -0.45593999997E+02  0.45594000000E+02  0.51100000000E-03 0. -1.
    9900012    2    1    2    0    0 -0.10212553072E+02  0.24070496965E+02  0.31136499986E+02  0.50528847331E+02  0.29999961947E+02 0.  0.
         12    1    1    2    0    0  0.10212553072E+02 -0.24070496965E+02 -0.31136499986E+02  0.40659152669E+02  0.00000000000E+00 0. -1.
         11    1    3    3    0    0 -0.59042373924E+01  0.61949095485E+00  0.19072060255E+02  0.19974665726E+02  0.51100000000E-03 0. -1.
        -11    1    3    3    0    0  0.42983385238E+01  0.11669200090E+02  0.97041346292E+01  0.15773908012E+02  0.51100000000E-03 0.  1.
        -12    1    3    3    0    0 -0.86066542035E+01  0.11781805920E+02  0.23603051016E+01  0.14780273593E+02  0.00000000000E+00 0.  1.
</event>
<event>
 7    1  0.5642630E-013  0.5052885E+02  0.7816164E-02  0.1300439E+00
        -11   -1    0    0    0    0  0.00000000000E+00  0.00000000000E+00  0.45593999997E+02  0.45594000000E+02  0.51100000000E-03 0.  1.
         11   -1    0    0    0    0 -0.00000000000E+00 -0.00000000000E+00 -0.45593999997E+02  0.45594000000E+02  0.51100000000E-03 0. -1.
    9900012    2    1    2    0    0  0.34122505898E+02 -0.75213281159E+01  0.20790639099E+02  0.50528850236E+02  0.29999970778E+02 0.  0.
         12    1    1    2    0    0 -0.34122505898E+02  0.75213281159E+01 -0.20790639099E+02  0.40659149764E+02  0.00000000000E+00 0. -1.
         11    1    3    3    0    0  0.22451628051E+01 -0.15688946036E+01  0.13380199903E+02  0.13657669494E+02  0.51100000000E-03 0. -1.
        -11    1    3    3    0    0  0.25115211082E+02 -0.82426157317E+01  0.11292806807E+02  0.28744426028E+02  0.51100000000E-03 0.  1.
         12    1    3    3    0    0  0.67621320106E+01  0.22901822195E+01 -0.38823676114E+01  0.81267547150E+01  0.00000000000E+00 0. -1.
</event>
<event>
 7    1  0.5642630E-013  0.5052886E+02  0.7816164E-02  0.1300439E+00
        -11   -1    0    0    0    0  0.00000000000E+00  0.00000000000E+00  0.45593999997E+02  0.45594000000E+02  0.51100000000E-03 0. -1.
         11   -1    0    0    0    0 -0.00000000000E+00 -0.00000000000E+00 -0.45593999997E+02  0.45594000000E+02  0.51100000000E-03 0.  1.
    9900012    2    1    2    0    0  0.73338525365E+01 -0.27829892640E+02 -0.28720672995E+02  0.50528863576E+02  0.30000011327E+02 0.  0.
         12    1    1    2    0    0 -0.73338525365E+01  0.27829892640E+02  0.28720672995E+02  0.40659136424E+02  0.00000000000E+00 0. -1.
         11    1    3    3    0    0  0.65342699293E+01 -0.98765095736E+01 -0.11213693491E+02  0.16309170636E+02  0.51100000000E-03 0. -1.
        -11    1    3    3    0    0 -0.60749008815E+01 -0.17700025989E+02 -0.19530835854E+02  0.27049009042E+02  0.51100000000E-03 0.  1.
         12    1    3    3    0    0  0.68744834888E+01 -0.25335707762E+00  0.20238563496E+01  0.71706838984E+01  0.00000000000E+00 0. -1.
</event>
<event>
 7    1  0.5642630E-013  0.5052886E+02  0.7816164E-02  0.1300439E+00
        -11   -1    0    0    0    0  0.00000000000E+00  0.00000000000E+00  0.45593999997E+02  0.45594000000E+02  0.51100000000E-03 0.  1.
         11   -1    0    0    0    0 -0.00000000000E+00 -0.00000000000E+00 -0.45593999997E+02  0.45594000000E+02  0.51100000000E-03 0. -1.
    9900012    2    1    2    0    0  0.22666789181E+02 -0.25662683585E+02  0.21927358288E+02  0.50528859551E+02  0.29999999092E+02 0.  0.
         12    1    1    2    0    0 -0.22666789181E+02  0.25662683585E+02 -0.21927358288E+02  0.40659140449E+02  0.00000000000E+00 0. -1.
         11    1    3    3    0    0  0.11486184448E+02 -0.22204791525E+02  0.13662403014E+02  0.28489409546E+02  0.51100000000E-03 0. -1.
        -11    1    3    3    0    0  0.79005751568E+01 -0.25992089638E+01  0.13468010360E+02  0.15829159118E+02  0.51100000000E-03 0.  1.
         12    1    3    3    0    0  0.32800295760E+01 -0.85868309549E+00 -0.52030550868E+01  0.62102908881E+01  0.00000000000E+00 0. -1.
</event>
<event>
 7    1  0.5642630E-013  0.5052886E+02  0.7816164E-02  0.1300439E+00
        -11   -1    0    0    0    0  0.00000000000E+00  0.00000000000E+00  0.45593999997E+02  0.45594000000E+02  0.51100000000E-03 0.  1.
         11   -1    0    0    0    0 -0.00000000000E+00 -0.00000000000E+00 -0.45593999997E+02  0.45594000000E+02  0.51100000000E-03 0. -1.
    9900012    2    1    2    0    0  0.79187311663E+01  0.13570465832E+02  0.37500690090E+02  0.50528860764E+02  0.30000002779E+02 0.  0.
         12    1    1    2    0    0 -0.79187311663E+01 -0.13570465832E+02 -0.37500690090E+02  0.40659139236E+02  0.00000000000E+00 0. -1.
         11    1    3    3    0    0  0.32290681714E+01 -0.54692066116E+01  0.31413588346E+01  0.70857065847E+01  0.51100000000E-03 0.  1.
        -11    1    3    3    0    0  0.93270448042E+01  0.66156900737E+01  0.80619781700E+01  0.13991304879E+02  0.51100000000E-03 0. -1.
        -12    1    3    3    0    0 -0.46373818093E+01  0.12423982370E+02  0.26297353085E+02  0.29451849301E+02  0.00000000000E+00 0.  1.
</event>
<event>
 7    1  0.5642630E-013  0.5052883E+02  0.7816164E-02  0.1300439E+00
        -11   -1    0    0    0    0  0.00000000000E+00  0.00000000000E+00  0.45593999997E+02  0.45594000000E+02  0.51100000000E-03 0.  1.
         11   -1    0    0    0    0 -0.00000000000E+00 -0.00000000000E+00 -0.45593999997E+02  0.45594000000E+02  0.51100000000E-03 0. -1.
    9900012    2    1    2    0    0  0.17709024467E+02  0.24272680184E+02  0.27393346176E+02  0.50528831715E+02  0.29999914482E+02 0.  0.
         12    1    1    2    0    0 -0.17709024467E+02 -0.24272680184E+02 -0.27393346176E+02  0.40659168285E+02  0.00000000000E+00 0. -1.
         11    1    3    3    0    0  0.44521688072E+01  0.13517422378E+02  0.19219987135E+02  0.23915484954E+02  0.51100000000E-03 0.  1.
        -11    1    3    3    0    0 -0.29241941335E+01  0.72440840486E+01 -0.67251539545E+00  0.78409146311E+01  0.51100000000E-03 0. -1.
        -12    1    3    3    0    0  0.16181049793E+02  0.35111737572E+01  0.88458744365E+01  0.18772432131E+02  0.00000000000E+00 0.  1.
</event>
<event>
 7    1  0.5642630E-013  0.5052886E+02  0.7816164E-02  0.1300439E+00
        -11   -1    0    0    0    0  0.00000000000E+00  0.00000000000E+00  0.45593999997E+02  0.45594000000E+02  0.51100000000E-03 0. -1.
         11   -1    0    0    0    0 -0.00000000000E+00 -0.00000000000E+00 -0.45593999997E+02  0.45594000000E+02  0.51100000000E-03 0.  1.
    9900012    2    1    2    0    0 -0.30035920315E+02 -0.89672548237E+01 -0.25895894443E+02  0.50528861823E+02  0.30000005998E+02 0.  0.
         12    1    1    2    0    0  0.30035920315E+02  0.89672548237E+01  0.25895894443E+02  0.40659138177E+02  0.00000000000E+00 0. -1.
         11    1    3    3    0    0  0.38010739787E+01 -0.14970448505E+01  0.18795721267E+01  0.44968987443E+01  0.51100000000E-03 0. -1.
        -11    1    3    3    0    0 -0.42257281871E+00 -0.17188925602E+01 -0.46907452193E+01  0.50136065257E+01  0.51100000000E-03 0.  1.
        -12    1    3    3    0    0 -0.33414421475E+02 -0.57513174130E+01 -0.23084721350E+02  0.41018356553E+02  0.00000000000E+00 0.  1.
</event>
<event>
 7    1  0.5642630E-013  0.5052886E+02  0.7816164E-02  0.1300439E+00
        -11   -1    0    0    0    0  0.00000000000E+00  0.00000000000E+00  0.45593999997E+02  0.45594000000E+02  0.51100000000E-03 0.  1.
         11   -1    0    0    0    0 -0.00000000000E+00 -0.00000000000E+00 -0.45593999997E+02  0.45594000000E+02  0.51100000000E-03 0. -1.
    9900012    2    1    2    0    0  0.78656691518E-01  0.51890262061E+01  0.40326588486E+02  0.50528856887E+02  0.29999990992E+02 0.  0.
         12    1    1    2    0    0 -0.78656691518E-01 -0.51890262061E+01 -0.40326588486E+02  0.40659143113E+02  0.00000000000E+00 0. -1.
         11    1    3    3    0    0  0.43312736837E+01 -0.44984501278E+00  0.73042653706E+00  0.44154066003E+01  0.51100000000E-03 0. -1.
        -11    1    3    3    0    0 -0.85091118133E+01 -0.58670843176E+01  0.11537544536E+02  0.15490080581E+02  0.51100000000E-03 0.  1.
        -12    1    3    3    0    0  0.42564948211E+01  0.11505955536E+02  0.28058617413E+02  0.30623369705E+02  0.00000000000E+00 0.  1.
</event>
<event>
 7    1  0.5642630E-013  0.5052885E+02  0.7816164E-02  0.1300439E+00
        -11   -1    0    0    0    0  0.00000000000E+00  0.00000000000E+00  0.45593999997E+02  0.45594000000E+02  0.51100000000E-03 0. -1.
         11   -1    0    0    0    0 -0.00000000000E+00 -0.00000000000E+00 -0.45593999997E+02  0.45594000000E+02  0.51100000000E-03 0.  1.
    9900012    2    1    2    0    0 -0.19045547382E+02  0.33257420307E+02 -0.13578560186E+02  0.50528853707E+02  0.29999981328E+02 0.  0.
         12    1    1    2    0    0  0.19045547382E+02 -0.33257420307E+02  0.13578560186E+02  0.40659146293E+02  0.00000000000E+00 0. -1.
         11    1    3    3    0    0  0.16562217061E+01  0.17506386326E+02 -0.12177665414E+02  0.21389534070E+02  0.51100000000E-03 0. -1.
        -11    1    3    3    0    0 -0.14338150197E+02  0.17355878512E+02 -0.16402304797E+01  0.22572093972E+02  0.51100000000E-03 0.  1.
        -12    1    3    3    0    0 -0.63636188910E+01 -0.16048445312E+01  0.23933570717E+00  0.65672256654E+01  0.00000000000E+00 0.  1.
</event>
<event>
 7    1  0.5642630E-013  0.5052887E+02  0.7816164E-02  0.1300439E+00
        -11   -1    0    0    0    0  0.00000000000E+00  0.00000000000E+00  0.45593999997E+02  0.45594000000E+02  0.51100000000E-03 0.  1.
         11   -1    0    0    0    0 -0.00000000000E+00 -0.00000000000E+00 -0.45593999997E+02  0.45594000000E+02  0.51100000000E-03 0. -1.
    9900012    2    1    2    0    0  0.27307686291E+02 -0.18416093250E+02  0.23839095130E+02  0.50528872147E+02  0.30000037378E+02 0.  0.
         12    1    1    2    0    0 -0.27307686291E+02  0.18416093250E+02 -0.23839095130E+02  0.40659127853E+02  0.00000000000E+00 0. -1.
         11    1    3    3    0    0  0.76368752238E+01  0.24269799878E+01  0.72974559459E+01  0.10838125234E+02  0.51100000000E-03 0. -1.
        -11    1    3    3    0    0  0.12853902840E+02 -0.72759676314E+01  0.19254124369E+02  0.24266928703E+02  0.51100000000E-03 0.  1.
         12    1    3    3    0    0  0.68169082270E+01 -0.13567105606E+02 -0.27124851851E+01  0.15423818210E+02  0.00000000000E+00 0. -1.
</event>
<event>
 7    1  0.5642630E-013  0.5052886E+02  0.7816164E-02  0.1300439E+00
        -11   -1    0    0    0    0  0.00000000000E+00  0.00000000000E+00  0.45593999997E+02  0.45594000000E+02  0.51100000000E-03 0.  1.
         11   -1    0    0    0    0 -0.00000000000E+00 -0.00000000000E+00 -0.45593999997E+02  0.45594000000E+02  0.51100000000E-03 0. -1.
    9900012    2    1    2    0    0 -0.96538061008E+01  0.31167075343E+01  0.39373291369E+02  0.50528856977E+02  0.29999991268E+02 0.  0.
         12    1    1    2    0    0  0.96538061008E+01 -0.31167075343E+01 -0.39373291369E+02  0.40659143023E+02  0.00000000000E+00 0. -1.
         11    1    3    3    0    0 -0.77675682860E+01 -0.36495601060E+00  0.90131971819E+01  0.11904034344E+02  0.51100000000E-03 0. -1.
        -11    1    3    3    0    0 -0.95554575038E+01  0.98456460301E+01  0.15136136975E+02  0.20429051781E+02  0.51100000000E-03 0.  1.
         12    1    3    3    0    0  0.76692196890E+01 -0.63639824852E+01  0.15223957212E+02  0.18195770852E+02  0.00000000000E+00 0. -1.
</event>
<event>
 7    1  0.5642630E-013  0.5052889E+02  0.7816164E-02  0.1300439E+00
        -11   -1    0    0    0    0  0.00000000000E+00  0.00000000000E+00  0.45593999997E+02  0.45594000000E+02  0.51100000000E-03 0.  1.
         11   -1    0    0    0    0 -0.00000000000E+00 -0.00000000000E+00 -0.45593999997E+02  0.45594000000E+02  0.51100000000E-03 0. -1.
    9900012    2    1    2    0    0 -0.10520596628E+02 -0.23036358989E+02  0.31808909245E+02  0.50528886677E+02  0.30000081544E+02 0.  0.
         12    1    1    2    0    0  0.10520596628E+02  0.23036358989E+02 -0.31808909245E+02  0.40659113323E+02  0.00000000000E+00 0. -1.
         11    1    3    3    0    0  0.27944352931E+01 -0.96988154367E+01  0.12437463021E+02  0.16017689476E+02  0.51100000000E-03 0. -1.
        -11    1    3    3    0    0 -0.35989179028E+01 -0.16094590739E+02  0.17841539698E+02  0.24296267207E+02  0.51100000000E-03 0.  1.
         12    1    3    3    0    0 -0.97161140185E+01  0.27570471872E+01  0.15299065258E+01  0.10214929994E+02  0.00000000000E+00 0. -1.
</event>
<event>
 7    1  0.5642630E-013  0.5052885E+02  0.7816164E-02  0.1300439E+00
        -11   -1    0    0    0    0  0.00000000000E+00  0.00000000000E+00  0.45593999997E+02  0.45594000000E+02  0.51100000000E-03 0.  1.
         11   -1    0    0    0    0 -0.00000000000E+00 -0.00000000000E+00 -0.45593999997E+02  0.45594000000E+02  0.51100000000E-03 0. -1.
    9900012    2    1    2    0    0  0.31072763017E+02 -0.24829565714E+02  0.84345806572E+01  0.50528854831E+02  0.29999984744E+02 0.  0.
         12    1    1    2    0    0 -0.31072763017E+02  0.24829565714E+02 -0.84345806572E+01  0.40659145169E+02  0.00000000000E+00 0. -1.
         11    1    3    3    0    0  0.88369403863E+01 -0.11736392569E+01 -0.68231338484E+01  0.11226045620E+02  0.51100000000E-03 0. -1.
        -11    1    3    3    0    0  0.11759349387E+02 -0.88311005049E+01 -0.12595051757E+01  0.14759979257E+02  0.51100000000E-03 0.  1.
        -12    1    3    3    0    0  0.10476473244E+02 -0.14824825952E+02  0.16517219681E+02  0.24542829953E+02  0.00000000000E+00 0.  1.
</event>
<event>
 7    1  0.5642630E-013  0.5052882E+02  0.7816164E-02  0.1300439E+00
        -11   -1    0    0    0    0  0.00000000000E+00  0.00000000000E+00  0.45593999997E+02  0.45594000000E+02  0.51100000000E-03 0. -1.
         11   -1    0    0    0    0 -0.00000000000E+00 -0.00000000000E+00 -0.45593999997E+02  0.45594000000E+02  0.51100000000E-03 0.  1.
    9900012    2    1    2    0    0 -0.11856509851E+01  0.35147137532E+02 -0.20406906364E+02  0.50528820566E+02  0.29999880591E+02 0.  0.
         12    1    1    2    0    0  0.11856509851E+01 -0.35147137532E+02  0.20406906364E+02  0.40659179434E+02  0.00000000000E+00 0. -1.
         11    1    3    3    0    0 -0.10010991555E+02  0.21863761906E+02 -0.12047440113E+02  0.26895814733E+02  0.51100000000E-03 0. -1.
        -11    1    3    3    0    0 -0.57175562544E+00  0.64271431574E+01 -0.99840789916E+01  0.11887678799E+02  0.51100000000E-03 0.  1.
        -12    1    3    3    0    0  0.93970961954E+01  0.68562324685E+01  0.16246127413E+01  0.11745327034E+02  0.00000000000E+00 0.  1.
</event>
<event>
 7    1  0.5642630E-013  0.5052877E+02  0.7816164E-02  0.1300439E+00
        -11   -1    0    0    0    0  0.00000000000E+00  0.00000000000E+00  0.45593999997E+02  0.45594000000E+02  0.51100000000E-03 0. -1.
         11   -1    0    0    0    0 -0.00000000000E+00 -0.00000000000E+00 -0.45593999997E+02  0.45594000000E+02  0.51100000000E-03 0.  1.
    9900012    2    1    2    0    0  0.14509178608E+02  0.90897489505E+01 -0.36878625258E+02  0.50528772255E+02  0.29999733746E+02 0.  0.
         12    1    1    2    0    0 -0.14509178608E+02 -0.90897489505E+01  0.36878625258E+02  0.40659227745E+02  0.00000000000E+00 0. -1.
         11    1    3    3    0    0  0.19919990214E+02  0.12788880980E+02 -0.23184932394E+02  0.33134612978E+02  0.51100000000E-03 0. -1.
        -11    1    3    3    0    0 -0.37555554279E+01  0.23322596977E+01 -0.48518912795E+01  0.65638769883E+01  0.51100000000E-03 0.  1.
        -12    1    3    3    0    0 -0.16552561781E+01 -0.60313917274E+01 -0.88418015853E+01  0.10830282289E+02  0.00000000000E+00 0.  1.
</event>
<event>
 7    1  0.5642630E-013  0.5052886E+02  0.7816164E-02  0.1300439E+00
        -11   -1    0    0    0    0  0.00000000000E+00  0.00000000000E+00  0.45593999997E+02  0.45594000000E+02  0.51100000000E-03 0. -1.
         11   -1    0    0    0    0 -0.00000000000E+00 -0.00000000000E+00 -0.45593999997E+02  0.45594000000E+02  0.51100000000E-03 0.  1.
    9900012    2    1    2    0    0 -0.33683499637E+02 -0.18980252514E+02 -0.12583228724E+02  0.50528858612E+02  0.29999996238E+02 0.  0.
         12    1    1    2    0    0  0.33683499637E+02  0.18980252514E+02  0.12583228724E+02  0.40659141388E+02  0.00000000000E+00 0. -1.
         11    1    3    3    0    0 -0.20784283600E+02 -0.14118425823E+02 -0.46983719240E-01  0.25126054211E+02  0.51100000000E-03 0. -1.
        -11    1    3    3    0    0 -0.11961750763E+00 -0.42937772741E+01  0.30285498087E+01  0.52557535932E+01  0.51100000000E-03 0.  1.
        -12    1    3    3    0    0 -0.12779598529E+02 -0.56804941704E+00 -0.15564794813E+02  0.20147050808E+02  0.00000000000E+00 0.  1.
</event>
<event>
 7    1  0.5642630E-013  0.5052886E+02  0.7816164E-02  0.1300439E+00
        -11   -1    0    0    0    0  0.00000000000E+00  0.00000000000E+00  0.45593999997E+02  0.45594000000E+02  0.51100000000E-03 0.  1.
         11   -1    0    0    0    0 -0.00000000000E+00 -0.00000000000E+00 -0.45593999997E+02  0.45594000000E+02  0.51100000000E-03 0. -1.
    9900012    2    1    2    0    0  0.32442143127E+02 -0.20210756192E+02 -0.13863553718E+02  0.50528862795E+02  0.30000008953E+02 0.  0.
         12    1    1    2    0    0 -0.32442143127E+02  0.20210756192E+02  0.13863553718E+02  0.40659137205E+02  0.00000000000E+00 0. -1.
         11    1    3    3    0    0  0.70067648685E+01 -0.12062809599E+02 -0.13670482689E+02  0.19531723594E+02  0.51100000000E-03 0. -1.
        -11    1    3    3    0    0  0.16027243776E+02 -0.44911172981E+01 -0.77768790921E+01  0.18371786149E+02  0.51100000000E-03 0.  1.
         12    1    3    3    0    0  0.94081344828E+01 -0.36568292944E+01  0.75838080633E+01  0.12625353052E+02  0.00000000000E+00 0. -1.
</event>
<event>
 7    1  0.5642630E-013  0.5052886E+02  0.7816164E-02  0.1300439E+00
        -11   -1    0    0    0    0  0.00000000000E+00  0.00000000000E+00  0.45593999997E+02  0.45594000000E+02  0.51100000000E-03 0.  1.
         11   -1    0    0    0    0 -0.00000000000E+00 -0.00000000000E+00 -0.45593999997E+02  0.45594000000E+02  0.51100000000E-03 0. -1.
    9900012    2    1    2    0    0  0.16871306939E+02 -0.29055086403E+01  0.36879300736E+02  0.50528858334E+02  0.29999995391E+02 0.  0.
         12    1    1    2    0    0 -0.16871306939E+02  0.29055086403E+01 -0.36879300736E+02  0.40659141666E+02  0.00000000000E+00 0. -1.
         11    1    3    3    0    0  0.14628266686E+02  0.97769612528E+01  0.16976977823E+02  0.24449804372E+02  0.51100000000E-03 0. -1.
        -11    1    3    3    0    0  0.32452121610E+01  0.57337930361E+00  0.59890049272E+01  0.68358134904E+01  0.51100000000E-03 0.  1.
         12    1    3    3    0    0 -0.10021719083E+01 -0.13255849197E+02  0.13913317986E+02  0.19243240471E+02  0.00000000000E+00 0. -1.
</event>
<event>
 7    1  0.5642630E-013  0.5052886E+02  0.7816164E-02  0.1300439E+00
        -11   -1    0    0    0    0  0.00000000000E+00  0.00000000000E+00  0.45593999997E+02  0.45594000000E+02  0.51100000000E-03 0.  1.
         11   -1    0    0    0    0 -0.00000000000E+00 -0.00000000000E+00 -0.45593999997E+02  0.45594000000E+02  0.51100000000E-03 0. -1.
    9900012    2    1    2    0    0  0.39235501806E+02 -0.65456189633E+01 -0.84199681674E+01  0.50528860885E+02  0.30000003147E+02 0.  0.
         12    1    1    2    0    0 -0.39235501806E+02  0.65456189633E+01  0.84199681674E+01  0.40659139115E+02  0.00000000000E+00 0. -1.
         11    1    3    3    0    0  0.38339663293E+00  0.34706799824E+01  0.99945746988E+00  0.36320143190E+01  0.51100000000E-03 0. -1.
        -11    1    3    3    0    0 -0.75556890142E+00  0.26832906379E+01  0.23760109245E+01  0.36628351296E+01  0.51100000000E-03 0.  1.
        -12    1    3    3    0    0  0.39607674075E+02 -0.12699589584E+02 -0.11795436562E+02  0.43234011437E+02  0.00000000000E+00 0.  1.
</event>
<event>
 7    1  0.5642630E-013  0.5052887E+02  0.7816164E-02  0.1300439E+00
        -11   -1    0    0    0    0  0.00000000000E+00  0.00000000000E+00  0.45593999997E+02  0.45594000000E+02  0.51100000000E-03 0. -1.
         11   -1    0    0    0    0 -0.00000000000E+00 -0.00000000000E+00 -0.45593999997E+02  0.45594000000E+02  0.51100000000E-03 0.  1.
    9900012    2    1    2    0    0  0.75114543170E+01  0.83533028041E+01 -0.39076400808E+02  0.50528871704E+02  0.30000036031E+02 0.  0.
         12    1    1    2    0    0 -0.75114543170E+01 -0.83533028041E+01  0.39076400808E+02  0.40659128296E+02  0.00000000000E+00 0. -1.
         11    1    3    3    0    0 -0.31102657965E+01 -0.58427526852E+01 -0.18063541533E+02  0.19238062409E+02  0.51100000000E-03 0. -1.
        -11    1    3    3    0    0  0.11418888616E+02  0.28209582041E+01 -0.11326402015E+02  0.16328998906E+02  0.51100000000E-03 0.  1.
         12    1    3    3    0    0 -0.79716850224E+00  0.11375097285E+02 -0.96864572594E+01  0.14961810389E+02  0.00000000000E+00 0. -1.
</event>
<event>
 7    1  0.5642630E-013  0.5052886E+02  0.7816164E-02  0.1300439E+00
        -11   -1    0    0    0    0  0.00000000000E+00  0.00000000000E+00  0.45593999997E+02  0.45594000000E+02  0.51100000000E-03 0.  1.
         11   -1    0    0    0    0 -0.00000000000E+00 -0.00000000000E+00 -0.45593999997E+02  0.45594000000E+02  0.51100000000E-03 0. -1.
    9900012    2    1    2    0    0 -0.16614543237E+01  0.14732476025E+01  0.40598459767E+02  0.50528858046E+02  0.29999994516E+02 0.  0.
         12    1    1    2    0    0  0.16614543237E+01 -0.14732476025E+01 -0.40598459767E+02  0.40659141954E+02  0.00000000000E+00 0. -1.
         11    1    3    3    0    0 -0.24491536051E+01  0.21557524929E+01  0.10526388483E+02  0.11020457202E+02  0.51100000000E-03 0. -1.
        -11    1    3    3    0    0  0.62503104311E+01  0.10932530358E+02  0.17329211916E+02  0.21421675621E+02  0.51100000000E-03 0.  1.
         12    1    3    3    0    0 -0.54626111497E+01 -0.11615035248E+02  0.12742859369E+02  0.18086725223E+02  0.00000000000E+00 0. -1.
</event>
<event>
 7    1  0.5642630E-013  0.5052886E+02  0.7816164E-02  0.1300439E+00
        -11   -1    0    0    0    0  0.00000000000E+00  0.00000000000E+00  0.45593999997E+02  0.45594000000E+02  0.51100000000E-03 0.  1.
         11   -1    0    0    0    0 -0.00000000000E+00 -0.00000000000E+00 -0.45593999997E+02  0.45594000000E+02  0.51100000000E-03 0. -1.
    9900012    2    1    2    0    0 -0.16933325684E+02  0.34500494834E+02  0.13271933463E+02  0.50528857358E+02  0.29999992427E+02 0.  0.
         12    1    1    2    0    0  0.16933325684E+02 -0.34500494834E+02 -0.13271933463E+02  0.40659142642E+02  0.00000000000E+00 0. -1.
         11    1    3    3    0    0  0.71365229161E+00  0.90517131081E+01 -0.52031475455E+01  0.10464967961E+02  0.51100000000E-03 0. -1.
        -11    1    3    3    0    0 -0.12670997402E+02  0.37559692139E+01  0.81731124846E+01  0.15539023387E+02  0.51100000000E-03 0.  1.
         12    1    3    3    0    0 -0.49759805742E+01  0.21692812512E+02  0.10301968524E+02  0.24524866010E+02  0.00000000000E+00 0. -1.
</event>
<event>
 7    1  0.5642630E-013  0.5052886E+02  0.7816164E-02  0.1300439E+00
        -11   -1    0    0    0    0  0.00000000000E+00  0.00000000000E+00  0.45593999997E+02  0.45594000000E+02  0.51100000000E-03 0. -1.
         11   -1    0    0    0    0 -0.00000000000E+00 -0.00000000000E+00 -0.45593999997E+02  0.45594000000E+02  0.51100000000E-03 0.  1.
    9900012    2    1    2    0    0  0.52107628254E+01 -0.59688935240E+01 -0.39879645568E+02  0.50528857489E+02  0.29999992824E+02 0.  0.
         12    1    1    2    0    0 -0.52107628254E+01  0.59688935240E+01  0.39879645568E+02  0.40659142511E+02  0.00000000000E+00 0. -1.
         11    1    3    3    0    0 -0.91463508249E+00  0.27796510812E+01 -0.38374909586E+01  0.48259045355E+01  0.51100000000E-03 0. -1.
        -11    1    3    3    0    0 -0.84616380177E+01  0.32418316654E+01 -0.14026152891E+02  0.16698555497E+02  0.51100000000E-03 0.  1.
         12    1    3    3    0    0  0.14587035926E+02 -0.11990376271E+02 -0.22016001718E+02  0.29004397457E+02  0.00000000000E+00 0. -1.
</event>
<event>
 7    1  0.5642630E-013  0.5052885E+02  0.7816164E-02  0.1300439E+00
        -11   -1    0    0    0    0  0.00000000000E+00  0.00000000000E+00  0.45593999997E+02  0.45594000000E+02  0.51100000000E-03 0.  1.
         11   -1    0    0    0    0 -0.00000000000E+00 -0.00000000000E+00 -0.45593999997E+02  0.45594000000E+02  0.51100000000E-03 0. -1.
    9900012    2    1    2    0    0  0.17348324817E+02 -0.25469533927E+02  0.26523664591E+02  0.50528852004E+02  0.29999976152E+02 0.  0.
         12    1    1    2    0    0 -0.17348324817E+02  0.25469533927E+02 -0.26523664591E+02  0.40659147996E+02  0.00000000000E+00 0. -1.
         11    1    3    3    0    0  0.26628624758E-01  0.20036161140E+01 -0.44842852655E+00  0.20533570124E+01  0.51100000000E-03 0.  1.
        -11    1    3    3    0    0 -0.32994935308E-01 -0.94331366934E+01 -0.25474290199E+01  0.97711079932E+01  0.51100000000E-03 0. -1.
        -12    1    3    3    0    0  0.17354691127E+02 -0.18040013347E+02  0.29519522138E+02  0.38704386999E+02  0.00000000000E+00 0.  1.
</event>
<event>
 7    1  0.5642630E-013  0.5052885E+02  0.7816164E-02  0.1300439E+00
        -11   -1    0    0    0    0  0.00000000000E+00  0.00000000000E+00  0.45593999997E+02  0.45594000000E+02  0.51100000000E-03 0.  1.
         11   -1    0    0    0    0 -0.00000000000E+00 -0.00000000000E+00 -0.45593999997E+02  0.45594000000E+02  0.51100000000E-03 0. -1.
    9900012    2    1    2    0    0  0.31546029425E+02  0.24136826565E+02  0.86849177063E+01  0.50528853862E+02  0.29999981799E+02 0.  0.
         12    1    1    2    0    0 -0.31546029425E+02 -0.24136826565E+02 -0.86849177063E+01  0.40659146138E+02  0.00000000000E+00 0. -1.
         11    1    3    3    0    0 -0.20077521434E+01 -0.79236335611E+00  0.53571089070E+00  0.22239367745E+01  0.51100000000E-03 0. -1.
        -11    1    3    3    0    0  0.22698342612E+02  0.27420934865E+02  0.21676712742E+01  0.35662602614E+02  0.51100000000E-03 0.  1.
         12    1    3    3    0    0  0.10855438956E+02 -0.24917449442E+01  0.59815355415E+01  0.12642314473E+02  0.00000000000E+00 0. -1.
</event>
<event>
 7    1  0.5642630E-013  0.5052887E+02  0.7816164E-02  0.1300439E+00
        -11   -1    0    0    0    0  0.00000000000E+00  0.00000000000E+00  0.45593999997E+02  0.45594000000E+02  0.51100000000E-03 0.  1.
         11   -1    0    0    0    0 -0.00000000000E+00 -0.00000000000E+00 -0.45593999997E+02  0.45594000000E+02  0.51100000000E-03 0. -1.
    9900012    2    1    2    0    0 -0.14581936094E+02 -0.34586249250E+02  0.15630833345E+02  0.50528874967E+02  0.30000045950E+02 0.  0.
         12    1    1    2    0    0  0.14581936094E+02  0.34586249250E+02 -0.15630833345E+02  0.40659125033E+02  0.00000000000E+00 0. -1.
         11    1    3    3    0    0  0.13067686062E+01  0.22191362432E+01  0.25191418879E+01  0.36025388227E+01  0.51100000000E-03 0. -1.
        -11    1    3    3    0    0 -0.20672821726E+02 -0.26239570385E+02  0.10730631767E+02  0.35085995362E+02  0.51100000000E-03 0.  1.
         12    1    3    3    0    0  0.47841170263E+01 -0.10565815107E+02  0.23810596902E+01  0.11840340783E+02  0.00000000000E+00 0. -1.
</event>
<event>
 7    1  0.5642630E-013  0.5052886E+02  0.7816164E-02  0.1300439E+00
        -11   -1    0    0    0    0  0.00000000000E+00  0.00000000000E+00  0.45593999997E+02  0.45594000000E+02  0.51100000000E-03 0. -1.
         11   -1    0    0    0    0 -0.00000000000E+00 -0.00000000000E+00 -0.45593999997E+02  0.45594000000E+02  0.51100000000E-03 0.  1.
    9900012    2    1    2    0    0  0.89104888457E+00  0.27395240045E+02 -0.30031186310E+02  0.50528864540E+02  0.30000014254E+02 0.  0.
         12    1    1    2    0    0 -0.89104888457E+00 -0.27395240045E+02  0.30031186310E+02  0.40659135460E+02  0.00000000000E+00 0. -1.
         11    1    3    3    0    0  0.53721109020E+01  0.11796817345E+02  0.40580035294E+00  0.12968775933E+02  0.51100000000E-03 0. -1.
        -11    1    3    3    0    0 -0.64857478447E+00  0.11773158685E+02 -0.74579029290E+01  0.13951639009E+02  0.51100000000E-03 0.  1.
        -12    1    3    3    0    0 -0.38324872330E+01  0.38252640149E+01 -0.22979083734E+02  0.23608449598E+02  0.00000000000E+00 0.  1.
</event>
<event>
 7    1  0.5642630E-013  0.5052885E+02  0.7816164E-02  0.1300439E+00
        -11   -1    0    0    0    0  0.00000000000E+00  0.00000000000E+00  0.45593999997E+02  0.45594000000E+02  0.51100000000E-03 0.  1.
         11   -1    0    0    0    0 -0.00000000000E+00 -0.00000000000E+00 -0.45593999997E+02  0.45594000000E+02  0.51100000000E-03 0. -1.
    9900012    2    1    2    0    0  0.95441250309E+01 -0.34609853754E+02  0.19084919732E+02  0.50528850222E+02  0.29999970735E+02 0.  0.
         12    1    1    2    0    0 -0.95441250309E+01  0.34609853754E+02 -0.19084919732E+02  0.40659149778E+02  0.00000000000E+00 0. -1.
         11    1    3    3    0    0  0.61557583957E+01 -0.60332595193E+01  0.12452450614E+01  0.87088585577E+01  0.51100000000E-03 0. -1.
        -11    1    3    3    0    0  0.12464386444E+02 -0.13790871324E+02  0.15714481168E+02  0.24341199229E+02  0.51100000000E-03 0.  1.
         12    1    3    3    0    0 -0.90760198085E+01 -0.14785722911E+02  0.21251935028E+01  0.17478792435E+02  0.00000000000E+00 0. -1.
</event>
<event>
 7    1  0.5642630E-013  0.5052886E+02  0.7816164E-02  0.1300439E+00
        -11   -1    0    0    0    0  0.00000000000E+00  0.00000000000E+00  0.45593999997E+02  0.45594000000E+02  0.51100000000E-03 0.  1.
         11   -1    0    0    0    0 -0.00000000000E+00 -0.00000000000E+00 -0.45593999997E+02  0.45594000000E+02  0.51100000000E-03 0. -1.
    9900012    2    1    2    0    0  0.17297928559E+02  0.35916821390E+01  0.36620308032E+02  0.50528862363E+02  0.30000007638E+02 0.  0.
         12    1    1    2    0    0 -0.17297928559E+02 -0.35916821390E+01 -0.36620308032E+02  0.40659137637E+02  0.00000000000E+00 0. -1.
         11    1    3    3    0    0 -0.53194683900E+01  0.25989060867E+01  0.52595016749E+01  0.79191801930E+01  0.51100000000E-03 0. -1.
        -11    1    3    3    0    0  0.15147595753E+02  0.83321221102E+01  0.13619539920E+02  0.22008311699E+02  0.51100000000E-03 0.  1.
        -12    1    3    3    0    0  0.74698011966E+01 -0.73393460579E+01  0.17741266437E+02  0.20601370471E+02  0.00000000000E+00 0.  1.
</event>
<event>
 7    1  0.5642630E-013  0.5052886E+02  0.7816164E-02  0.1300439E+00
        -11   -1    0    0    0    0  0.00000000000E+00  0.00000000000E+00  0.45593999997E+02  0.45594000000E+02  0.51100000000E-03 0.  1.
         11   -1    0    0    0    0 -0.00000000000E+00 -0.00000000000E+00 -0.45593999997E+02  0.45594000000E+02  0.51100000000E-03 0. -1.
    9900012    2    1    2    0    0  0.56075268645E+01  0.24114908301E+02  0.32252018647E+02  0.50528857526E+02  0.29999992935E+02 0.  0.
         12    1    1    2    0    0 -0.56075268645E+01 -0.24114908301E+02 -0.32252018647E+02  0.40659142474E+02  0.00000000000E+00 0. -1.
         11    1    3    3    0    0 -0.11091303732E+02  0.80716995299E+01  0.89459491371E+01  0.16376793276E+02  0.51100000000E-03 0. -1.
        -11    1    3    3    0    0  0.44955506395E+01  0.23828310546E+01  0.10899448755E+02  0.12028542838E+02  0.51100000000E-03 0.  1.
        -12    1    3    3    0    0  0.12203279957E+02  0.13660377717E+02  0.12406620756E+02  0.22123521412E+02  0.00000000000E+00 0.  1.
</event>
<event>
 7    1  0.5642630E-013  0.5052885E+02  0.7816164E-02  0.1300439E+00
        -11   -1    0    0    0    0  0.00000000000E+00  0.00000000000E+00  0.45593999997E+02  0.45594000000E+02  0.51100000000E-03 0.  1.
         11   -1    0    0    0    0 -0.00000000000E+00 -0.00000000000E+00 -0.45593999997E+02  0.45594000000E+02  0.51100000000E-03 0. -1.
    9900012    2    1    2    0    0 -0.30454343371E+02 -0.26116044531E+02 -0.66069557449E+01  0.50528847570E+02  0.29999962675E+02 0.  0.
         12    1    1    2    0    0  0.30454343371E+02  0.26116044531E+02  0.66069557449E+01  0.40659152430E+02  0.00000000000E+00 0. -1.
         11    1    3    3    0    0 -0.17757636522E+02 -0.87656239846E+01 -0.85725069423E+01  0.21579103184E+02  0.51100000000E-03 0. -1.
        -11    1    3    3    0    0 -0.15989624632E+02 -0.97609452720E+01 -0.34681613939E+01  0.19051831728E+02  0.51100000000E-03 0.  1.
        -12    1    3    3    0    0  0.32929177833E+01 -0.75894752743E+01  0.54337125913E+01  0.98979126583E+01  0.00000000000E+00 0.  1.
</event>
<event>
 7    1  0.5642630E-013  0.5052885E+02  0.7816164E-02  0.1300439E+00
        -11   -1    0    0    0    0  0.00000000000E+00  0.00000000000E+00  0.45593999997E+02  0.45594000000E+02  0.51100000000E-03 0. -1.
         11   -1    0    0    0    0 -0.00000000000E+00 -0.00000000000E+00 -0.45593999997E+02  0.45594000000E+02  0.51100000000E-03 0.  1.
    9900012    2    1    2    0    0  0.10116591000E+02  0.37714106287E+02 -0.11334339992E+02  0.50528849867E+02  0.29999969655E+02 0.  0.
         12    1    1    2    0    0 -0.10116591000E+02 -0.37714106287E+02  0.11334339992E+02  0.40659150133E+02  0.00000000000E+00 0. -1.
         11    1    3    3    0    0  0.35819893350E+01  0.87278496049E+01 -0.29243395027E+01  0.98771335979E+01  0.51100000000E-03 0. -1.
        -11    1    3    3    0    0 -0.17254118431E+01  0.19654995093E+02 -0.16561925961E+02  0.25760304150E+02  0.51100000000E-03 0.  1.
         12    1    3    3    0    0  0.82600135082E+01  0.93312615891E+01  0.81519254710E+01  0.14891412119E+02  0.00000000000E+00 0. -1.
</event>
<event>
 7    1  0.5642630E-013  0.5052886E+02  0.7816164E-02  0.1300439E+00
        -11   -1    0    0    0    0  0.00000000000E+00  0.00000000000E+00  0.45593999997E+02  0.45594000000E+02  0.51100000000E-03 0. -1.
         11   -1    0    0    0    0 -0.00000000000E+00 -0.00000000000E+00 -0.45593999997E+02  0.45594000000E+02  0.51100000000E-03 0.  1.
    9900012    2    1    2    0    0 -0.22163648602E+02  0.14681588131E+02  0.30763446731E+02  0.50528855835E+02  0.29999987796E+02 0.  0.
         12    1    1    2    0    0  0.22163648602E+02 -0.14681588131E+02 -0.30763446731E+02  0.40659144165E+02  0.00000000000E+00 0. -1.
         11    1    3    3    0    0  0.31120340374E+01  0.55118441292E+01 -0.11773405931E+01  0.64382693860E+01  0.51100000000E-03 0. -1.
        -11    1    3    3    0    0 -0.35691025265E+01 -0.16753286360E+01 -0.44182099980E-01  0.39429901347E+01  0.51100000000E-03 0.  1.
        -12    1    3    3    0    0 -0.21706580113E+02  0.10845072638E+02  0.31984969424E+02  0.40147596314E+02  0.00000000000E+00 0.  1.
</event>
<event>
 7    1  0.5642630E-013  0.5052887E+02  0.7816164E-02  0.1300439E+00
        -11   -1    0    0    0    0  0.00000000000E+00  0.00000000000E+00  0.45593999997E+02  0.45594000000E+02  0.51100000000E-03 0. -1.
         11   -1    0    0    0    0 -0.00000000000E+00 -0.00000000000E+00 -0.45593999997E+02  0.45594000000E+02  0.51100000000E-03 0.  1.
    9900012    2    1    2    0    0  0.79041181133E+01  0.39823318291E+02 -0.21893449494E+01  0.50528868257E+02  0.30000025553E+02 0.  0.
         12    1    1    2    0    0 -0.79041181133E+01 -0.39823318291E+02  0.21893449494E+01  0.40659131743E+02  0.00000000000E+00 0. -1.
         11    1    3    3    0    0 -0.21224596845E+01  0.62898864932E+01  0.93814373845E+00  0.67042987064E+01  0.51100000000E-03 0. -1.
        -11    1    3    3    0    0  0.16119517298E+01  0.31056756073E+02 -0.10015747592E+02  0.32671634275E+02  0.51100000000E-03 0.  1.
        -12    1    3    3    0    0  0.84146260681E+01  0.24766757247E+01  0.68882589042E+01  0.11152935275E+02  0.00000000000E+00 0.  1.
</event>
<event>
 7    1  0.5642630E-013  0.5052887E+02  0.7816164E-02  0.1300439E+00
        -11   -1    0    0    0    0  0.00000000000E+00  0.00000000000E+00  0.45593999997E+02  0.45594000000E+02  0.51100000000E-03 0.  1.
         11   -1    0    0    0    0 -0.00000000000E+00 -0.00000000000E+00 -0.45593999997E+02  0.45594000000E+02  0.51100000000E-03 0. -1.
    9900012    2    1    2    0    0  0.27903806230E+02 -0.27093367719E+02  0.11852931158E+02  0.50528868756E+02  0.30000027070E+02 0.  0.
         12    1    1    2    0    0 -0.27903806230E+02  0.27093367719E+02 -0.11852931158E+02  0.40659131244E+02  0.00000000000E+00 0. -1.
         11    1    3    3    0    0 -0.87537329936E+00  0.18942827936E+01 -0.58283985188E+00  0.21666306260E+01  0.51100000000E-03 0. -1.
        -11    1    3    3    0    0 -0.69216510604E-01 -0.10239196499E+01  0.78585035438E+01  0.79252306328E+01  0.51100000000E-03 0.  1.
        -12    1    3    3    0    0  0.28848396040E+02 -0.27963730863E+02  0.45772674661E+01  0.40437007497E+02  0.00000000000E+00 0.  1.
</event>
<event>
 7    1  0.5642630E-013  0.5052892E+02  0.7816164E-02  0.1300439E+00
        -11   -1    0    0    0    0  0.00000000000E+00  0.00000000000E+00  0.45593999997E+02  0.45594000000E+02  0.51100000000E-03 0. -1.
         11   -1    0    0    0    0 -0.00000000000E+00 -0.00000000000E+00 -0.45593999997E+02  0.45594000000E+02  0.51100000000E-03 0.  1.
    9900012    2    1    2    0    0  0.72786920447E+01 -0.10446680137E+02 -0.38614096649E+02  0.50528918065E+02  0.30000176950E+02 0.  0.
         12    1    1    2    0    0 -0.72786920447E+01  0.10446680137E+02  0.38614096649E+02  0.40659081935E+02  0.00000000000E+00 0. -1.
         11    1    3    3    0    0  0.12334819896E+02  0.21301994596E+01 -0.63020761364E+01  0.14014338925E+02  0.51100000000E-03 0. -1.
        -11    1    3    3    0    0 -0.10922017530E+01  0.17640844171E+01 -0.30767864520E+01  0.37109990073E+01  0.51100000000E-03 0.  1.
         12    1    3    3    0    0 -0.39639260984E+01 -0.14340964014E+02 -0.29235234061E+02  0.32803580133E+02  0.00000000000E+00 0. -1.
</event>
<event>
 7    1  0.5642630E-013  0.5052886E+02  0.7816164E-02  0.1300439E+00
        -11   -1    0    0    0    0  0.00000000000E+00  0.00000000000E+00  0.45593999997E+02  0.45594000000E+02  0.51100000000E-03 0. -1.
         11   -1    0    0    0    0 -0.00000000000E+00 -0.00000000000E+00 -0.45593999997E+02  0.45594000000E+02  0.51100000000E-03 0.  1.
    9900012    2    1    2    0    0 -0.29186844209E+02  0.21934592347E+02 -0.17893228631E+02  0.50528857767E+02  0.29999993669E+02 0.  0.
         12    1    1    2    0    0  0.29186844209E+02 -0.21934592347E+02  0.17893228631E+02  0.40659142233E+02  0.00000000000E+00 0. -1.
         11    1    3    3    0    0 -0.14991919049E+01  0.71493151802E+01 -0.83327108479E+01  0.11081261402E+02  0.51100000000E-03 0. -1.
        -11    1    3    3    0    0 -0.11686224828E+02  0.93615943857E+01 -0.15487742356E+02  0.21542457234E+02  0.51100000000E-03 0.  1.
         12    1    3    3    0    0 -0.16001427476E+02  0.54236827806E+01  0.59272245723E+01  0.17905139131E+02  0.00000000000E+00 0. -1.
</event>
<event>
 7    1  0.5642630E-013  0.5052887E+02  0.7816164E-02  0.1300439E+00
        -11   -1    0    0    0    0  0.00000000000E+00  0.00000000000E+00  0.45593999997E+02  0.45594000000E+02  0.51100000000E-03 0.  1.
         11   -1    0    0    0    0 -0.00000000000E+00 -0.00000000000E+00 -0.45593999997E+02  0.45594000000E+02  0.51100000000E-03 0. -1.
    9900012    2    1    2    0    0 -0.30776707675E+02 -0.21477186598E+02  0.15642554469E+02  0.50528870770E+02  0.30000033192E+02 0.  0.
         12    1    1    2    0    0  0.30776707675E+02  0.21477186598E+02 -0.15642554469E+02  0.40659129230E+02  0.00000000000E+00 0. -1.
         11    1    3    3    0    0 -0.54683655044E+01 -0.79858470960E+01  0.18329924782E+01  0.98507175788E+01  0.51100000000E-03 0. -1.
        -11    1    3    3    0    0 -0.64912933240E+01 -0.13375690676E+02  0.15872324158E+02  0.21748026681E+02  0.51100000000E-03 0.  1.
         12    1    3    3    0    0 -0.18817048846E+02 -0.11564882570E+00 -0.20627621667E+01  0.18930126510E+02  0.00000000000E+00 0. -1.
</event>
<event>
 7    1  0.5642630E-013  0.5052886E+02  0.7816164E-02  0.1300439E+00
        -11   -1    0    0    0    0  0.00000000000E+00  0.00000000000E+00  0.45593999997E+02  0.45594000000E+02  0.51100000000E-03 0.  1.
         11   -1    0    0    0    0 -0.00000000000E+00 -0.00000000000E+00 -0.45593999997E+02  0.45594000000E+02  0.51100000000E-03 0. -1.
    9900012    2    1    2    0    0  0.68830270860E+01  0.15248477095E+02  0.37057704464E+02  0.50528861105E+02  0.30000003814E+02 0.  0.
         12    1    1    2    0    0 -0.68830270860E+01 -0.15248477095E+02 -0.37057704464E+02  0.40659138895E+02  0.00000000000E+00 0. -1.
         11    1    3    3    0    0 -0.12820051983E+01 -0.95334542316E+00 -0.27873571844E+01  0.32127504041E+01  0.51100000000E-03 0. -1.
        -11    1    3    3    0    0 -0.22549274772E+01 -0.17228186662E+01  0.13479278527E+02  0.13774750522E+02  0.51100000000E-03 0.  1.
        -12    1    3    3    0    0  0.10419959762E+02  0.17924641184E+02  0.26365783121E+02  0.33541360178E+02  0.00000000000E+00 0.  1.
</event>
<event>
 7    1  0.5642630E-013  0.5052885E+02  0.7816164E-02  0.1300439E+00
        -11   -1    0    0    0    0  0.00000000000E+00  0.00000000000E+00  0.45593999997E+02  0.45594000000E+02  0.51100000000E-03 0.  1.
         11   -1    0    0    0    0 -0.00000000000E+00 -0.00000000000E+00 -0.45593999997E+02  0.45594000000E+02  0.51100000000E-03 0. -1.
    9900012    2    1    2    0    0 -0.18426242504E+02 -0.35450208063E+02  0.75447260406E+01  0.50528849055E+02  0.29999967187E+02 0.  0.
         12    1    1    2    0    0  0.18426242504E+02  0.35450208063E+02 -0.75447260406E+01  0.40659150945E+02  0.00000000000E+00 0. -1.
         11    1    3    3    0    0 -0.11422495133E+02  0.85345978976E+00 -0.34352809039E+01  0.11958383830E+02  0.51100000000E-03 0. -1.
        -11    1    3    3    0    0 -0.11753324522E+00 -0.65073238004E+00  0.15135186146E+00  0.67836151222E+00  0.51100000000E-03 0.  1.
         12    1    3    3    0    0 -0.68862141258E+01 -0.35652935473E+02  0.10828655083E+02  0.37892103712E+02  0.00000000000E+00 0. -1.
</event>
<event>
 7    1  0.5642630E-013  0.5052886E+02  0.7816164E-02  0.1300439E+00
        -11   -1    0    0    0    0  0.00000000000E+00  0.00000000000E+00  0.45593999997E+02  0.45594000000E+02  0.51100000000E-03 0. -1.
         11   -1    0    0    0    0 -0.00000000000E+00 -0.00000000000E+00 -0.45593999997E+02  0.45594000000E+02  0.51100000000E-03 0.  1.
    9900012    2    1    2    0    0 -0.27317718264E+02  0.17393270093E+01 -0.30064635038E+02  0.50528864870E+02  0.30000015257E+02 0.  0.
         12    1    1    2    0    0  0.27317718264E+02 -0.17393270093E+01  0.30064635038E+02  0.40659135130E+02  0.00000000000E+00 0. -1.
         11    1    3    3    0    0 -0.69322324715E+01  0.29608719348E+01 -0.69357035624E+00  0.75699174205E+01  0.51100000000E-03 0. -1.
        -11    1    3    3    0    0  0.52245033080E+01  0.17786556409E+01 -0.43210582239E+01  0.70093220171E+01  0.51100000000E-03 0.  1.
        -12    1    3    3    0    0 -0.25609989101E+02 -0.30002005663E+01 -0.25050006458E+02  0.35949625432E+02  0.00000000000E+00 0.  1.
</event>
<event>
 7    1  0.5642630E-013  0.5052887E+02  0.7816164E-02  0.1300439E+00
        -11   -1    0    0    0    0  0.00000000000E+00  0.00000000000E+00  0.45593999997E+02  0.45594000000E+02  0.51100000000E-03 0.  1.
         11   -1    0    0    0    0 -0.00000000000E+00 -0.00000000000E+00 -0.45593999997E+02  0.45594000000E+02  0.51100000000E-03 0. -1.
    9900012    2    1    2    0    0 -0.12907281348E+01 -0.15352137151E+02  0.37627265213E+02  0.50528865950E+02  0.30000018543E+02 0.  0.
         12    1    1    2    0    0  0.12907281348E+01  0.15352137151E+02 -0.37627265213E+02  0.40659134050E+02  0.00000000000E+00 0. -1.
         11    1    3    3    0    0 -0.19619546195E+01  0.29307678569E+01  0.21206837219E+02  0.21498107155E+02  0.51100000000E-03 0. -1.
        -11    1    3    3    0    0 -0.64267952895E+00  0.59775679481E+00 -0.22684116179E+01  0.24322914488E+01  0.51100000000E-03 0.  1.
        -12    1    3    3    0    0  0.13139060136E+01 -0.18880661803E+02  0.18688839612E+02  0.26598467347E+02  0.00000000000E+00 0.  1.
</event>
<event>
 7    1  0.5642630E-013  0.5052884E+02  0.7816164E-02  0.1300439E+00
        -11   -1    0    0    0    0  0.00000000000E+00  0.00000000000E+00  0.45593999997E+02  0.45594000000E+02  0.51100000000E-03 0.  1.
         11   -1    0    0    0    0 -0.00000000000E+00 -0.00000000000E+00 -0.45593999997E+02  0.45594000000E+02  0.51100000000E-03 0. -1.
    9900012    2    1    2    0    0  0.86923191396E+01 -0.33180392878E+02  0.21832830452E+02  0.50528839050E+02  0.29999936777E+02 0.  0.
         12    1    1    2    0    0 -0.86923191396E+01  0.33180392878E+02 -0.21832830452E+02  0.40659160950E+02  0.00000000000E+00 0. -1.
         11    1    3    3    0    0  0.56762354991E+01  0.23950760503E+01  0.90095776160E+01  0.10914601587E+02  0.51100000000E-03 0. -1.
        -11    1    3    3    0    0  0.11966143657E+00 -0.14415393540E+00 -0.13357223742E+01  0.13487971451E+01  0.51100000000E-03 0.  1.
        -12    1    3    3    0    0  0.28964222039E+01 -0.35431314993E+02  0.14158975210E+02  0.38265440318E+02  0.00000000000E+00 0.  1.
</event>
<event>
 7    1  0.5642630E-013  0.5052886E+02  0.7816164E-02  0.1300439E+00
        -11   -1    0    0    0    0  0.00000000000E+00  0.00000000000E+00  0.45593999997E+02  0.45594000000E+02  0.51100000000E-03 0.  1.
         11   -1    0    0    0    0 -0.00000000000E+00 -0.00000000000E+00 -0.45593999997E+02  0.45594000000E+02  0.51100000000E-03 0. -1.
    9900012    2    1    2    0    0 -0.17310348761E+02  0.32927025576E+01  0.36642543052E+02  0.50528855571E+02  0.29999986994E+02 0.  0.
         12    1    1    2    0    0  0.17310348761E+02 -0.32927025576E+01 -0.36642543052E+02  0.40659144429E+02  0.00000000000E+00 0. -1.
         11    1    3    3    0    0 -0.50468616206E+01  0.77640360357E+01  0.20078098722E+02  0.22110656171E+02  0.51100000000E-03 0.  1.
        -11    1    3    3    0    0  0.63304082838E+00 -0.23940623196E+01 -0.36137656022E+01  0.43808192350E+01  0.51100000000E-03 0. -1.
         12    1    3    3    0    0 -0.12896527969E+02 -0.20772711585E+01  0.20178209932E+02  0.24037380165E+02  0.00000000000E+00 0. -1.
</event>
<event>
 7    1  0.5642630E-013  0.5052886E+02  0.7816164E-02  0.1300439E+00
        -11   -1    0    0    0    0  0.00000000000E+00  0.00000000000E+00  0.45593999997E+02  0.45594000000E+02  0.51100000000E-03 0. -1.
         11   -1    0    0    0    0 -0.00000000000E+00 -0.00000000000E+00 -0.45593999997E+02  0.45594000000E+02  0.51100000000E-03 0.  1.
    9900012    2    1    2    0    0 -0.83192975660E+01  0.28594102084E+02 -0.27682705255E+02  0.50528861344E+02  0.30000004542E+02 0.  0.
         12    1    1    2    0    0  0.83192975660E+01 -0.28594102084E+02  0.27682705255E+02  0.40659138656E+02  0.00000000000E+00 0. -1.
         11    1    3    3    0    0 -0.98189682581E+01  0.22304136312E+02 -0.10957035259E+02  0.26719716619E+02  0.51100000000E-03 0. -1.
        -11    1    3    3    0    0 -0.20569715583E+01  0.10225000145E+02 -0.64995481639E+01  0.12289258991E+02  0.51100000000E-03 0.  1.
         12    1    3    3    0    0  0.35566422503E+01 -0.39350343721E+01 -0.10226121832E+02  0.11519885734E+02  0.00000000000E+00 0. -1.
</event>
<event>
 7    1  0.5642630E-013  0.5052885E+02  0.7816164E-02  0.1300439E+00
        -11   -1    0    0    0    0  0.00000000000E+00  0.00000000000E+00  0.45593999997E+02  0.45594000000E+02  0.51100000000E-03 0. -1.
         11   -1    0    0    0    0 -0.00000000000E+00 -0.00000000000E+00 -0.45593999997E+02  0.45594000000E+02  0.51100000000E-03 0.  1.
    9900012    2    1    2    0    0 -0.89200604501E+01 -0.22054189655E+02 -0.32972890903E+02  0.50528852268E+02  0.29999976953E+02 0.  0.
         12    1    1    2    0    0  0.89200604501E+01  0.22054189655E+02  0.32972890903E+02  0.40659147732E+02  0.00000000000E+00 0. -1.
         11    1    3    3    0    0  0.43132701501E+01  0.25030760324E+01 -0.43571143062E+01  0.66222454161E+01  0.51100000000E-03 0. -1.
        -11    1    3    3    0    0  0.61713717088E+00 -0.12105304808E+01  0.23575127546E+01  0.27210492428E+01  0.51100000000E-03 0.  1.
        -12    1    3    3    0    0 -0.13850467771E+02 -0.23346735207E+02 -0.30973289352E+02  0.41185557609E+02  0.00000000000E+00 0.  1.
</event>
<event>
 7    1  0.5642630E-013  0.5052877E+02  0.7816164E-02  0.1300439E+00
        -11   -1    0    0    0    0  0.00000000000E+00  0.00000000000E+00  0.45593999997E+02  0.45594000000E+02  0.51100000000E-03 0.  1.
         11   -1    0    0    0    0 -0.00000000000E+00 -0.00000000000E+00 -0.45593999997E+02  0.45594000000E+02  0.51100000000E-03 0. -1.
    9900012    2    1    2    0    0  0.31458372247E+02 -0.17372902132E+01  0.25700687266E+02  0.50528773647E+02  0.29999737975E+02 0.  0.
         12    1    1    2    0    0 -0.31458372247E+02  0.17372902132E+01 -0.25700687266E+02  0.40659226353E+02  0.00000000000E+00 0. -1.
         11    1    3    3    0    0  0.73028925062E+01  0.50355241589E+01  0.11225300543E+02  0.14307205005E+02  0.51100000000E-03 0. -1.
        -11    1    3    3    0    0  0.25560354363E+02  0.69867546477E+00  0.11809268957E+02  0.28165203641E+02  0.51100000000E-03 0.  1.
         12    1    3    3    0    0 -0.14048746225E+01 -0.74714898369E+01  0.26661177666E+01  0.80563650012E+01  0.00000000000E+00 0. -1.
</event>
<event>
 7    1  0.5642630E-013  0.5052885E+02  0.7816164E-02  0.1300439E+00
        -11   -1    0    0    0    0  0.00000000000E+00  0.00000000000E+00  0.45593999997E+02  0.45594000000E+02  0.51100000000E-03 0.  1.
         11   -1    0    0    0    0 -0.00000000000E+00 -0.00000000000E+00 -0.45593999997E+02  0.45594000000E+02  0.51100000000E-03 0. -1.
    9900012    2    1    2    0    0  0.16027745367E+02 -0.17874818416E+02  0.32814157900E+02  0.50528847111E+02  0.29999961278E+02 0.  0.
         12    1    1    2    0    0 -0.16027745367E+02  0.17874818416E+02 -0.32814157900E+02  0.40659152889E+02  0.00000000000E+00 0. -1.
         11    1    3    3    0    0  0.11298371009E+02 -0.71966427178E+01  0.65754944175E+01  0.14922532659E+02  0.51100000000E-03 0. -1.
        -11    1    3    3    0    0  0.87604024372E+01 -0.88041300854E+01  0.28149468843E+02  0.30767677095E+02  0.51100000000E-03 0.  1.
         12    1    3    3    0    0 -0.40310280800E+01 -0.18740456132E+01 -0.19108053598E+01  0.48386373563E+01  0.00000000000E+00 0. -1.
</event>
<event>
 7    1  0.5642630E-013  0.5052885E+02  0.7816164E-02  0.1300439E+00
        -11   -1    0    0    0    0  0.00000000000E+00  0.00000000000E+00  0.45593999997E+02  0.45594000000E+02  0.51100000000E-03 0.  1.
         11   -1    0    0    0    0 -0.00000000000E+00 -0.00000000000E+00 -0.45593999997E+02  0.45594000000E+02  0.51100000000E-03 0. -1.
    9900012    2    1    2    0    0  0.22711340732E+02  0.18489292504E+01  0.33674063437E+02  0.50528854835E+02  0.29999984755E+02 0.  0.
         12    1    1    2    0    0 -0.22711340732E+02 -0.18489292504E+01 -0.33674063437E+02  0.40659145165E+02  0.00000000000E+00 0. -1.
         11    1    3    3    0    0  0.15099721816E+02 -0.47683355961E+01  0.15934700890E+02  0.22464490112E+02  0.51100000000E-03 0. -1.
        -11    1    3    3    0    0  0.13619706851E+02  0.18625892965E+01  0.89451547811E+01  0.16400653886E+02  0.51100000000E-03 0.  1.
         12    1    3    3    0    0 -0.60080879355E+01  0.47546755500E+01  0.87942077661E+01  0.11663710836E+02  0.00000000000E+00 0. -1.
</event>
<event>
 7    1  0.5642630E-013  0.5052899E+02  0.7816164E-02  0.1300438E+00
        -11   -1    0    0    0    0  0.00000000000E+00  0.00000000000E+00  0.45593999997E+02  0.45594000000E+02  0.51100000000E-03 0. -1.
         11   -1    0    0    0    0 -0.00000000000E+00 -0.00000000000E+00 -0.45593999997E+02  0.45594000000E+02  0.51100000000E-03 0.  1.
    9900012    2    1    2    0    0  0.30647721786E+02 -0.26020294665E+02 -0.60676354092E+01  0.50528993807E+02  0.30000407173E+02 0.  0.
         12    1    1    2    0    0 -0.30647721786E+02  0.26020294665E+02  0.60676354092E+01  0.40659006193E+02  0.00000000000E+00 0. -1.
         11    1    3    3    0    0 -0.14465928330E+01 -0.49732864487E+01  0.41663962973E+01  0.66471849149E+01  0.51100000000E-03 0. -1.
        -11    1    3    3    0    0  0.11380321168E+02 -0.17071874076E+02 -0.18469939663E+00  0.20518155581E+02  0.51100000000E-03 0.  1.
        -12    1    3    3    0    0  0.20713993452E+02 -0.39751341408E+01 -0.10049332310E+02  0.23363653311E+02  0.00000000000E+00 0.  1.
</event>
<event>
 7    1  0.5642630E-013  0.5052885E+02  0.7816164E-02  0.1300439E+00
        -11   -1    0    0    0    0  0.00000000000E+00  0.00000000000E+00  0.45593999997E+02  0.45594000000E+02  0.51100000000E-03 0.  1.
         11   -1    0    0    0    0 -0.00000000000E+00 -0.00000000000E+00 -0.45593999997E+02  0.45594000000E+02  0.51100000000E-03 0. -1.
    9900012    2    1    2    0    0 -0.51517871023E+01  0.39225834809E+02 -0.93786571287E+01  0.50528852980E+02  0.29999979119E+02 0.  0.
         12    1    1    2    0    0  0.51517871023E+01 -0.39225834809E+02  0.93786571287E+01  0.40659147020E+02  0.00000000000E+00 0. -1.
         11    1    3    3    0    0 -0.11450364077E+02  0.89170890159E+01  0.21342201011E+01  0.14669022111E+02  0.51100000000E-03 0. -1.
        -11    1    3    3    0    0 -0.40496042841E+00  0.87999721050E+01  0.27100294951E+01  0.92167110252E+01  0.51100000000E-03 0.  1.
         12    1    3    3    0    0  0.67035374028E+01  0.21508773689E+02 -0.14222906725E+02  0.26643119844E+02  0.00000000000E+00 0. -1.
</event>
<event>
 7    1  0.5642630E-013  0.5052880E+02  0.7816164E-02  0.1300439E+00
        -11   -1    0    0    0    0  0.00000000000E+00  0.00000000000E+00  0.45593999997E+02  0.45594000000E+02  0.51100000000E-03 0. -1.
         11   -1    0    0    0    0 -0.00000000000E+00 -0.00000000000E+00 -0.45593999997E+02  0.45594000000E+02  0.51100000000E-03 0.  1.
    9900012    2    1    2    0    0 -0.25868017117E+02 -0.30613348296E+02  0.68439236560E+01  0.50528798157E+02  0.29999812478E+02 0.  0.
         12    1    1    2    0    0  0.25868017117E+02  0.30613348296E+02 -0.68439236560E+01  0.40659201843E+02  0.00000000000E+00 0. -1.
         11    1    3    3    0    0  0.47797805681E+00 -0.53322286539E+01  0.62300427107E+01  0.82142898584E+01  0.51100000000E-03 0. -1.
        -11    1    3    3    0    0 -0.35149370670E+01 -0.91663203439E+01 -0.84323353501E+01  0.12941425383E+02  0.51100000000E-03 0.  1.
        -12    1    3    3    0    0 -0.22831058107E+02 -0.16114799298E+02  0.90462162954E+01  0.29373082916E+02  0.00000000000E+00 0.  1.
</event>
<event>
 7    1  0.5642630E-013  0.5052886E+02  0.7816164E-02  0.1300439E+00
        -11   -1    0    0    0    0  0.00000000000E+00  0.00000000000E+00  0.45593999997E+02  0.45594000000E+02  0.51100000000E-03 0.  1.
         11   -1    0    0    0    0 -0.00000000000E+00 -0.00000000000E+00 -0.45593999997E+02  0.45594000000E+02  0.51100000000E-03 0. -1.
    9900012    2    1    2    0    0  0.65585788921E+01 -0.40126225067E+02 -0.19199717455E+00  0.50528858861E+02  0.29999996995E+02 0.  0.
         12    1    1    2    0    0 -0.65585788921E+01  0.40126225067E+02  0.19199717455E+00  0.40659141139E+02  0.00000000000E+00 0. -1.
         11    1    3    3    0    0  0.18464162845E+00  0.24441979557E+01 -0.18821608314E+01  0.30904248630E+01  0.51100000000E-03 0. -1.
        -11    1    3    3    0    0  0.25444872227E+01 -0.32933799650E+02 -0.71675969203E+01  0.33800651184E+02  0.51100000000E-03 0.  1.
        -12    1    3    3    0    0  0.38294500410E+01 -0.96366233727E+01  0.88577605771E+01  0.13637782814E+02  0.00000000000E+00 0.  1.
</event>
<event>
 7    1  0.6247277E-013  0.5052888E+02  0.7816164E-02  0.1300439E+00
        -11   -1    0    0    0    0  0.00000000000E+00  0.00000000000E+00  0.45593999997E+02  0.45594000000E+02  0.51100000000E-03 0. -1.
         11   -1    0    0    0    0 -0.00000000000E+00 -0.00000000000E+00 -0.45593999997E+02  0.45594000000E+02  0.51100000000E-03 0.  1.
    9900012    2    1    2    0    0 -0.22765129595E+02 -0.31969541704E+02 -0.10623639067E+02  0.50528875203E+02  0.30000046666E+02 0.  0.
         12    1    1    2    0    0  0.22765129595E+02  0.31969541704E+02  0.10623639067E+02  0.40659124797E+02  0.00000000000E+00 0. -1.
         11    1    3    3    0    0 -0.12285033412E+01  0.29495134539E+01 -0.51375740432E+00  0.32361701138E+01  0.51100000000E-03 0. -1.
        -11    1    3    3    0    0 -0.13086113936E+02 -0.49990126404E+01 -0.79972766077E+01  0.16130497163E+02  0.51100000000E-03 0.  1.
        -12    1    3    3    0    0 -0.84505123180E+01 -0.29920042518E+02 -0.21126050547E+01  0.31162207926E+02  0.00000000000E+00 0.  1.
</event>
<event>
 7    1  0.5642630E-013  0.5052884E+02  0.7816164E-02  0.1300439E+00
        -11   -1    0    0    0    0  0.00000000000E+00  0.00000000000E+00  0.45593999997E+02  0.45594000000E+02  0.51100000000E-03 0.  1.
         11   -1    0    0    0    0 -0.00000000000E+00 -0.00000000000E+00 -0.45593999997E+02  0.45594000000E+02  0.51100000000E-03 0. -1.
    9900012    2    1    2    0    0 -0.12697586194E+02  0.38625309878E+02 -0.15626626687E+00  0.50528835259E+02  0.29999925252E+02 0.  0.
         12    1    1    2    0    0  0.12697586194E+02 -0.38625309878E+02  0.15626626687E+00  0.40659164741E+02  0.00000000000E+00 0. -1.
         11    1    3    3    0    0 -0.67398889824E+01  0.15020647051E+01 -0.43353382040E+01  0.81533710499E+01  0.51100000000E-03 0. -1.
        -11    1    3    3    0    0 -0.10063820995E+02  0.86030230799E+01  0.27717376826E+01  0.13526826278E+02  0.51100000000E-03 0.  1.
         12    1    3    3    0    0  0.41061237825E+01  0.28520222093E+02  0.14073342545E+01  0.28848637930E+02  0.00000000000E+00 0. -1.
</event>
<event>
 7    1  0.5642630E-013  0.5052892E+02  0.7816164E-02  0.1300439E+00
        -11   -1    0    0    0    0  0.00000000000E+00  0.00000000000E+00  0.45593999997E+02  0.45594000000E+02  0.51100000000E-03 0.  1.
         11   -1    0    0    0    0 -0.00000000000E+00 -0.00000000000E+00 -0.45593999997E+02  0.45594000000E+02  0.51100000000E-03 0. -1.
    9900012    2    1    2    0    0 -0.29449280297E+02 -0.27837174746E+02 -0.33154478941E+01  0.50528922261E+02  0.30000189704E+02 0.  0.
         12    1    1    2    0    0  0.29449280297E+02  0.27837174746E+02  0.33154478941E+01  0.40659077739E+02  0.00000000000E+00 0. -1.
         11    1    3    3    0    0 -0.11633677278E+02 -0.74510392534E+01  0.38842441740E+01  0.14350881020E+02  0.51100000000E-03 0. -1.
        -11    1    3    3    0    0 -0.98730171872E+00 -0.65787391720E+01  0.74130645914E+01  0.99603263337E+01  0.51100000000E-03 0.  1.
         12    1    3    3    0    0 -0.16828301300E+02 -0.13807396321E+02 -0.14612756659E+02  0.26217714908E+02  0.00000000000E+00 0. -1.
</event>
<event>
 7    1  0.5642630E-013  0.5052886E+02  0.7816164E-02  0.1300439E+00
        -11   -1    0    0    0    0  0.00000000000E+00  0.00000000000E+00  0.45593999997E+02  0.45594000000E+02  0.51100000000E-03 0. -1.
         11   -1    0    0    0    0 -0.00000000000E+00 -0.00000000000E+00 -0.45593999997E+02  0.45594000000E+02  0.51100000000E-03 0.  1.
    9900012    2    1    2    0    0 -0.54135482198E+01 -0.13995671228E+02 -0.37788628679E+02  0.50528858655E+02  0.29999996368E+02 0.  0.
         12    1    1    2    0    0  0.54135482198E+01  0.13995671228E+02  0.37788628679E+02  0.40659141345E+02  0.00000000000E+00 0. -1.
         11    1    3    3    0    0  0.89634563147E+00 -0.16174638785E+01  0.27279214455E+01  0.32956305259E+01  0.51100000000E-03 0. -1.
        -11    1    3    3    0    0 -0.26718285016E+01  0.40453441434E+01 -0.20772119252E+01  0.52743043545E+01  0.51100000000E-03 0.  1.
        -12    1    3    3    0    0 -0.36380653497E+01 -0.16423551493E+02 -0.38439338199E+02  0.41958923775E+02  0.00000000000E+00 0.  1.
</event>
<event>
 7    1  0.6255391E-013  0.5052887E+02  0.7816164E-02  0.1300439E+00
        -11   -1    0    0    0    0  0.00000000000E+00  0.00000000000E+00  0.45593999997E+02  0.45594000000E+02  0.51100000000E-03 0. -1.
         11   -1    0    0    0    0 -0.00000000000E+00 -0.00000000000E+00 -0.45593999997E+02  0.45594000000E+02  0.51100000000E-03 0.  1.
    9900012    2    1    2    0    0  0.36671975193E+02  0.15952601477E+02  0.73379460846E+01  0.50528871736E+02  0.30000036128E+02 0.  0.
         12    1    1    2    0    0 -0.36671975193E+02 -0.15952601477E+02 -0.73379460846E+01  0.40659128264E+02  0.00000000000E+00 0. -1.
         11    1    3    3    0    0  0.11546257516E-01  0.31801616630E+01 -0.52692925045E+01  0.61545922106E+01  0.51100000000E-03 0. -1.
        -11    1    3    3    0    0  0.12213439825E+02  0.11770220380E+02  0.10190513098E+02  0.19787692074E+02  0.51100000000E-03 0.  1.
        -12    1    3    3    0    0  0.24446989111E+02  0.10022194337E+01  0.24167254912E+01  0.24586587451E+02  0.00000000000E+00 0.  1.
</event>
<event>
 7    1  0.5642630E-013  0.5052886E+02  0.7816164E-02  0.1300439E+00
        -11   -1    0    0    0    0  0.00000000000E+00  0.00000000000E+00  0.45593999997E+02  0.45594000000E+02  0.51100000000E-03 0. -1.
         11   -1    0    0    0    0 -0.00000000000E+00 -0.00000000000E+00 -0.45593999997E+02  0.45594000000E+02  0.51100000000E-03 0.  1.
    9900012    2    1    2    0    0  0.38676050435E+02  0.12492159690E+02  0.11289182716E+01  0.50528863420E+02  0.30000010851E+02 0.  0.
         12    1    1    2    0    0 -0.38676050435E+02 -0.12492159690E+02 -0.11289182716E+01  0.40659136580E+02  0.00000000000E+00 0. -1.
         11    1    3    3    0    0  0.10300149435E+02  0.10418799917E+02  0.10541225655E+01  0.14688622969E+02  0.51100000000E-03 0. -1.
        -11    1    3    3    0    0  0.23276390422E+02  0.71303748152E+01  0.75363776661E+01  0.25483908348E+02  0.51100000000E-03 0.  1.
         12    1    3    3    0    0  0.50995105781E+01 -0.50570150423E+01 -0.74615819600E+01  0.10356332103E+02  0.00000000000E+00 0. -1.
</event>
<event>
 7    1  0.5642630E-013  0.5052885E+02  0.7816164E-02  0.1300439E+00
        -11   -1    0    0    0    0  0.00000000000E+00  0.00000000000E+00  0.45593999997E+02  0.45594000000E+02  0.51100000000E-03 0.  1.
         11   -1    0    0    0    0 -0.00000000000E+00 -0.00000000000E+00 -0.45593999997E+02  0.45594000000E+02  0.51100000000E-03 0. -1.
    9900012    2    1    2    0    0  0.21205587495E+00  0.29117706457E+01  0.40554195889E+02  0.50528853671E+02  0.29999981219E+02 0.  0.
         12    1    1    2    0    0 -0.21205587495E+00 -0.29117706457E+01 -0.40554195889E+02  0.40659146329E+02  0.00000000000E+00 0. -1.
         11    1    3    3    0    0 -0.54111508861E+01  0.18272937912E+01  0.19437202717E+01  0.60330427868E+01  0.51100000000E-03 0. -1.
        -11    1    3    3    0    0 -0.19055639114E+01 -0.89466310464E+01  0.20694761465E+02  0.22626235508E+02  0.51100000000E-03 0.  1.
        -12    1    3    3    0    0  0.75287706724E+01  0.10031107901E+02  0.17915714152E+02  0.21869575376E+02  0.00000000000E+00 0.  1.
</event>
<event>
 7    1  0.5642630E-013  0.5052886E+02  0.7816164E-02  0.1300439E+00
        -11   -1    0    0    0    0  0.00000000000E+00  0.00000000000E+00  0.45593999997E+02  0.45594000000E+02  0.51100000000E-03 0.  1.
         11   -1    0    0    0    0 -0.00000000000E+00 -0.00000000000E+00 -0.45593999997E+02  0.45594000000E+02  0.51100000000E-03 0. -1.
    9900012    2    1    2    0    0 -0.29947077932E+02 -0.48263435766E+01  0.27074793423E+02  0.50528861939E+02  0.30000006349E+02 0.  0.
         12    1    1    2    0    0  0.29947077932E+02  0.48263435766E+01 -0.27074793423E+02  0.40659138061E+02  0.00000000000E+00 0. -1.
         11    1    3    3    0    0 -0.11936980283E+01 -0.76744401921E+01  0.10249424160E+02  0.12859729512E+02  0.51100000000E-03 0. -1.
        -11    1    3    3    0    0 -0.39031814227E+01 -0.44304408545E+01  0.87294483144E+01  0.10538828185E+02  0.51100000000E-03 0.  1.
        -12    1    3    3    0    0 -0.24850198481E+02  0.72785374700E+01  0.80959209488E+01  0.27130304242E+02  0.00000000000E+00 0.  1.
</event>
<event>
 7    1  0.5642630E-013  0.5052885E+02  0.7816164E-02  0.1300439E+00
        -11   -1    0    0    0    0  0.00000000000E+00  0.00000000000E+00  0.45593999997E+02  0.45594000000E+02  0.51100000000E-03 0. -1.
         11   -1    0    0    0    0 -0.00000000000E+00 -0.00000000000E+00 -0.45593999997E+02  0.45594000000E+02  0.51100000000E-03 0.  1.
    9900012    2    1    2    0    0 -0.10380364320E+01  0.21790012990E+02 -0.34311570820E+02  0.50528854930E+02  0.29999985044E+02 0.  0.
         12    1    1    2    0    0  0.10380364320E+01 -0.21790012990E+02  0.34311570820E+02  0.40659145070E+02  0.00000000000E+00 0. -1.
         11    1    3    3    0    0 -0.28423832131E+01  0.21907902981E+02 -0.84490742021E+01  0.23652107950E+02  0.51100000000E-03 0. -1.
        -11    1    3    3    0    0 -0.69690369088E+00  0.19731538651E+01 -0.20460317914E+02  0.20567051814E+02  0.51100000000E-03 0.  1.
        -12    1    3    3    0    0  0.25012504720E+01 -0.20910438563E+01 -0.54021787037E+01  0.63096951653E+01  0.00000000000E+00 0.  1.
</event>
<event>
 7    1  0.5642630E-013  0.5052886E+02  0.7816164E-02  0.1300439E+00
        -11   -1    0    0    0    0  0.00000000000E+00  0.00000000000E+00  0.45593999997E+02  0.45594000000E+02  0.51100000000E-03 0.  1.
         11   -1    0    0    0    0 -0.00000000000E+00 -0.00000000000E+00 -0.45593999997E+02  0.45594000000E+02  0.51100000000E-03 0. -1.
    9900012    2    1    2    0    0  0.34156149830E+02  0.12921730766E+02  0.17876010233E+02  0.50528862785E+02  0.30000008923E+02 0.  0.
         12    1    1    2    0    0 -0.34156149830E+02 -0.12921730766E+02 -0.17876010233E+02  0.40659137215E+02  0.00000000000E+00 0. -1.
         11    1    3    3    0    0  0.80481387000E+01 -0.64801020087E+01  0.51664947570E+01  0.11552355903E+02  0.51100000000E-03 0. -1.
        -11    1    3    3    0    0  0.11515626105E+02  0.51651926729E+01 -0.33111856827E+01  0.13048096061E+02  0.51100000000E-03 0.  1.
        -12    1    3    3    0    0  0.14592385025E+02  0.14236640102E+02  0.16020701158E+02  0.25928410821E+02  0.00000000000E+00 0.  1.
</event>
<event>
 7    1  0.5642630E-013  0.5052886E+02  0.7816164E-02  0.1300439E+00
        -11   -1    0    0    0    0  0.00000000000E+00  0.00000000000E+00  0.45593999997E+02  0.45594000000E+02  0.51100000000E-03 0.  1.
         11   -1    0    0    0    0 -0.00000000000E+00 -0.00000000000E+00 -0.45593999997E+02  0.45594000000E+02  0.51100000000E-03 0. -1.
    9900012    2    1    2    0    0  0.15522938682E+02 -0.12089816757E+02  0.35581461787E+02  0.50528859362E+02  0.29999998517E+02 0.  0.
         12    1    1    2    0    0 -0.15522938682E+02  0.12089816757E+02 -0.35581461787E+02  0.40659140638E+02  0.00000000000E+00 0. -1.
         11    1    3    3    0    0  0.10434084981E+02 -0.15571203913E+02  0.13286274557E+02  0.22975152068E+02  0.51100000000E-03 0. -1.
        -11    1    3    3    0    0  0.55804027116E+01 -0.39530510231E+01  0.17248488808E+02  0.18554726439E+02  0.51100000000E-03 0.  1.
        -12    1    3    3    0    0 -0.49154901088E+00  0.74344381786E+01  0.50466984224E+01  0.89989808550E+01  0.00000000000E+00 0.  1.
</event>
<event>
 7    1  0.5642630E-013  0.5052886E+02  0.7816164E-02  0.1300439E+00
        -11   -1    0    0    0    0  0.00000000000E+00  0.00000000000E+00  0.45593999997E+02  0.45594000000E+02  0.51100000000E-03 0.  1.
         11   -1    0    0    0    0 -0.00000000000E+00 -0.00000000000E+00 -0.45593999997E+02  0.45594000000E+02  0.51100000000E-03 0. -1.
    9900012    2    1    2    0    0  0.48334169318E+01  0.78472009478E+01  0.39600827167E+02  0.50528855958E+02  0.29999988169E+02 0.  0.
         12    1    1    2    0    0 -0.48334169318E+01 -0.78472009478E+01 -0.39600827167E+02  0.40659144042E+02  0.00000000000E+00 0. -1.
         11    1    3    3    0    0  0.56782559959E+01 -0.33026288221E+01  0.18163939684E+02  0.19315244068E+02  0.51100000000E-03 0. -1.
        -11    1    3    3    0    0 -0.24037946583E+00  0.96820246871E+00  0.20980131338E+02  0.21003835590E+02  0.51100000000E-03 0.  1.
         12    1    3    3    0    0 -0.60445959825E+00  0.10181627301E+02  0.45675614499E+00  0.10209776299E+02  0.00000000000E+00 0. -1.
</event>
<event>
 7    1  0.5642630E-013  0.5052886E+02  0.7816164E-02  0.1300439E+00
        -11   -1    0    0    0    0  0.00000000000E+00  0.00000000000E+00  0.45593999997E+02  0.45594000000E+02  0.51100000000E-03 0.  1.
         11   -1    0    0    0    0 -0.00000000000E+00 -0.00000000000E+00 -0.45593999997E+02  0.45594000000E+02  0.51100000000E-03 0. -1.
    9900012    2    1    2    0    0 -0.46925069600E+01 -0.23342338932E+02  0.32958783430E+02  0.50528858180E+02  0.29999994923E+02 0.  0.
         12    1    1    2    0    0  0.46925069600E+01  0.23342338932E+02 -0.32958783430E+02  0.40659141820E+02  0.00000000000E+00 0. -1.
         11    1    3    3    0    0  0.49085649155E+00 -0.74049690954E+00 -0.30777075521E+01  0.32033669484E+01  0.51100000000E-03 0. -1.
        -11    1    3    3    0    0  0.32758830036E+01  0.23846895875E+01  0.70569754014E+01  0.81375091987E+01  0.51100000000E-03 0.  1.
        -12    1    3    3    0    0 -0.84592464551E+01 -0.24986531610E+02  0.28979515581E+02  0.39187982033E+02  0.00000000000E+00 0.  1.
</event>
<event>
 7    1  0.5642630E-013  0.5052886E+02  0.7816164E-02  0.1300439E+00
        -11   -1    0    0    0    0  0.00000000000E+00  0.00000000000E+00  0.45593999997E+02  0.45594000000E+02  0.51100000000E-03 0.  1.
         11   -1    0    0    0    0 -0.00000000000E+00 -0.00000000000E+00 -0.45593999997E+02  0.45594000000E+02  0.51100000000E-03 0. -1.
    9900012    2    1    2    0    0  0.23711366894E+02  0.12226869550E+02  0.30682901098E+02  0.50528859838E+02  0.29999999963E+02 0.  0.
         12    1    1    2    0    0 -0.23711366894E+02 -0.12226869550E+02 -0.30682901098E+02  0.40659140162E+02  0.00000000000E+00 0. -1.
         11    1    3    3    0    0  0.37196628316E+01  0.12010184273E+02  0.73466926919E+01  0.14562084728E+02  0.51100000000E-03 0.  1.
        -11    1    3    3    0    0  0.59193098419E+01 -0.69967758292E+01  0.19513905870E+01  0.93702201944E+01  0.51100000000E-03 0. -1.
         12    1    3    3    0    0  0.14072394220E+02  0.72134611064E+01  0.21384817819E+02  0.26596554915E+02  0.00000000000E+00 0. -1.
</event>
<event>
 7    1  0.5642630E-013  0.5052883E+02  0.7816164E-02  0.1300439E+00
        -11   -1    0    0    0    0  0.00000000000E+00  0.00000000000E+00  0.45593999997E+02  0.45594000000E+02  0.51100000000E-03 0.  1.
         11   -1    0    0    0    0 -0.00000000000E+00 -0.00000000000E+00 -0.45593999997E+02  0.45594000000E+02  0.51100000000E-03 0. -1.
    9900012    2    1    2    0    0 -0.89435076615E+01  0.37868344239E+02 -0.11797037358E+02  0.50528832337E+02  0.29999916370E+02 0.  0.
         12    1    1    2    0    0  0.89435076615E+01 -0.37868344239E+02  0.11797037358E+02  0.40659167663E+02  0.00000000000E+00 0. -1.
         11    1    3    3    0    0 -0.60638987265E+01  0.32411050152E+00 -0.86938218287E+00  0.61344715358E+01  0.51100000000E-03 0. -1.
        -11    1    3    3    0    0 -0.56252561372E+01  0.11217984322E+01  0.12901763352E+01  0.58793276459E+01  0.51100000000E-03 0.  1.
         12    1    3    3    0    0  0.27456472022E+01  0.36422435305E+02 -0.12217831510E+02  0.38515033155E+02  0.00000000000E+00 0. -1.
</event>
<event>
 7    1  0.5642630E-013  0.5052886E+02  0.7816164E-02  0.1300439E+00
        -11   -1    0    0    0    0  0.00000000000E+00  0.00000000000E+00  0.45593999997E+02  0.45594000000E+02  0.51100000000E-03 0.  1.
         11   -1    0    0    0    0 -0.00000000000E+00 -0.00000000000E+00 -0.45593999997E+02  0.45594000000E+02  0.51100000000E-03 0. -1.
    9900012    2    1    2    0    0 -0.20103127239E+02 -0.31551677278E+02 -0.15922355885E+02  0.50528862272E+02  0.30000007362E+02 0.  0.
         12    1    1    2    0    0  0.20103127239E+02  0.31551677278E+02  0.15922355885E+02  0.40659137728E+02  0.00000000000E+00 0. -1.
         11    1    3    3    0    0  0.30977990316E+01  0.46844939120E+00 -0.10176591938E+01  0.32941515095E+01  0.51100000000E-03 0. -1.
        -11    1    3    3    0    0 -0.38192057335E+01  0.22974184807E+01 -0.47945075661E+01  0.65461261195E+01  0.51100000000E-03 0.  1.
        -12    1    3    3    0    0 -0.19381720537E+02 -0.34317545150E+02 -0.10110189125E+02  0.40688584643E+02  0.00000000000E+00 0.  1.
</event>
<event>
 7    1  0.5642630E-013  0.5052886E+02  0.7816164E-02  0.1300439E+00
        -11   -1    0    0    0    0  0.00000000000E+00  0.00000000000E+00  0.45593999997E+02  0.45594000000E+02  0.51100000000E-03 0. -1.
         11   -1    0    0    0    0 -0.00000000000E+00 -0.00000000000E+00 -0.45593999997E+02  0.45594000000E+02  0.51100000000E-03 0.  1.
    9900012    2    1    2    0    0  0.29836084628E+02  0.27500518265E+02 -0.25874425962E+01  0.50528864372E+02  0.30000013746E+02 0.  0.
         12    1    1    2    0    0 -0.29836084628E+02 -0.27500518265E+02  0.25874425962E+01  0.40659135628E+02  0.00000000000E+00 0. -1.
         11    1    3    3    0    0 -0.16182868619E+01  0.52825924739E+00  0.35053366739E+01  0.38968314895E+01  0.51100000000E-03 0.  1.
        -11    1    3    3    0    0  0.13803060629E+02  0.37316976959E+00  0.12842875402E+01  0.13867701077E+02  0.51100000000E-03 0. -1.
        -12    1    3    3    0    0  0.17651310861E+02  0.26599089248E+02 -0.73770668103E+01  0.32764331806E+02  0.00000000000E+00 0.  1.
</event>
<event>
 7    1  0.5642630E-013  0.5052875E+02  0.7816164E-02  0.1300439E+00
        -11   -1    0    0    0    0  0.00000000000E+00  0.00000000000E+00  0.45593999997E+02  0.45594000000E+02  0.51100000000E-03 0. -1.
         11   -1    0    0    0    0 -0.00000000000E+00 -0.00000000000E+00 -0.45593999997E+02  0.45594000000E+02  0.51100000000E-03 0.  1.
    9900012    2    1    2    0    0 -0.26368709217E+02  0.14403045427E+02 -0.27393762443E+02  0.50528748111E+02  0.29999660358E+02 0.  0.
         12    1    1    2    0    0  0.26368709217E+02 -0.14403045427E+02  0.27393762443E+02  0.40659251889E+02  0.00000000000E+00 0. -1.
         11    1    3    3    0    0 -0.11612349459E+02  0.74278306418E+01 -0.50851877400E+01  0.14692803089E+02  0.51100000000E-03 0. -1.
        -11    1    3    3    0    0 -0.17725463429E+02 -0.15644099698E+01 -0.95393716463E+01  0.20190072907E+02  0.51100000000E-03 0.  1.
         12    1    3    3    0    0  0.29691036702E+01  0.85396247550E+01 -0.12769203057E+02  0.15645872116E+02  0.00000000000E+00 0. -1.
</event>
<event>
 7    1  0.5642630E-013  0.5052886E+02  0.7816164E-02  0.1300439E+00
        -11   -1    0    0    0    0  0.00000000000E+00  0.00000000000E+00  0.45593999997E+02  0.45594000000E+02  0.51100000000E-03 0. -1.
         11   -1    0    0    0    0 -0.00000000000E+00 -0.00000000000E+00 -0.45593999997E+02  0.45594000000E+02  0.51100000000E-03 0.  1.
    9900012    2    1    2    0    0  0.37709224365E+02  0.15101836578E+02 -0.17648531234E+01  0.50528858632E+02  0.29999996297E+02 0.  0.
         12    1    1    2    0    0 -0.37709224365E+02 -0.15101836578E+02  0.17648531234E+01  0.40659141368E+02  0.00000000000E+00 0. -1.
         11    1    3    3    0    0  0.49516992839E+01 -0.35228899450E+01 -0.40132093519E+01  0.72825770800E+01  0.51100000000E-03 0. -1.
        -11    1    3    3    0    0  0.15766017845E+02  0.48836663616E+01 -0.88597365164E+01  0.18732657238E+02  0.51100000000E-03 0.  1.
         12    1    3    3    0    0  0.16991507237E+02  0.13741060162E+02  0.11108092745E+02  0.24513624313E+02  0.00000000000E+00 0. -1.
</event>
<event>
 7    1  0.5642630E-013  0.5052886E+02  0.7816164E-02  0.1300439E+00
        -11   -1    0    0    0    0  0.00000000000E+00  0.00000000000E+00  0.45593999997E+02  0.45594000000E+02  0.51100000000E-03 0.  1.
         11   -1    0    0    0    0 -0.00000000000E+00 -0.00000000000E+00 -0.45593999997E+02  0.45594000000E+02  0.51100000000E-03 0. -1.
    9900012    2    1    2    0    0  0.24972199744E+02 -0.26754301201E+02  0.17713329370E+02  0.50528862894E+02  0.30000009253E+02 0.  0.
         12    1    1    2    0    0 -0.24972199744E+02  0.26754301201E+02 -0.17713329370E+02  0.40659137106E+02  0.00000000000E+00 0. -1.
         11    1    3    3    0    0  0.84017973846E+01 -0.31224509108E+01  0.57312343461E+01  0.10638935397E+02  0.51100000000E-03 0.  1.
        -11    1    3    3    0    0  0.13987318023E+02 -0.24551630008E+01 -0.20598235110E+01  0.14349765294E+02  0.51100000000E-03 0. -1.
        -12    1    3    3    0    0  0.25830843371E+01 -0.21176687290E+02  0.14041918535E+02  0.25540162204E+02  0.00000000000E+00 0.  1.
</event>
<event>
 7    1  0.5642630E-013  0.5052886E+02  0.7816164E-02  0.1300439E+00
        -11   -1    0    0    0    0  0.00000000000E+00  0.00000000000E+00  0.45593999997E+02  0.45594000000E+02  0.51100000000E-03 0. -1.
         11   -1    0    0    0    0 -0.00000000000E+00 -0.00000000000E+00 -0.45593999997E+02  0.45594000000E+02  0.51100000000E-03 0.  1.
    9900012    2    1    2    0    0 -0.67651220264E+01  0.36518702469E+02  0.16546391384E+02  0.50528861127E+02  0.30000003881E+02 0.  0.
         12    1    1    2    0    0  0.67651220264E+01 -0.36518702469E+02 -0.16546391384E+02  0.40659138873E+02  0.00000000000E+00 0. -1.
         11    1    3    3    0    0 -0.77281222825E+01  0.39405168869E+02  0.11322789763E+02  0.41721658355E+02  0.51100000000E-03 0.  1.
        -11    1    3    3    0    0 -0.14001023764E+01 -0.18700083541E+01 -0.62469151176E+00  0.24181517021E+01  0.51100000000E-03 0. -1.
        -12    1    3    3    0    0  0.23631026325E+01 -0.10164580454E+01  0.58482931326E+01  0.63890510699E+01  0.00000000000E+00 0.  1.
</event>
<event>
 7    1  0.5642630E-013  0.5052886E+02  0.7816164E-02  0.1300439E+00
        -11   -1    0    0    0    0  0.00000000000E+00  0.00000000000E+00  0.45593999997E+02  0.45594000000E+02  0.51100000000E-03 0.  1.
         11   -1    0    0    0    0 -0.00000000000E+00 -0.00000000000E+00 -0.45593999997E+02  0.45594000000E+02  0.51100000000E-03 0. -1.
    9900012    2    1    2    0    0 -0.29562739304E+02  0.89802091779E+01  0.26430392833E+02  0.50528863544E+02  0.30000011229E+02 0.  0.
         12    1    1    2    0    0  0.29562739304E+02 -0.89802091779E+01 -0.26430392833E+02  0.40659136456E+02  0.00000000000E+00 0. -1.
         11    1    3    3    0    0 -0.49069985247E+01  0.65782971691E+01 -0.21936921739E+01  0.84949934538E+01  0.51100000000E-03 0. -1.
        -11    1    3    3    0    0 -0.11871074131E+02  0.43297508098E+01  0.24936496987E+01  0.12879729507E+02  0.51100000000E-03 0.  1.
        -12    1    3    3    0    0 -0.12784666648E+02 -0.19278388010E+01  0.26130435308E+02  0.29154140583E+02  0.00000000000E+00 0.  1.
</event>
<event>
 7    1  0.5642630E-013  0.5052885E+02  0.7816164E-02  0.1300439E+00
        -11   -1    0    0    0    0  0.00000000000E+00  0.00000000000E+00  0.45593999997E+02  0.45594000000E+02  0.51100000000E-03 0. -1.
         11   -1    0    0    0    0 -0.00000000000E+00 -0.00000000000E+00 -0.45593999997E+02  0.45594000000E+02  0.51100000000E-03 0.  1.
    9900012    2    1    2    0    0 -0.42091307667E+00  0.39847749601E+02  0.80712973615E+01  0.50528853954E+02  0.29999982078E+02 0.  0.
         12    1    1    2    0    0  0.42091307667E+00 -0.39847749601E+02 -0.80712973615E+01  0.40659146046E+02  0.00000000000E+00 0. -1.
         11    1    3    3    0    0 -0.63291625049E+01  0.30863664366E+01 -0.44641924934E+00  0.70557243570E+01  0.51100000000E-03 0. -1.
        -11    1    3    3    0    0  0.42273232065E+01  0.62334996504E+01  0.10400335794E+02  0.12841096693E+02  0.51100000000E-03 0.  1.
        -12    1    3    3    0    0  0.16809262217E+01  0.30527883514E+02 -0.18826191834E+01  0.30632032904E+02  0.00000000000E+00 0.  1.
</event>
<event>
 7    1  0.5642630E-013  0.5052886E+02  0.7816164E-02  0.1300439E+00
        -11   -1    0    0    0    0  0.00000000000E+00  0.00000000000E+00  0.45593999997E+02  0.45594000000E+02  0.51100000000E-03 0. -1.
         11   -1    0    0    0    0 -0.00000000000E+00 -0.00000000000E+00 -0.45593999997E+02  0.45594000000E+02  0.51100000000E-03 0.  1.
    9900012    2    1    2    0    0  0.15032818022E+02 -0.37147573547E+02 -0.68729570733E+01  0.50528863548E+02  0.30000011239E+02 0.  0.
         12    1    1    2    0    0 -0.15032818022E+02  0.37147573547E+02  0.68729570733E+01  0.40659136452E+02  0.00000000000E+00 0. -1.
         11    1    3    3    0    0  0.15400392235E+02 -0.10226719536E+02  0.48993798246E+01  0.19124899905E+02  0.51100000000E-03 0. -1.
        -11    1    3    3    0    0  0.40026737638E+01 -0.49544159986E+01 -0.66458443318E+00  0.64038510192E+01  0.51100000000E-03 0.  1.
        -12    1    3    3    0    0 -0.43702479771E+01 -0.21966438013E+02 -0.11107752465E+02  0.25000112623E+02  0.00000000000E+00 0.  1.
</event>
<event>
 7    1  0.5642630E-013  0.5052887E+02  0.7816164E-02  0.1300439E+00
        -11   -1    0    0    0    0  0.00000000000E+00  0.00000000000E+00  0.45593999997E+02  0.45594000000E+02  0.51100000000E-03 0.  1.
         11   -1    0    0    0    0 -0.00000000000E+00 -0.00000000000E+00 -0.45593999997E+02  0.45594000000E+02  0.51100000000E-03 0. -1.
    9900012    2    1    2    0    0 -0.55039211460E+00  0.37940114109E+02  0.14608561117E+02  0.50528865134E+02  0.30000016062E+02 0.  0.
         12    1    1    2    0    0  0.55039211460E+00 -0.37940114109E+02 -0.14608561117E+02  0.40659134866E+02  0.00000000000E+00 0. -1.
         11    1    3    3    0    0 -0.36911902476E+01  0.11970687433E+02  0.12498881668E+02  0.17695883314E+02  0.51100000000E-03 0.  1.
        -11    1    3    3    0    0 -0.42614531165E+01 -0.53845275510E+00  0.30935553345E+01  0.52933920034E+01  0.51100000000E-03 0. -1.
         12    1    3    3    0    0  0.74022512495E+01  0.26507879431E+02 -0.98387588518E+00  0.27539589816E+02  0.00000000000E+00 0. -1.
</event>
<event>
 7    1  0.5642630E-013  0.5052886E+02  0.7816164E-02  0.1300439E+00
        -11   -1    0    0    0    0  0.00000000000E+00  0.00000000000E+00  0.45593999997E+02  0.45594000000E+02  0.51100000000E-03 0.  1.
         11   -1    0    0    0    0 -0.00000000000E+00 -0.00000000000E+00 -0.45593999997E+02  0.45594000000E+02  0.51100000000E-03 0. -1.
    9900012    2    1    2    0    0  0.24745537316E+02  0.26662950506E+02  0.18163455547E+02  0.50528860017E+02  0.30000000509E+02 0.  0.
         12    1    1    2    0    0 -0.24745537316E+02 -0.26662950506E+02 -0.18163455547E+02  0.40659139983E+02  0.00000000000E+00 0. -1.
         11    1    3    3    0    0  0.73295973047E+01  0.33350112576E+01  0.12100744362E+02  0.14535243758E+02  0.51100000000E-03 0. -1.
        -11    1    3    3    0    0  0.12481753379E+02  0.15650627551E+01  0.53419830486E+01  0.13666761576E+02  0.51100000000E-03 0.  1.
         12    1    3    3    0    0  0.49341866322E+01  0.21762876493E+02  0.72072813673E+00  0.22326854683E+02  0.00000000000E+00 0. -1.
</event>
<event>
 7    1  0.5642630E-013  0.5052891E+02  0.7816164E-02  0.1300439E+00
        -11   -1    0    0    0    0  0.00000000000E+00  0.00000000000E+00  0.45593999997E+02  0.45594000000E+02  0.51100000000E-03 0.  1.
         11   -1    0    0    0    0 -0.00000000000E+00 -0.00000000000E+00 -0.45593999997E+02  0.45594000000E+02  0.51100000000E-03 0. -1.
    9900012    2    1    2    0    0 -0.40382998919E+02 -0.27827531060E+01 -0.38250871586E+01  0.50528909893E+02  0.30000152112E+02 0.  0.
         12    1    1    2    0    0  0.40382998919E+02  0.27827531060E+01  0.38250871586E+01  0.40659090107E+02  0.00000000000E+00 0. -1.
         11    1    3    3    0    0 -0.58586167951E+01  0.63093264952E+01 -0.82256489241E+01  0.11907656867E+02  0.51100000000E-03 0. -1.
        -11    1    3    3    0    0 -0.52574517976E+01 -0.16277014048E+01 -0.45263344760E+01  0.71258624262E+01  0.51100000000E-03 0.  1.
        -12    1    3    3    0    0 -0.29266930326E+02 -0.74643781964E+01  0.89268962415E+01  0.31495390600E+02  0.00000000000E+00 0.  1.
</event>
<event>
 7    1  0.5642630E-013  0.5052886E+02  0.7816164E-02  0.1300439E+00
        -11   -1    0    0    0    0  0.00000000000E+00  0.00000000000E+00  0.45593999997E+02  0.45594000000E+02  0.51100000000E-03 0.  1.
         11   -1    0    0    0    0 -0.00000000000E+00 -0.00000000000E+00 -0.45593999997E+02  0.45594000000E+02  0.51100000000E-03 0. -1.
    9900012    2    1    2    0    0  0.20859877695E+02  0.28700846257E+02 -0.19856794923E+02  0.50528863537E+02  0.30000011206E+02 0.  0.
         12    1    1    2    0    0 -0.20859877695E+02 -0.28700846257E+02  0.19856794923E+02  0.40659136463E+02  0.00000000000E+00 0. -1.
         11    1    3    3    0    0  0.41822574808E+01  0.16323770591E+02 -0.10568399770E+02  0.19890898368E+02  0.51100000000E-03 0. -1.
        -11    1    3    3    0    0 -0.24664352049E+01 -0.19721365881E+01 -0.56020915095E+01  0.64308673509E+01  0.51100000000E-03 0.  1.
        -12    1    3    3    0    0  0.19144055419E+02  0.14349212255E+02 -0.36863036441E+01  0.24207097818E+02  0.00000000000E+00 0.  1.
</event>
<event>
 7    1  0.5642630E-013  0.5052898E+02  0.7816164E-02  0.1300438E+00
        -11   -1    0    0    0    0  0.00000000000E+00  0.00000000000E+00  0.45593999997E+02  0.45594000000E+02  0.51100000000E-03 0. -1.
         11   -1    0    0    0    0 -0.00000000000E+00 -0.00000000000E+00 -0.45593999997E+02  0.45594000000E+02  0.51100000000E-03 0.  1.
    9900012    2    1    2    0    0 -0.49769029369E+00  0.33835340762E+02 -0.22540592216E+02  0.50528975447E+02  0.30000351368E+02 0.  0.
         12    1    1    2    0    0  0.49769029369E+00 -0.33835340762E+02  0.22540592216E+02  0.40659024553E+02  0.00000000000E+00 0. -1.
         11    1    3    3    0    0 -0.50646617356E-01  0.27996278655E+02 -0.14666995080E+02  0.31605615459E+02  0.51100000000E-03 0. -1.
        -11    1    3    3    0    0 -0.28214211069E+01  0.66255027744E+01 -0.12060157013E+02  0.14046533078E+02  0.51100000000E-03 0.  1.
         12    1    3    3    0    0  0.23743774305E+01 -0.78644066710E+00  0.41865598773E+01  0.48768269102E+01  0.00000000000E+00 0. -1.
</event>
<event>
 7    1  0.5642630E-013  0.5052885E+02  0.7816164E-02  0.1300439E+00
        -11   -1    0    0    0    0  0.00000000000E+00  0.00000000000E+00  0.45593999997E+02  0.45594000000E+02  0.51100000000E-03 0.  1.
         11   -1    0    0    0    0 -0.00000000000E+00 -0.00000000000E+00 -0.45593999997E+02  0.45594000000E+02  0.51100000000E-03 0. -1.
    9900012    2    1    2    0    0  0.16584685902E+02  0.22220761126E+02  0.29738059459E+02  0.50528853282E+02  0.29999980035E+02 0.  0.
         12    1    1    2    0    0 -0.16584685902E+02 -0.22220761126E+02 -0.29738059459E+02  0.40659146718E+02  0.00000000000E+00 0. -1.
         11    1    3    3    0    0  0.60374537693E+01  0.49050691602E+01 -0.73488950065E-01  0.77791999826E+01  0.51100000000E-03 0. -1.
        -11    1    3    3    0    0  0.72978666921E+01 -0.27824470905E+01  0.16964377154E+02  0.18675946095E+02  0.51100000000E-03 0.  1.
        -12    1    3    3    0    0  0.32493654409E+01  0.20098139056E+02  0.12847171255E+02  0.24073707204E+02  0.00000000000E+00 0.  1.
</event>
<event>
 7    1  0.5642630E-013  0.5052886E+02  0.7816164E-02  0.1300439E+00
        -11   -1    0    0    0    0  0.00000000000E+00  0.00000000000E+00  0.45593999997E+02  0.45594000000E+02  0.51100000000E-03 0.  1.
         11   -1    0    0    0    0 -0.00000000000E+00 -0.00000000000E+00 -0.45593999997E+02  0.45594000000E+02  0.51100000000E-03 0. -1.
    9900012    2    1    2    0    0 -0.32883856706E+02 -0.15887275557E+02  0.17872111595E+02  0.50528856756E+02  0.29999990596E+02 0.  0.
         12    1    1    2    0    0  0.32883856706E+02  0.15887275557E+02 -0.17872111595E+02  0.40659143244E+02  0.00000000000E+00 0. -1.
         11    1    3    3    0    0  0.30459513352E+01 -0.48701326422E+00  0.49788035883E+01  0.58569178659E+01  0.51100000000E-03 0. -1.
        -11    1    3    3    0    0  0.17396670739E+01 -0.29493621395E+00  0.19653756689E+01  0.26412365815E+01  0.51100000000E-03 0.  1.
        -12    1    3    3    0    0 -0.37669475115E+02 -0.15105326079E+02  0.10927932337E+02  0.42030702309E+02  0.00000000000E+00 0.  1.
</event>
<event>
 7    1  0.5642630E-013  0.5052885E+02  0.7816164E-02  0.1300439E+00
        -11   -1    0    0    0    0  0.00000000000E+00  0.00000000000E+00  0.45593999997E+02  0.45594000000E+02  0.51100000000E-03 0. -1.
         11   -1    0    0    0    0 -0.00000000000E+00 -0.00000000000E+00 -0.45593999997E+02  0.45594000000E+02  0.51100000000E-03 0.  1.
    9900012    2    1    2    0    0  0.93578732070E+01 -0.35568080021E+02 -0.17335172870E+02  0.50528851881E+02  0.29999975777E+02 0.  0.
         12    1    1    2    0    0 -0.93578732070E+01  0.35568080021E+02  0.17335172870E+02  0.40659148119E+02  0.00000000000E+00 0. -1.
         11    1    3    3    0    0  0.10327023430E+02 -0.50719930122E+01 -0.81511693709E+01  0.14100144979E+02  0.51100000000E-03 0. -1.
        -11    1    3    3    0    0  0.72112475557E+01 -0.19721428217E+02 -0.91374366802E+01  0.22900427323E+02  0.51100000000E-03 0.  1.
         12    1    3    3    0    0 -0.81803977790E+01 -0.10774658792E+02 -0.46566818678E-01  0.13528279579E+02  0.00000000000E+00 0. -1.
</event>
<event>
 7    1  0.5642630E-013  0.5052886E+02  0.7816164E-02  0.1300439E+00
        -11   -1    0    0    0    0  0.00000000000E+00  0.00000000000E+00  0.45593999997E+02  0.45594000000E+02  0.51100000000E-03 0. -1.
         11   -1    0    0    0    0 -0.00000000000E+00 -0.00000000000E+00 -0.45593999997E+02  0.45594000000E+02  0.51100000000E-03 0.  1.
    9900012    2    1    2    0    0  0.20778089720E+02  0.34855028504E+02  0.25618917635E+01  0.50528864325E+02  0.30000013603E+02 0.  0.
         12    1    1    2    0    0 -0.20778089720E+02 -0.34855028504E+02 -0.25618917635E+01  0.40659135675E+02  0.00000000000E+00 0. -1.
         11    1    3    3    0    0  0.34137744868E+01  0.32738016799E+01  0.28638494987E+01  0.55293098935E+01  0.51100000000E-03 0. -1.
        -11    1    3    3    0    0  0.15553685575E+02  0.18322500161E+02  0.11963620352E+02  0.26846961826E+02  0.51100000000E-03 0.  1.
        -12    1    3    3    0    0  0.18106296590E+01  0.13258726663E+02 -0.12265578088E+02  0.18152592606E+02  0.00000000000E+00 0.  1.
</event>
<event>
 7    1  0.5642630E-013  0.5052888E+02  0.7816164E-02  0.1300439E+00
        -11   -1    0    0    0    0  0.00000000000E+00  0.00000000000E+00  0.45593999997E+02  0.45594000000E+02  0.51100000000E-03 0.  1.
         11   -1    0    0    0    0 -0.00000000000E+00 -0.00000000000E+00 -0.45593999997E+02  0.45594000000E+02  0.51100000000E-03 0. -1.
    9900012    2    1    2    0    0 -0.32329657733E+02  0.23493385768E+02  0.74845058784E+01  0.50528883282E+02  0.30000071225E+02 0.  0.
         12    1    1    2    0    0  0.32329657733E+02 -0.23493385768E+02 -0.74845058784E+01  0.40659116718E+02  0.00000000000E+00 0. -1.
         11    1    3    3    0    0 -0.80824969260E+01  0.11622964175E+02 -0.67982016990E+00  0.14173292084E+02  0.51100000000E-03 0. -1.
        -11    1    3    3    0    0 -0.97114810563E+01  0.17215323861E+02  0.27857022606E+01  0.19960971352E+02  0.51100000000E-03 0.  1.
         12    1    3    3    0    0 -0.14535679751E+02 -0.53449022680E+01  0.53786237877E+01  0.16394619847E+02  0.00000000000E+00 0. -1.
</event>
<event>
 7    1  0.5642630E-013  0.5052889E+02  0.7816164E-02  0.1300439E+00
        -11   -1    0    0    0    0  0.00000000000E+00  0.00000000000E+00  0.45593999997E+02  0.45594000000E+02  0.51100000000E-03 0. -1.
         11   -1    0    0    0    0 -0.00000000000E+00 -0.00000000000E+00 -0.45593999997E+02  0.45594000000E+02  0.51100000000E-03 0.  1.
    9900012    2    1    2    0    0 -0.30507495387E+02  0.22944639706E+02 -0.13999981179E+02  0.50528889840E+02  0.30000091157E+02 0.  0.
         12    1    1    2    0    0  0.30507495387E+02 -0.22944639706E+02  0.13999981179E+02  0.40659110160E+02  0.00000000000E+00 0. -1.
         11    1    3    3    0    0 -0.40966702764E+01  0.10002561490E+02  0.52349405657E+00  0.10821644515E+02  0.51100000000E-03 0. -1.
        -11    1    3    3    0    0 -0.17889128769E+01  0.77696794637E+01  0.35515804889E+01  0.87282216104E+01  0.51100000000E-03 0.  1.
         12    1    3    3    0    0 -0.24621912233E+02  0.51723987521E+01 -0.18075055724E+02  0.30979023715E+02  0.00000000000E+00 0. -1.
</event>
<event>
 7    1  0.5642630E-013  0.5052886E+02  0.7816164E-02  0.1300439E+00
        -11   -1    0    0    0    0  0.00000000000E+00  0.00000000000E+00  0.45593999997E+02  0.45594000000E+02  0.51100000000E-03 0. -1.
         11   -1    0    0    0    0 -0.00000000000E+00 -0.00000000000E+00 -0.45593999997E+02  0.45594000000E+02  0.51100000000E-03 0.  1.
    9900012    2    1    2    0    0 -0.47790409500E+01  0.36040783060E+02 -0.18204086173E+02  0.50528855526E+02  0.29999986856E+02 0.  0.
         12    1    1    2    0    0  0.47790409500E+01 -0.36040783060E+02  0.18204086173E+02  0.40659144474E+02  0.00000000000E+00 0. -1.
         11    1    3    3    0    0 -0.13281431443E+02  0.22752334856E+02 -0.15343095370E+02  0.30487304544E+02  0.51100000000E-03 0. -1.
        -11    1    3    3    0    0  0.28349651493E+01 -0.11809037278E+01 -0.32838196575E+01  0.44961130786E+01  0.51100000000E-03 0.  1.
        -12    1    3    3    0    0  0.56674253437E+01  0.14469351932E+02  0.42282885489E+00  0.15545437903E+02  0.00000000000E+00 0.  1.
</event>
<event>
 7    1  0.5642630E-013  0.5052885E+02  0.7816164E-02  0.1300439E+00
        -11   -1    0    0    0    0  0.00000000000E+00  0.00000000000E+00  0.45593999997E+02  0.45594000000E+02  0.51100000000E-03 0.  1.
         11   -1    0    0    0    0 -0.00000000000E+00 -0.00000000000E+00 -0.45593999997E+02  0.45594000000E+02  0.51100000000E-03 0. -1.
    9900012    2    1    2    0    0 -0.19514070203E+02  0.29184603529E+02  0.20509178825E+02  0.50528850536E+02  0.29999971690E+02 0.  0.
         12    1    1    2    0    0  0.19514070203E+02 -0.29184603529E+02 -0.20509178825E+02  0.40659149464E+02  0.00000000000E+00 0. -1.
         11    1    3    3    0    0 -0.12282805072E+02  0.88124693771E+01 -0.33475095167E+01  0.15483305112E+02  0.51100000000E-03 0. -1.
        -11    1    3    3    0    0  0.34408728212E+01  0.14399283520E+01  0.20409147291E+01  0.42518622536E+01  0.51100000000E-03 0.  1.
        -12    1    3    3    0    0 -0.10672137952E+02  0.18932205800E+02  0.21815773612E+02  0.30793683171E+02  0.00000000000E+00 0.  1.
</event>
<event>
 7    1  0.5642630E-013  0.5052886E+02  0.7816164E-02  0.1300439E+00
        -11   -1    0    0    0    0  0.00000000000E+00  0.00000000000E+00  0.45593999997E+02  0.45594000000E+02  0.51100000000E-03 0.  1.
         11   -1    0    0    0    0 -0.00000000000E+00 -0.00000000000E+00 -0.45593999997E+02  0.45594000000E+02  0.51100000000E-03 0. -1.
    9900012    2    1    2    0    0  0.22496192234E+01 -0.31288971715E+02  0.25867067860E+02  0.50528859118E+02  0.29999997774E+02 0.  0.
         12    1    1    2    0    0 -0.22496192234E+01  0.31288971715E+02 -0.25867067860E+02  0.40659140882E+02  0.00000000000E+00 0. -1.
         11    1    3    3    0    0  0.10780411527E+01 -0.10986362156E+02  0.36027094521E+01  0.11612141999E+02  0.51100000000E-03 0. -1.
        -11    1    3    3    0    0  0.29301291258E+01 -0.12477167622E+02 -0.23484903971E+01  0.13029995240E+02  0.51100000000E-03 0.  1.
        -12    1    3    3    0    0 -0.17585510551E+01 -0.78254419379E+01  0.24612848805E+02  0.25886721878E+02  0.00000000000E+00 0.  1.
</event>
<event>
 7    1  0.5642630E-013  0.5052887E+02  0.7816164E-02  0.1300439E+00
        -11   -1    0    0    0    0  0.00000000000E+00  0.00000000000E+00  0.45593999997E+02  0.45594000000E+02  0.51100000000E-03 0. -1.
         11   -1    0    0    0    0 -0.00000000000E+00 -0.00000000000E+00 -0.45593999997E+02  0.45594000000E+02  0.51100000000E-03 0.  1.
    9900012    2    1    2    0    0  0.20780923744E+01 -0.36320821475E+02  0.18156118943E+02  0.50528865779E+02  0.30000018021E+02 0.  0.
         12    1    1    2    0    0 -0.20780923744E+01  0.36320821475E+02 -0.18156118943E+02  0.40659134221E+02  0.00000000000E+00 0. -1.
         11    1    3    3    0    0  0.49083577001E+01 -0.19282425413E+02  0.93292747055E+00  0.19919193233E+02  0.51100000000E-03 0.  1.
        -11    1    3    3    0    0 -0.15245458229E+01 -0.65800971573E+01 -0.33157864721E+01  0.75243842775E+01  0.51100000000E-03 0. -1.
         12    1    3    3    0    0 -0.13057195028E+01 -0.10458298905E+02  0.20538977945E+02  0.23085288268E+02  0.00000000000E+00 0. -1.
</event>
<event>
 7    1  0.5642630E-013  0.5052885E+02  0.7816164E-02  0.1300439E+00
        -11   -1    0    0    0    0  0.00000000000E+00  0.00000000000E+00  0.45593999997E+02  0.45594000000E+02  0.51100000000E-03 0.  1.
         11   -1    0    0    0    0 -0.00000000000E+00 -0.00000000000E+00 -0.45593999997E+02  0.45594000000E+02  0.51100000000E-03 0. -1.
    9900012    2    1    2    0    0  0.17970142069E+02  0.10101094584E+02  0.35045807542E+02  0.50528846737E+02  0.29999960142E+02 0.  0.
         12    1    1    2    0    0 -0.17970142069E+02 -0.10101094584E+02 -0.35045807542E+02  0.40659153263E+02  0.00000000000E+00 0. -1.
         11    1    3    3    0    0 -0.80211379629E+01  0.55203574032E+01  0.82732043262E+01  0.12777281016E+02  0.51100000000E-03 0. -1.
        -11    1    3    3    0    0  0.73793389292E+01  0.88663689583E+00  0.55016275195E+01  0.92470900094E+01  0.51100000000E-03 0.  1.
         12    1    3    3    0    0  0.18611941103E+02  0.36941002851E+01  0.21270975696E+02  0.28504475712E+02  0.00000000000E+00 0. -1.
</event>
<event>
 7    1  0.5642630E-013  0.5052887E+02  0.7816164E-02  0.1300439E+00
        -11   -1    0    0    0    0  0.00000000000E+00  0.00000000000E+00  0.45593999997E+02  0.45594000000E+02  0.51100000000E-03 0.  1.
         11   -1    0    0    0    0 -0.00000000000E+00 -0.00000000000E+00 -0.45593999997E+02  0.45594000000E+02  0.51100000000E-03 0. -1.
    9900012    2    1    2    0    0 -0.20472440083E+02 -0.27892939099E+02  0.21354817065E+02  0.50528867367E+02  0.30000022850E+02 0.  0.
         12    1    1    2    0    0  0.20472440083E+02  0.27892939099E+02 -0.21354817065E+02  0.40659132633E+02  0.00000000000E+00 0. -1.
         11    1    3    3    0    0 -0.68867313209E+01 -0.32191757318E+01  0.46037251352E+01  0.88873193968E+01  0.51100000000E-03 0. -1.
        -11    1    3    3    0    0 -0.13147852235E+02 -0.16011880780E+02 -0.21658880257E+01  0.20831164530E+02  0.51100000000E-03 0.  1.
         12    1    3    3    0    0 -0.43785652786E+00 -0.86618825875E+01  0.18916979955E+02  0.20810383440E+02  0.00000000000E+00 0. -1.
</event>
<event>
 7    1  0.5642630E-013  0.5052886E+02  0.7816164E-02  0.1300439E+00
        -11   -1    0    0    0    0  0.00000000000E+00  0.00000000000E+00  0.45593999997E+02  0.45594000000E+02  0.51100000000E-03 0.  1.
         11   -1    0    0    0    0 -0.00000000000E+00 -0.00000000000E+00 -0.45593999997E+02  0.45594000000E+02  0.51100000000E-03 0. -1.
    9900012    2    1    2    0    0 -0.22474681730E+02 -0.32756863319E+02  0.86626912518E+01  0.50528860399E+02  0.30000001669E+02 0.  0.
         12    1    1    2    0    0  0.22474681730E+02  0.32756863319E+02 -0.86626912518E+01  0.40659139601E+02  0.00000000000E+00 0. -1.
         11    1    3    3    0    0 -0.73224949858E+01 -0.17989605521E+02  0.14543248359E+01  0.19477163567E+02  0.51100000000E-03 0. -1.
        -11    1    3    3    0    0 -0.62234485873E+01 -0.12799337330E+02  0.13765767995E+02  0.19800270633E+02  0.51100000000E-03 0.  1.
         12    1    3    3    0    0 -0.89287381572E+01 -0.19679204675E+01 -0.65574015789E+01  0.11251426199E+02  0.00000000000E+00 0. -1.
</event>
<event>
 7    1  0.5642630E-013  0.5052884E+02  0.7816164E-02  0.1300439E+00
        -11   -1    0    0    0    0  0.00000000000E+00  0.00000000000E+00  0.45593999997E+02  0.45594000000E+02  0.51100000000E-03 0.  1.
         11   -1    0    0    0    0 -0.00000000000E+00 -0.00000000000E+00 -0.45593999997E+02  0.45594000000E+02  0.51100000000E-03 0. -1.
    9900012    2    1    2    0    0  0.35635875929E+02  0.19462945347E+02 -0.21084023246E+01  0.50528840452E+02  0.29999941039E+02 0.  0.
         12    1    1    2    0    0 -0.35635875929E+02 -0.19462945347E+02  0.21084023246E+01  0.40659159548E+02  0.00000000000E+00 0. -1.
         11    1    3    3    0    0  0.17674286115E+01 -0.57843273170E+01 -0.73323087397E+00  0.60926081593E+01  0.51100000000E-03 0. -1.
        -11    1    3    3    0    0  0.21439051104E+01  0.80208796277E+01 -0.67164655992E+00  0.83295827319E+01  0.51100000000E-03 0.  1.
        -12    1    3    3    0    0  0.31724542207E+02  0.17226393036E+02 -0.70352489072E+00  0.36106649561E+02  0.00000000000E+00 0.  1.
</event>
<event>
 7    1  0.5642630E-013  0.5052887E+02  0.7816164E-02  0.1300439E+00
        -11   -1    0    0    0    0  0.00000000000E+00  0.00000000000E+00  0.45593999997E+02  0.45594000000E+02  0.51100000000E-03 0. -1.
         11   -1    0    0    0    0 -0.00000000000E+00 -0.00000000000E+00 -0.45593999997E+02  0.45594000000E+02  0.51100000000E-03 0.  1.
    9900012    2    1    2    0    0  0.30060999187E+02 -0.63428705624E+01 -0.26632107383E+02  0.50528870364E+02  0.30000031959E+02 0.  0.
         12    1    1    2    0    0 -0.30060999187E+02  0.63428705624E+01  0.26632107383E+02  0.40659129636E+02  0.00000000000E+00 0. -1.
         11    1    3    3    0    0  0.13077228438E+02 -0.70306810060E+01 -0.15250651736E+02  0.21284425237E+02  0.51100000000E-03 0. -1.
        -11    1    3    3    0    0  0.12976036895E+02 -0.90783365669E+01 -0.96553512756E+01  0.18547763661E+02  0.51100000000E-03 0.  1.
         12    1    3    3    0    0  0.40077338540E+01  0.97661470104E+01 -0.17261043707E+01  0.10696681465E+02  0.00000000000E+00 0. -1.
</event>
<event>
 7    1  0.5642630E-013  0.5052886E+02  0.7816164E-02  0.1300439E+00
        -11   -1    0    0    0    0  0.00000000000E+00  0.00000000000E+00  0.45593999997E+02  0.45594000000E+02  0.51100000000E-03 0.  1.
         11   -1    0    0    0    0 -0.00000000000E+00 -0.00000000000E+00 -0.45593999997E+02  0.45594000000E+02  0.51100000000E-03 0. -1.
    9900012    2    1    2    0    0  0.30787916503E+02  0.16204614592E+02  0.21039970961E+02  0.50528859396E+02  0.29999998619E+02 0.  0.
         12    1    1    2    0    0 -0.30787916503E+02 -0.16204614592E+02 -0.21039970961E+02  0.40659140604E+02  0.00000000000E+00 0. -1.
         11    1    3    3    0    0 -0.75515552690E-01  0.43602225076E+01  0.61478808703E+01  0.75374851490E+01  0.51100000000E-03 0. -1.
        -11    1    3    3    0    0  0.15565506923E-01  0.87504057667E+01  0.37563261525E+00  0.87584783775E+01  0.51100000000E-03 0.  1.
        -12    1    3    3    0    0  0.30847866549E+02  0.30939863172E+01  0.14516457475E+02  0.34232895869E+02  0.00000000000E+00 0.  1.
</event>
<event>
 7    1  0.5642630E-013  0.5052884E+02  0.7816164E-02  0.1300439E+00
        -11   -1    0    0    0    0  0.00000000000E+00  0.00000000000E+00  0.45593999997E+02  0.45594000000E+02  0.51100000000E-03 0. -1.
         11   -1    0    0    0    0 -0.00000000000E+00 -0.00000000000E+00 -0.45593999997E+02  0.45594000000E+02  0.51100000000E-03 0.  1.
    9900012    2    1    2    0    0 -0.14920478363E+02 -0.35897182982E+02 -0.11913798662E+02  0.50528843353E+02  0.29999949857E+02 0.  0.
         12    1    1    2    0    0  0.14920478363E+02  0.35897182982E+02  0.11913798662E+02  0.40659156647E+02  0.00000000000E+00 0. -1.
         11    1    3    3    0    0 -0.57412307053E+01 -0.45434027153E+01 -0.63665874863E+01  0.97024571489E+01  0.51100000000E-03 0. -1.
        -11    1    3    3    0    0 -0.14406786819E+01 -0.16484402216E+02 -0.14341233626E+02  0.21897078655E+02  0.51100000000E-03 0.  1.
         12    1    3    3    0    0 -0.77385689763E+01 -0.14869378051E+02  0.87940224502E+01  0.18929307549E+02  0.00000000000E+00 0. -1.
</event>
<event>
 7    1  0.5642630E-013  0.5052886E+02  0.7816164E-02  0.1300439E+00
        -11   -1    0    0    0    0  0.00000000000E+00  0.00000000000E+00  0.45593999997E+02  0.45594000000E+02  0.51100000000E-03 0.  1.
         11   -1    0    0    0    0 -0.00000000000E+00 -0.00000000000E+00 -0.45593999997E+02  0.45594000000E+02  0.51100000000E-03 0. -1.
    9900012    2    1    2    0    0 -0.37864985600E+02  0.12268293032E+02 -0.83004430974E+01  0.50528861986E+02  0.30000006492E+02 0.  0.
         12    1    1    2    0    0  0.37864985600E+02 -0.12268293032E+02  0.83004430974E+01  0.40659138014E+02  0.00000000000E+00 0. -1.
         11    1    3    3    0    0 -0.75498579632E+01 -0.36716842536E+01 -0.56028444711E+01  0.10093239666E+02  0.51100000000E-03 0. -1.
        -11    1    3    3    0    0 -0.23334117974E+02  0.11534447424E+01 -0.50878674312E+01  0.23910204760E+02  0.51100000000E-03 0.  1.
         12    1    3    3    0    0 -0.69810096632E+01  0.14786532544E+02  0.23902688049E+01  0.16525417560E+02  0.00000000000E+00 0. -1.
</event>
<event>
 7    1  0.5642630E-013  0.5052887E+02  0.7816164E-02  0.1300439E+00
        -11   -1    0    0    0    0  0.00000000000E+00  0.00000000000E+00  0.45593999997E+02  0.45594000000E+02  0.51100000000E-03 0.  1.
         11   -1    0    0    0    0 -0.00000000000E+00 -0.00000000000E+00 -0.45593999997E+02  0.45594000000E+02  0.51100000000E-03 0. -1.
    9900012    2    1    2    0    0 -0.36367821601E+02  0.35457041198E+01  0.17831838632E+02  0.50528868988E+02  0.30000027775E+02 0.  0.
         12    1    1    2    0    0  0.36367821601E+02 -0.35457041198E+01 -0.17831838632E+02  0.40659131012E+02  0.00000000000E+00 0. -1.
         11    1    3    3    0    0 -0.97327148994E+01  0.22557484533E+01  0.62200129921E+01  0.11768717104E+02  0.51100000000E-03 0. -1.
        -11    1    3    3    0    0 -0.15816306601E+02  0.13408125979E+02  0.64477467786E+01  0.21714208149E+02  0.51100000000E-03 0.  1.
         12    1    3    3    0    0 -0.10818800101E+02 -0.12118170312E+02  0.51640788609E+01  0.17045943735E+02  0.00000000000E+00 0. -1.
</event>
<event>
 7    1  0.5890714E-013  0.5052886E+02  0.7816164E-02  0.1300439E+00
        -11   -1    0    0    0    0  0.00000000000E+00  0.00000000000E+00  0.45593999997E+02  0.45594000000E+02  0.51100000000E-03 0.  1.
         11   -1    0    0    0    0 -0.00000000000E+00 -0.00000000000E+00 -0.45593999997E+02  0.45594000000E+02  0.51100000000E-03 0. -1.
    9900012    2    1    2    0    0  0.13953871747E+01  0.31848026672E+02  0.25237312423E+02  0.50528857773E+02  0.29999993687E+02 0.  0.
         12    1    1    2    0    0 -0.13953871747E+01 -0.31848026672E+02 -0.25237312423E+02  0.40659142227E+02  0.00000000000E+00 0. -1.
         11    1    3    3    0    0  0.24245988102E+01  0.49509577963E+00 -0.24877424734E+01  0.35089403096E+01  0.51100000000E-03 0. -1.
        -11    1    3    3    0    0 -0.30663959847E+01 -0.18979368142E+01  0.67513048686E+01  0.76540882002E+01  0.51100000000E-03 0.  1.
        -12    1    3    3    0    0  0.20371843492E+01  0.33250867707E+02  0.20973750028E+02  0.39365829263E+02  0.00000000000E+00 0.  1.
</event>
<event>
 7    1  0.5642630E-013  0.5052887E+02  0.7816164E-02  0.1300439E+00
        -11   -1    0    0    0    0  0.00000000000E+00  0.00000000000E+00  0.45593999997E+02  0.45594000000E+02  0.51100000000E-03 0.  1.
         11   -1    0    0    0    0 -0.00000000000E+00 -0.00000000000E+00 -0.45593999997E+02  0.45594000000E+02  0.51100000000E-03 0. -1.
    9900012    2    1    2    0    0 -0.38694006178E+02 -0.19559313325E+01  0.12333416613E+02  0.50528868838E+02  0.30000027321E+02 0.  0.
         12    1    1    2    0    0  0.38694006178E+02  0.19559313325E+01 -0.12333416613E+02  0.40659131162E+02  0.00000000000E+00 0. -1.
         11    1    3    3    0    0 -0.24896850102E+01  0.29723974736E+01  0.10176810309E+02  0.10890415351E+02  0.51100000000E-03 0.  1.
        -11    1    3    3    0    0 -0.30273474694E+01 -0.55488708641E+01 -0.55363303958E+00  0.63451800897E+01  0.51100000000E-03 0. -1.
         12    1    3    3    0    0 -0.33176973698E+02  0.62054205800E+00  0.27102393430E+01  0.33293273397E+02  0.00000000000E+00 0. -1.
</event>
<event>
 7    1  0.5642630E-013  0.5052884E+02  0.7816164E-02  0.1300439E+00
        -11   -1    0    0    0    0  0.00000000000E+00  0.00000000000E+00  0.45593999997E+02  0.45594000000E+02  0.51100000000E-03 0.  1.
         11   -1    0    0    0    0 -0.00000000000E+00 -0.00000000000E+00 -0.45593999997E+02  0.45594000000E+02  0.51100000000E-03 0. -1.
    9900012    2    1    2    0    0 -0.39274162862E+02 -0.41406876357E+01 -0.96727480578E+01  0.50528840914E+02  0.29999942441E+02 0.  0.
         12    1    1    2    0    0  0.39274162862E+02  0.41406876357E+01  0.96727480578E+01  0.40659159086E+02  0.00000000000E+00 0. -1.
         11    1    3    3    0    0 -0.88281822612E+01  0.39764210261E+01 -0.10288364595E+01  0.97369004789E+01  0.51100000000E-03 0. -1.
        -11    1    3    3    0    0 -0.18147104129E+02  0.72367968039E+01 -0.62184993132E+00  0.19546746886E+02  0.51100000000E-03 0.  1.
         12    1    3    3    0    0 -0.12298876472E+02 -0.15353905466E+02 -0.80220616670E+01  0.21245193549E+02  0.00000000000E+00 0. -1.
</event>
<event>
 7    1  0.5642630E-013  0.5052887E+02  0.7816164E-02  0.1300439E+00
        -11   -1    0    0    0    0  0.00000000000E+00  0.00000000000E+00  0.45593999997E+02  0.45594000000E+02  0.51100000000E-03 0.  1.
         11   -1    0    0    0    0 -0.00000000000E+00 -0.00000000000E+00 -0.45593999997E+02  0.45594000000E+02  0.51100000000E-03 0. -1.
    9900012    2    1    2    0    0  0.21450669366E+02  0.30552132218E+02  0.16112144824E+02  0.50528865600E+02  0.30000017479E+02 0.  0.
         12    1    1    2    0    0 -0.21450669366E+02 -0.30552132218E+02 -0.16112144824E+02  0.40659134400E+02  0.00000000000E+00 0. -1.
         11    1    3    3    0    0  0.27813049910E+01  0.15519277337E+01 -0.66880996154E+01  0.74077536318E+01  0.51100000000E-03 0. -1.
        -11    1    3    3    0    0 -0.13811444974E+01  0.72178880660E+00  0.25091633859E+01  0.29537163646E+01  0.51100000000E-03 0.  1.
        -12    1    3    3    0    0  0.20050508872E+02  0.28278415678E+02  0.20291081054E+02  0.40167395604E+02  0.00000000000E+00 0.  1.
</event>
<event>
 7    1  0.5642630E-013  0.5052887E+02  0.7816164E-02  0.1300439E+00
        -11   -1    0    0    0    0  0.00000000000E+00  0.00000000000E+00  0.45593999997E+02  0.45594000000E+02  0.51100000000E-03 0.  1.
         11   -1    0    0    0    0 -0.00000000000E+00 -0.00000000000E+00 -0.45593999997E+02  0.45594000000E+02  0.51100000000E-03 0. -1.
    9900012    2    1    2    0    0 -0.27296495617E+02 -0.19734025026E+02  0.22773555722E+02  0.50528865025E+02  0.30000015730E+02 0.  0.
         12    1    1    2    0    0  0.27296495617E+02  0.19734025026E+02 -0.22773555722E+02  0.40659134975E+02  0.00000000000E+00 0. -1.
         11    1    3    3    0    0 -0.10436738173E+02 -0.87485569937E+01 -0.17503531687E+01  0.13730494880E+02  0.51100000000E-03 0. -1.
        -11    1    3    3    0    0 -0.10570877651E+02 -0.48519076168E+01  0.98400675261E+00  0.11672734529E+02  0.51100000000E-03 0.  1.
        -12    1    3    3    0    0 -0.62888797923E+01 -0.61335604154E+01  0.23539902139E+02  0.25125635616E+02  0.00000000000E+00 0.  1.
</event>
<event>
 7    1  0.5642630E-013  0.5052886E+02  0.7816164E-02  0.1300439E+00
        -11   -1    0    0    0    0  0.00000000000E+00  0.00000000000E+00  0.45593999997E+02  0.45594000000E+02  0.51100000000E-03 0. -1.
         11   -1    0    0    0    0 -0.00000000000E+00 -0.00000000000E+00 -0.45593999997E+02  0.45594000000E+02  0.51100000000E-03 0.  1.
    9900012    2    1    2    0    0  0.66749326849E+01 -0.38942646696E+02 -0.95959147095E+01  0.50528855430E+02  0.29999986565E+02 0.  0.
         12    1    1    2    0    0 -0.66749326849E+01  0.38942646696E+02  0.95959147095E+01  0.40659144570E+02  0.00000000000E+00 0. -1.
         11    1    3    3    0    0  0.22838186317E+01 -0.21564557000E+01 -0.85309118038E+01  0.90907967304E+01  0.51100000000E-03 0. -1.
        -11    1    3    3    0    0 -0.67704521253E+01 -0.76916984274E+01 -0.75075703540E+00  0.10274477265E+02  0.51100000000E-03 0.  1.
        -12    1    3    3    0    0  0.11161566179E+02 -0.29094492569E+02 -0.31424587029E+00  0.31163581435E+02  0.00000000000E+00 0.  1.
</event>
<event>
 7    1  0.5642630E-013  0.5052888E+02  0.7816164E-02  0.1300439E+00
        -11   -1    0    0    0    0  0.00000000000E+00  0.00000000000E+00  0.45593999997E+02  0.45594000000E+02  0.51100000000E-03 0.  1.
         11   -1    0    0    0    0 -0.00000000000E+00 -0.00000000000E+00 -0.45593999997E+02  0.45594000000E+02  0.51100000000E-03 0. -1.
    9900012    2    1    2    0    0 -0.25913827974E+02  0.74977552503E+01  0.30420741665E+02  0.50528876331E+02  0.30000050096E+02 0.  0.
         12    1    1    2    0    0  0.25913827974E+02 -0.74977552503E+01 -0.30420741665E+02  0.40659123669E+02  0.00000000000E+00 0. -1.
         11    1    3    3    0    0 -0.48708969642E+00 -0.48446385405E-01 -0.24379342319E+01  0.24865894323E+01  0.51100000000E-03 0. -1.
        -11    1    3    3    0    0 -0.14513415275E+01  0.47533405982E+01 -0.22347046781E+01  0.54492700732E+01  0.51100000000E-03 0.  1.
        -12    1    3    3    0    0 -0.23975396750E+02  0.27928610376E+01  0.35093380575E+02  0.42593016826E+02  0.00000000000E+00 0.  1.
</event>
<event>
 7    1  0.5642630E-013  0.5052886E+02  0.7816164E-02  0.1300439E+00
        -11   -1    0    0    0    0  0.00000000000E+00  0.00000000000E+00  0.45593999997E+02  0.45594000000E+02  0.51100000000E-03 0. -1.
         11   -1    0    0    0    0 -0.00000000000E+00 -0.00000000000E+00 -0.45593999997E+02  0.45594000000E+02  0.51100000000E-03 0.  1.
    9900012    2    1    2    0    0 -0.23979320558E+02 -0.50266340500E+01  0.32448281365E+02  0.50528858004E+02  0.29999994388E+02 0.  0.
         12    1    1    2    0    0  0.23979320558E+02  0.50266340500E+01 -0.32448281365E+02  0.40659141996E+02  0.00000000000E+00 0. -1.
         11    1    3    3    0    0 -0.77493747174E+01  0.50945786027E+01  0.76230939617E+01  0.12004961535E+02  0.51100000000E-03 0. -1.
        -11    1    3    3    0    0 -0.13829869368E+02  0.42232319788E+01  0.15747653573E+02  0.21379653140E+02  0.51100000000E-03 0.  1.
         12    1    3    3    0    0 -0.24000764729E+01 -0.14344444632E+02  0.90775338309E+01  0.17144243329E+02  0.00000000000E+00 0. -1.
</event>
<event>
 7    1  0.5642630E-013  0.5052886E+02  0.7816164E-02  0.1300439E+00
        -11   -1    0    0    0    0  0.00000000000E+00  0.00000000000E+00  0.45593999997E+02  0.45594000000E+02  0.51100000000E-03 0. -1.
         11   -1    0    0    0    0 -0.00000000000E+00 -0.00000000000E+00 -0.45593999997E+02  0.45594000000E+02  0.51100000000E-03 0.  1.
    9900012    2    1    2    0    0  0.22586340179E+02  0.29686213513E+02 -0.16178735597E+02  0.50528861778E+02  0.30000005862E+02 0.  0.
         12    1    1    2    0    0 -0.22586340179E+02 -0.29686213513E+02  0.16178735597E+02  0.40659138222E+02  0.00000000000E+00 0. -1.
         11    1    3    3    0    0 -0.21083088312E+00  0.62239776273E+01 -0.20913961076E+01  0.65693443437E+01  0.51100000000E-03 0.  1.
        -11    1    3    3    0    0  0.22266924585E+02  0.15302929200E+02  0.73842386420E+00  0.27028519061E+02  0.51100000000E-03 0. -1.
         12    1    3    3    0    0  0.53024647742E+00  0.81593066852E+01 -0.14825763354E+02  0.16930998374E+02  0.00000000000E+00 0. -1.
</event>
<event>
 7    1  0.5642630E-013  0.5052884E+02  0.7816164E-02  0.1300439E+00
        -11   -1    0    0    0    0  0.00000000000E+00  0.00000000000E+00  0.45593999997E+02  0.45594000000E+02  0.51100000000E-03 0. -1.
         11   -1    0    0    0    0 -0.00000000000E+00 -0.00000000000E+00 -0.45593999997E+02  0.45594000000E+02  0.51100000000E-03 0.  1.
    9900012    2    1    2    0    0  0.20952447594E+02  0.25928575472E+02 -0.23278131212E+02  0.50528837700E+02  0.29999932672E+02 0.  0.
         12    1    1    2    0    0 -0.20952447594E+02 -0.25928575472E+02  0.23278131212E+02  0.40659162300E+02  0.00000000000E+00 0. -1.
         11    1    3    3    0    0  0.12163233013E+02  0.71125054867E+01 -0.18267756641E+01  0.14208063950E+02  0.51100000000E-03 0. -1.
        -11    1    3    3    0    0 -0.48759319348E+01 -0.79279649291E+00 -0.14313646339E+01  0.51431550130E+01  0.51100000000E-03 0.  1.
        -12    1    3    3    0    0  0.13665146516E+02  0.19608866479E+02 -0.20019990914E+02  0.31177618737E+02  0.00000000000E+00 0.  1.
</event>
<event>
 7    1  0.5642630E-013  0.5052886E+02  0.7816164E-02  0.1300439E+00
        -11   -1    0    0    0    0  0.00000000000E+00  0.00000000000E+00  0.45593999997E+02  0.45594000000E+02  0.51100000000E-03 0.  1.
         11   -1    0    0    0    0 -0.00000000000E+00 -0.00000000000E+00 -0.45593999997E+02  0.45594000000E+02  0.51100000000E-03 0. -1.
    9900012    2    1    2    0    0 -0.20932306486E+02 -0.22623450529E+02  0.26517608596E+02  0.50528861614E+02  0.30000005361E+02 0.  0.
         12    1    1    2    0    0  0.20932306486E+02  0.22623450529E+02 -0.26517608596E+02  0.40659138386E+02  0.00000000000E+00 0. -1.
         11    1    3    3    0    0 -0.14049112553E+01  0.49959856058E+01  0.12761829265E+01  0.53443700220E+01  0.51100000000E-03 0. -1.
        -11    1    3    3    0    0 -0.59953937491E+01 -0.19692231928E+02  0.85746177340E+01  0.22299166219E+02  0.51100000000E-03 0.  1.
         12    1    3    3    0    0 -0.13532001482E+02 -0.79272042062E+01  0.16666807936E+02  0.22885325372E+02  0.00000000000E+00 0. -1.
</event>
<event>
 7    1  0.5642630E-013  0.5052886E+02  0.7816164E-02  0.1300439E+00
        -11   -1    0    0    0    0  0.00000000000E+00  0.00000000000E+00  0.45593999997E+02  0.45594000000E+02  0.51100000000E-03 0.  1.
         11   -1    0    0    0    0 -0.00000000000E+00 -0.00000000000E+00 -0.45593999997E+02  0.45594000000E+02  0.51100000000E-03 0. -1.
    9900012    2    1    2    0    0  0.78458623237E+01 -0.31056530828E+02  0.25041960280E+02  0.50528862806E+02  0.30000008986E+02 0.  0.
         12    1    1    2    0    0 -0.78458623237E+01  0.31056530828E+02 -0.25041960280E+02  0.40659137194E+02  0.00000000000E+00 0. -1.
         11    1    3    3    0    0  0.40663204073E+01 -0.13912484213E+02 -0.24127217891E+01  0.14693992151E+02  0.51100000000E-03 0. -1.
        -11    1    3    3    0    0 -0.36476774185E+01 -0.99416016906E+01  0.63942731935E+01  0.12370437529E+02  0.51100000000E-03 0.  1.
        -12    1    3    3    0    0  0.74272193349E+01 -0.72024449244E+01  0.21060408876E+02  0.23464433127E+02  0.00000000000E+00 0.  1.
</event>
<event>
 7    1  0.5642630E-013  0.5052886E+02  0.7816164E-02  0.1300439E+00
        -11   -1    0    0    0    0  0.00000000000E+00  0.00000000000E+00  0.45593999997E+02  0.45594000000E+02  0.51100000000E-03 0.  1.
         11   -1    0    0    0    0 -0.00000000000E+00 -0.00000000000E+00 -0.45593999997E+02  0.45594000000E+02  0.51100000000E-03 0. -1.
    9900012    2    1    2    0    0  0.37606399975E+02  0.61761573542E+01  0.14169662459E+02  0.50528861138E+02  0.30000003916E+02 0.  0.
         12    1    1    2    0    0 -0.37606399975E+02 -0.61761573542E+01 -0.14169662459E+02  0.40659138862E+02  0.00000000000E+00 0. -1.
         11    1    3    3    0    0  0.21378175579E+02  0.47887684921E+01  0.18491118902E+02  0.28668452579E+02  0.51100000000E-03 0. -1.
        -11    1    3    3    0    0  0.13002906638E+02  0.32523313577E+01  0.29189829219E+01  0.13717641994E+02  0.51100000000E-03 0.  1.
         12    1    3    3    0    0  0.32253177579E+01 -0.18649424956E+01 -0.72404393646E+01  0.81427665658E+01  0.00000000000E+00 0. -1.
</event>
<event>
 7    1  0.5642630E-013  0.5052887E+02  0.7816164E-02  0.1300439E+00
        -11   -1    0    0    0    0  0.00000000000E+00  0.00000000000E+00  0.45593999997E+02  0.45594000000E+02  0.51100000000E-03 0.  1.
         11   -1    0    0    0    0 -0.00000000000E+00 -0.00000000000E+00 -0.45593999997E+02  0.45594000000E+02  0.51100000000E-03 0. -1.
    9900012    2    1    2    0    0 -0.20254259250E+02  0.86668997407E+01  0.34173305913E+02  0.50528868112E+02  0.30000025114E+02 0.  0.
         12    1    1    2    0    0  0.20254259250E+02 -0.86668997407E+01 -0.34173305913E+02  0.40659131888E+02  0.00000000000E+00 0. -1.
         11    1    3    3    0    0 -0.53245704208E+01  0.17300938176E+01  0.15313268696E+02  0.16304615089E+02  0.51100000000E-03 0. -1.
        -11    1    3    3    0    0 -0.83170757130E+01 -0.35747553450E+01  0.19798823955E+02  0.21770302122E+02  0.51100000000E-03 0.  1.
         12    1    3    3    0    0 -0.66126131161E+01  0.10511561268E+02 -0.93878673874E+00  0.12453950902E+02  0.00000000000E+00 0. -1.
</event>
<event>
 7    1  0.5642630E-013  0.5052886E+02  0.7816164E-02  0.1300439E+00
        -11   -1    0    0    0    0  0.00000000000E+00  0.00000000000E+00  0.45593999997E+02  0.45594000000E+02  0.51100000000E-03 0.  1.
         11   -1    0    0    0    0 -0.00000000000E+00 -0.00000000000E+00 -0.45593999997E+02  0.45594000000E+02  0.51100000000E-03 0. -1.
    9900012    2    1    2    0    0 -0.26754208350E+02 -0.88790757164E+01  0.29300849527E+02  0.50528862860E+02  0.30000009148E+02 0.  0.
         12    1    1    2    0    0  0.26754208350E+02  0.88790757164E+01 -0.29300849527E+02  0.40659137140E+02  0.00000000000E+00 0. -1.
         11    1    3    3    0    0 -0.10953900678E+02  0.19693206852E+01  0.51150611743E+00  0.11141265763E+02  0.51100000000E-03 0. -1.
        -11    1    3    3    0    0  0.14922706057E+01  0.20853221309E+00 -0.19260577004E+01  0.24454152553E+01  0.51100000000E-03 0.  1.
        -12    1    3    3    0    0 -0.17292578278E+02 -0.11056928615E+02  0.30715401110E+02  0.36942181842E+02  0.00000000000E+00 0.  1.
</event>
<event>
 7    1  0.5642630E-013  0.5052887E+02  0.7816164E-02  0.1300439E+00
        -11   -1    0    0    0    0  0.00000000000E+00  0.00000000000E+00  0.45593999997E+02  0.45594000000E+02  0.51100000000E-03 0. -1.
         11   -1    0    0    0    0 -0.00000000000E+00 -0.00000000000E+00 -0.45593999997E+02  0.45594000000E+02  0.51100000000E-03 0.  1.
    9900012    2    1    2    0    0 -0.34736355860E+02  0.15434737644E+02 -0.14433284666E+02  0.50528865100E+02  0.30000015957E+02 0.  0.
         12    1    1    2    0    0  0.34736355860E+02 -0.15434737644E+02  0.14433284666E+02  0.40659134900E+02  0.00000000000E+00 0. -1.
         11    1    3    3    0    0 -0.21182250681E+02  0.20034365946E+02 -0.42542554688E+01  0.29464593203E+02  0.51100000000E-03 0. -1.
        -11    1    3    3    0    0 -0.37640598781E+01 -0.29345559458E+01  0.21487355175E+01  0.52341981191E+01  0.51100000000E-03 0.  1.
        -12    1    3    3    0    0 -0.97900453006E+01 -0.16650723555E+01 -0.12327764715E+02  0.15830073778E+02  0.00000000000E+00 0.  1.
</event>
<event>
 7    1  0.5642630E-013  0.5052886E+02  0.7816164E-02  0.1300439E+00
        -11   -1    0    0    0    0  0.00000000000E+00  0.00000000000E+00  0.45593999997E+02  0.45594000000E+02  0.51100000000E-03 0.  1.
         11   -1    0    0    0    0 -0.00000000000E+00 -0.00000000000E+00 -0.45593999997E+02  0.45594000000E+02  0.51100000000E-03 0. -1.
    9900012    2    1    2    0    0  0.10048572932E+02 -0.25195611224E+02  0.30288161058E+02  0.50528863964E+02  0.30000012504E+02 0.  0.
         12    1    1    2    0    0 -0.10048572932E+02  0.25195611224E+02 -0.30288161058E+02  0.40659136036E+02  0.00000000000E+00 0. -1.
         11    1    3    3    0    0 -0.18436240280E+01 -0.17629005442E+02  0.13732114006E+02  0.22422126076E+02  0.51100000000E-03 0. -1.
        -11    1    3    3    0    0  0.63376838871E+01 -0.51978911835E+01  0.19672280432E+02  0.21311567926E+02  0.51100000000E-03 0.  1.
         12    1    3    3    0    0  0.55545130726E+01 -0.23687145992E+01 -0.31162333804E+01  0.67951699616E+01  0.00000000000E+00 0. -1.
</event>
<event>
 7    1  0.5642630E-013  0.5052886E+02  0.7816164E-02  0.1300439E+00
        -11   -1    0    0    0    0  0.00000000000E+00  0.00000000000E+00  0.45593999997E+02  0.45594000000E+02  0.51100000000E-03 0.  1.
         11   -1    0    0    0    0 -0.00000000000E+00 -0.00000000000E+00 -0.45593999997E+02  0.45594000000E+02  0.51100000000E-03 0. -1.
    9900012    2    1    2    0    0 -0.48887356018E+01  0.16285772488E+02  0.36932904948E+02  0.50528860939E+02  0.30000003310E+02 0.  0.
         12    1    1    2    0    0  0.48887356018E+01 -0.16285772488E+02 -0.36932904948E+02  0.40659139061E+02  0.00000000000E+00 0. -1.
         11    1    3    3    0    0 -0.45386556712E+01  0.13364659631E+02  0.16160661884E+02  0.21456479561E+02  0.51100000000E-03 0.  1.
        -11    1    3    3    0    0 -0.96228060631E+01  0.49822797258E+01  0.10751134424E+02  0.15264612653E+02  0.51100000000E-03 0. -1.
         12    1    3    3    0    0  0.92727261325E+01 -0.20611668691E+01  0.10021108639E+02  0.13807768725E+02  0.00000000000E+00 0. -1.
</event>
<event>
 7    1  0.5642630E-013  0.5052886E+02  0.7816164E-02  0.1300439E+00
        -11   -1    0    0    0    0  0.00000000000E+00  0.00000000000E+00  0.45593999997E+02  0.45594000000E+02  0.51100000000E-03 0.  1.
         11   -1    0    0    0    0 -0.00000000000E+00 -0.00000000000E+00 -0.45593999997E+02  0.45594000000E+02  0.51100000000E-03 0. -1.
    9900012    2    1    2    0    0  0.81213005191E+01 -0.30292000168E+01  0.39724474543E+02  0.50528862619E+02  0.30000008416E+02 0.  0.
         12    1    1    2    0    0 -0.81213005191E+01  0.30292000168E+01 -0.39724474543E+02  0.40659137381E+02  0.00000000000E+00 0. -1.
         11    1    3    3    0    0  0.28696238276E+01 -0.38659029273E+01 -0.12945558699E+01  0.49855613040E+01  0.51100000000E-03 0. -1.
        -11    1    3    3    0    0  0.88342585543E+01 -0.39531858697E+00  0.69051299196E+01  0.11219680051E+02  0.51100000000E-03 0.  1.
        -12    1    3    3    0    0 -0.35825818628E+01  0.12320214974E+01  0.34113900493E+02  0.34323621263E+02  0.00000000000E+00 0.  1.
</event>
<event>
 7    1  0.5642630E-013  0.5052886E+02  0.7816164E-02  0.1300439E+00
        -11   -1    0    0    0    0  0.00000000000E+00  0.00000000000E+00  0.45593999997E+02  0.45594000000E+02  0.51100000000E-03 0.  1.
         11   -1    0    0    0    0 -0.00000000000E+00 -0.00000000000E+00 -0.45593999997E+02  0.45594000000E+02  0.51100000000E-03 0. -1.
    9900012    2    1    2    0    0 -0.11914687085E+02  0.31627369778E+02  0.22603440056E+02  0.50528858472E+02  0.29999995811E+02 0.  0.
         12    1    1    2    0    0  0.11914687085E+02 -0.31627369778E+02 -0.22603440056E+02  0.40659141528E+02  0.00000000000E+00 0. -1.
         11    1    3    3    0    0 -0.76034363320E+01  0.20464484460E+01  0.13091427548E+00  0.78751085139E+01  0.51100000000E-03 0. -1.
        -11    1    3    3    0    0 -0.97821859923E+01  0.60678105911E+01  0.11012214077E+02  0.15930422069E+02  0.51100000000E-03 0.  1.
        -12    1    3    3    0    0  0.54709352395E+01  0.23513110741E+02  0.11460311704E+02  0.26723327889E+02  0.00000000000E+00 0.  1.
</event>
<event>
 7    1  0.5642630E-013  0.5052885E+02  0.7816164E-02  0.1300439E+00
        -11   -1    0    0    0    0  0.00000000000E+00  0.00000000000E+00  0.45593999997E+02  0.45594000000E+02  0.51100000000E-03 0. -1.
         11   -1    0    0    0    0 -0.00000000000E+00 -0.00000000000E+00 -0.45593999997E+02  0.45594000000E+02  0.51100000000E-03 0.  1.
    9900012    2    1    2    0    0  0.14614263422E+02 -0.21533305452E+02 -0.31239506634E+02  0.50528847109E+02  0.29999961273E+02 0.  0.
         12    1    1    2    0    0 -0.14614263422E+02  0.21533305452E+02  0.31239506634E+02  0.40659152891E+02  0.00000000000E+00 0. -1.
         11    1    3    3    0    0 -0.20458298845E+01 -0.18479238443E+02 -0.73195003397E+01  0.19981060002E+02  0.51100000000E-03 0. -1.
        -11    1    3    3    0    0  0.90869836024E+01 -0.52165325761E+01 -0.96294088151E+01  0.14230635878E+02  0.51100000000E-03 0.  1.
        -12    1    3    3    0    0  0.75731097046E+01  0.21624655663E+01 -0.14290597479E+02  0.16317151229E+02  0.00000000000E+00 0.  1.
</event>
<event>
 7    1  0.5642630E-013  0.5052885E+02  0.7816164E-02  0.1300439E+00
        -11   -1    0    0    0    0  0.00000000000E+00  0.00000000000E+00  0.45593999997E+02  0.45594000000E+02  0.51100000000E-03 0. -1.
         11   -1    0    0    0    0 -0.00000000000E+00 -0.00000000000E+00 -0.45593999997E+02  0.45594000000E+02  0.51100000000E-03 0.  1.
    9900012    2    1    2    0    0 -0.10869650735E+02 -0.38977119832E+02 -0.39750894711E+01  0.50528849569E+02  0.29999968749E+02 0.  0.
         12    1    1    2    0    0  0.10869650735E+02  0.38977119832E+02  0.39750894711E+01  0.40659150431E+02  0.00000000000E+00 0. -1.
         11    1    3    3    0    0 -0.44712139985E+01 -0.10795426292E+02 -0.49265617580E+01  0.12680851488E+02  0.51100000000E-03 0. -1.
        -11    1    3    3    0    0 -0.32553880038E+01 -0.27784993341E+01 -0.93288977031E+01  0.10263817137E+02  0.51100000000E-03 0.  1.
         12    1    3    3    0    0 -0.31430487327E+01 -0.25403194206E+02  0.10280369990E+02  0.27584180944E+02  0.00000000000E+00 0. -1.
</event>
<event>
 7    1  0.5642630E-013  0.5052887E+02  0.7816164E-02  0.1300439E+00
        -11   -1    0    0    0    0  0.00000000000E+00  0.00000000000E+00  0.45593999997E+02  0.45594000000E+02  0.51100000000E-03 0. -1.
         11   -1    0    0    0    0 -0.00000000000E+00 -0.00000000000E+00 -0.45593999997E+02  0.45594000000E+02  0.51100000000E-03 0.  1.
    9900012    2    1    2    0    0  0.23639543286E+01 -0.29782592919E+02 -0.27578507764E+02  0.50528865583E+02  0.30000017425E+02 0.  0.
         12    1    1    2    0    0 -0.23639543286E+01  0.29782592919E+02  0.27578507764E+02  0.40659134417E+02  0.00000000000E+00 0. -1.
         11    1    3    3    0    0 -0.74520727627E+01 -0.11378235264E+02 -0.42677666726E+01  0.14255225667E+02  0.51100000000E-03 0. -1.
        -11    1    3    3    0    0 -0.47929436788E+01 -0.89815442977E+01 -0.64235839800E+01  0.12037561152E+02  0.51100000000E-03 0.  1.
         12    1    3    3    0    0  0.14608970770E+02 -0.94228133571E+01 -0.16887157112E+02  0.24236078764E+02  0.00000000000E+00 0. -1.
</event>
<event>
 7    1  0.5642630E-013  0.5052886E+02  0.7816164E-02  0.1300439E+00
        -11   -1    0    0    0    0  0.00000000000E+00  0.00000000000E+00  0.45593999997E+02  0.45594000000E+02  0.51100000000E-03 0.  1.
         11   -1    0    0    0    0 -0.00000000000E+00 -0.00000000000E+00 -0.45593999997E+02  0.45594000000E+02  0.51100000000E-03 0. -1.
    9900012    2    1    2    0    0 -0.39343787546E+02  0.10232509740E+02  0.72646381083E+00  0.50528860515E+02  0.30000002021E+02 0.  0.
         12    1    1    2    0    0  0.39343787546E+02 -0.10232509740E+02 -0.72646381083E+00  0.40659139485E+02  0.00000000000E+00 0. -1.
         11    1    3    3    0    0 -0.37252628919E+01  0.39026621071E+01  0.36128194114E+00  0.54072987746E+01  0.51100000000E-03 0. -1.
        -11    1    3    3    0    0 -0.25387313245E+02  0.15794909974E+02  0.52406428171E+01  0.30355546318E+02  0.51100000000E-03 0.  1.
        -12    1    3    3    0    0 -0.10231211409E+02 -0.94650623403E+01 -0.48754609474E+01  0.14766015422E+02  0.00000000000E+00 0.  1.
</event>
<event>
 7    1  0.5642630E-013  0.5052886E+02  0.7816164E-02  0.1300439E+00
        -11   -1    0    0    0    0  0.00000000000E+00  0.00000000000E+00  0.45593999997E+02  0.45594000000E+02  0.51100000000E-03 0. -1.
         11   -1    0    0    0    0 -0.00000000000E+00 -0.00000000000E+00 -0.45593999997E+02  0.45594000000E+02  0.51100000000E-03 0.  1.
    9900012    2    1    2    0    0  0.27021714413E+02 -0.24978096813E+02  0.17294134665E+02  0.50528862478E+02  0.30000007989E+02 0.  0.
         12    1    1    2    0    0 -0.27021714413E+02  0.24978096813E+02 -0.17294134665E+02  0.40659137522E+02  0.00000000000E+00 0. -1.
         11    1    3    3    0    0  0.18111474320E+02 -0.79285043431E+01  0.18696676329E+02  0.27211254826E+02  0.51100000000E-03 0.  1.
        -11    1    3    3    0    0  0.48253782974E+01  0.31566099024E+00  0.18626376734E+01  0.51820205458E+01  0.51100000000E-03 0. -1.
        -12    1    3    3    0    0  0.40848617954E+01 -0.17365253460E+02 -0.32651793376E+01  0.18135587107E+02  0.00000000000E+00 0.  1.
</event>
<event>
 7    1  0.5642630E-013  0.5052885E+02  0.7816164E-02  0.1300439E+00
        -11   -1    0    0    0    0  0.00000000000E+00  0.00000000000E+00  0.45593999997E+02  0.45594000000E+02  0.51100000000E-03 0.  1.
         11   -1    0    0    0    0 -0.00000000000E+00 -0.00000000000E+00 -0.45593999997E+02  0.45594000000E+02  0.51100000000E-03 0. -1.
    9900012    2    1    2    0    0  0.13661107070E+02  0.31631943797E+02  0.21586126519E+02  0.50528848843E+02  0.29999966542E+02 0.  0.
         12    1    1    2    0    0 -0.13661107070E+02 -0.31631943797E+02 -0.21586126519E+02  0.40659151157E+02  0.00000000000E+00 0. -1.
         11    1    3    3    0    0  0.12240843797E+02  0.17241289613E+02  0.52724692784E+00  0.21151319438E+02  0.51100000000E-03 0. -1.
        -11    1    3    3    0    0  0.73745554764E+01  0.85918179959E+01  0.78733419024E+01  0.13791044845E+02  0.51100000000E-03 0.  1.
        -12    1    3    3    0    0 -0.59542922037E+01  0.57988361880E+01  0.13185537689E+02  0.15586484560E+02  0.00000000000E+00 0.  1.
</event>
<event>
 7    1  0.5642630E-013  0.5052885E+02  0.7816164E-02  0.1300439E+00
        -11   -1    0    0    0    0  0.00000000000E+00  0.00000000000E+00  0.45593999997E+02  0.45594000000E+02  0.51100000000E-03 0.  1.
         11   -1    0    0    0    0 -0.00000000000E+00 -0.00000000000E+00 -0.45593999997E+02  0.45594000000E+02  0.51100000000E-03 0. -1.
    9900012    2    1    2    0    0  0.33302296169E+02 -0.21982070817E+02 -0.78046038649E+01  0.50528853317E+02  0.29999980143E+02 0.  0.
         12    1    1    2    0    0 -0.33302296169E+02  0.21982070817E+02  0.78046038649E+01  0.40659146683E+02  0.00000000000E+00 0. -1.
         11    1    3    3    0    0  0.52319971429E+01  0.27294118214E+01  0.65731613653E+00  0.59376382307E+01  0.51100000000E-03 0. -1.
        -11    1    3    3    0    0  0.19346734599E+02 -0.37347181346E+01  0.15494907919E+01  0.19764745917E+02  0.51100000000E-03 0.  1.
         12    1    3    3    0    0  0.87235644268E+01 -0.20976764504E+02 -0.10011410793E+02  0.24826469169E+02  0.00000000000E+00 0. -1.
</event>
<event>
 7    1  0.5642630E-013  0.5052886E+02  0.7816164E-02  0.1300439E+00
        -11   -1    0    0    0    0  0.00000000000E+00  0.00000000000E+00  0.45593999997E+02  0.45594000000E+02  0.51100000000E-03 0.  1.
         11   -1    0    0    0    0 -0.00000000000E+00 -0.00000000000E+00 -0.45593999997E+02  0.45594000000E+02  0.51100000000E-03 0. -1.
    9900012    2    1    2    0    0  0.10111415842E+02 -0.27725343904E+02  0.27968383476E+02  0.50528857126E+02  0.29999991722E+02 0.  0.
         12    1    1    2    0    0 -0.10111415842E+02  0.27725343904E+02 -0.27968383476E+02  0.40659142874E+02  0.00000000000E+00 0. -1.
         11    1    3    3    0    0  0.83799545981E+01 -0.12252822513E+02  0.14650781357E+01  0.14916492644E+02  0.51100000000E-03 0. -1.
        -11    1    3    3    0    0  0.65357148759E+00  0.14241611762E+01 -0.19506808049E+01  0.25021084327E+01  0.51100000000E-03 0.  1.
        -12    1    3    3    0    0  0.10778897565E+01 -0.16896682568E+02  0.28453986145E+02  0.33110256050E+02  0.00000000000E+00 0.  1.
</event>
<event>
 7    1  0.5642630E-013  0.5052886E+02  0.7816164E-02  0.1300439E+00
        -11   -1    0    0    0    0  0.00000000000E+00  0.00000000000E+00  0.45593999997E+02  0.45594000000E+02  0.51100000000E-03 0.  1.
         11   -1    0    0    0    0 -0.00000000000E+00 -0.00000000000E+00 -0.45593999997E+02  0.45594000000E+02  0.51100000000E-03 0. -1.
    9900012    2    1    2    0    0  0.30212262644E+02  0.17685595523E+02  0.20678598695E+02  0.50528861457E+02  0.30000004885E+02 0.  0.
         12    1    1    2    0    0 -0.30212262644E+02 -0.17685595523E+02 -0.20678598695E+02  0.40659138543E+02  0.00000000000E+00 0. -1.
         11    1    3    3    0    0  0.82880905336E+00  0.68571950987E+01 -0.21184020352E+01  0.72246575360E+01  0.51100000000E-03 0. -1.
        -11    1    3    3    0    0  0.28961573359E+02  0.13192123762E+02  0.15069255449E+02  0.35212033750E+02  0.51100000000E-03 0.  1.
        -12    1    3    3    0    0  0.42188023245E+00 -0.23637233387E+01  0.77277452804E+01  0.80921701707E+01  0.00000000000E+00 0.  1.
</event>
<event>
 7    1  0.5642630E-013  0.5052885E+02  0.7816164E-02  0.1300439E+00
        -11   -1    0    0    0    0  0.00000000000E+00  0.00000000000E+00  0.45593999997E+02  0.45594000000E+02  0.51100000000E-03 0.  1.
         11   -1    0    0    0    0 -0.00000000000E+00 -0.00000000000E+00 -0.45593999997E+02  0.45594000000E+02  0.51100000000E-03 0. -1.
    9900012    2    1    2    0    0 -0.25851863514E+02 -0.27375563109E+02  0.15343592096E+02  0.50528854398E+02  0.29999983427E+02 0.  0.
         12    1    1    2    0    0  0.25851863514E+02  0.27375563109E+02 -0.15343592096E+02  0.40659145602E+02  0.00000000000E+00 0. -1.
         11    1    3    3    0    0 -0.20581937133E+02 -0.15438680441E+02  0.21597243069E+01  0.25819244746E+02  0.51100000000E-03 0. -1.
        -11    1    3    3    0    0 -0.28288225955E+01  0.33149259637E+01 -0.67385906588E-01  0.43583841665E+01  0.51100000000E-03 0.  1.
        -12    1    3    3    0    0 -0.24411037854E+01 -0.15251808632E+02  0.13251253696E+02  0.20351225485E+02  0.00000000000E+00 0.  1.
</event>
<event>
 7    1  0.5642630E-013  0.5052882E+02  0.7816164E-02  0.1300439E+00
        -11   -1    0    0    0    0  0.00000000000E+00  0.00000000000E+00  0.45593999997E+02  0.45594000000E+02  0.51100000000E-03 0.  1.
         11   -1    0    0    0    0 -0.00000000000E+00 -0.00000000000E+00 -0.45593999997E+02  0.45594000000E+02  0.51100000000E-03 0. -1.
    9900012    2    1    2    0    0  0.28638156535E+02  0.21489381494E+02  0.19267361125E+02  0.50528822297E+02  0.29999885855E+02 0.  0.
         12    1    1    2    0    0 -0.28638156535E+02 -0.21489381494E+02 -0.19267361125E+02  0.40659177703E+02  0.00000000000E+00 0. -1.
         11    1    3    3    0    0  0.24728836588E+01 -0.27566254695E+01  0.57392550013E+01  0.68303137410E+01  0.51100000000E-03 0. -1.
        -11    1    3    3    0    0  0.11990500154E+02 -0.85577282099E+00  0.77354016513E+01  0.14294785064E+02  0.51100000000E-03 0.  1.
        -12    1    3    3    0    0  0.14174772723E+02  0.25101779785E+02  0.57927044719E+01  0.29403723492E+02  0.00000000000E+00 0.  1.
</event>
<event>
 7    1  0.5642630E-013  0.5052885E+02  0.7816164E-02  0.1300439E+00
        -11   -1    0    0    0    0  0.00000000000E+00  0.00000000000E+00  0.45593999997E+02  0.45594000000E+02  0.51100000000E-03 0.  1.
         11   -1    0    0    0    0 -0.00000000000E+00 -0.00000000000E+00 -0.45593999997E+02  0.45594000000E+02  0.51100000000E-03 0. -1.
    9900012    2    1    2    0    0  0.83816538271E+01 -0.34615201461E+02 -0.19613829402E+02  0.50528848547E+02  0.29999965643E+02 0.  0.
         12    1    1    2    0    0 -0.83816538271E+01  0.34615201461E+02  0.19613829402E+02  0.40659151453E+02  0.00000000000E+00 0. -1.
         11    1    3    3    0    0  0.31773291161E+01 -0.75668375105E+01 -0.82691625041E+01  0.11650386217E+02  0.51100000000E-03 0. -1.
        -11    1    3    3    0    0  0.12770374900E+02 -0.17942307800E+02 -0.14813676259E+02  0.26541550235E+02  0.51100000000E-03 0.  1.
         12    1    3    3    0    0 -0.75660501894E+01 -0.91060561506E+01  0.34690093614E+01  0.12336912095E+02  0.00000000000E+00 0. -1.
</event>
<event>
 7    1  0.5642630E-013  0.5052887E+02  0.7816164E-02  0.1300439E+00
        -11   -1    0    0    0    0  0.00000000000E+00  0.00000000000E+00  0.45593999997E+02  0.45594000000E+02  0.51100000000E-03 0. -1.
         11   -1    0    0    0    0 -0.00000000000E+00 -0.00000000000E+00 -0.45593999997E+02  0.45594000000E+02  0.51100000000E-03 0.  1.
    9900012    2    1    2    0    0 -0.26764128059E+02  0.21018198207E+02 -0.22250422927E+02  0.50528874000E+02  0.30000043011E+02 0.  0.
         12    1    1    2    0    0  0.26764128059E+02 -0.21018198207E+02  0.22250422927E+02  0.40659126000E+02  0.00000000000E+00 0. -1.
         11    1    3    3    0    0 -0.74447351714E+01  0.51517659673E+01  0.45515797297E+01  0.10133195579E+02  0.51100000000E-03 0. -1.
        -11    1    3    3    0    0 -0.17580300179E+02  0.10838193061E+02 -0.10342529529E+02  0.23097647078E+02  0.51100000000E-03 0.  1.
        -12    1    3    3    0    0 -0.17390927082E+01  0.50282391792E+01 -0.16459473128E+02  0.17298031343E+02  0.00000000000E+00 0.  1.
</event>
<event>
 7    1  0.5642630E-013  0.5052884E+02  0.7816164E-02  0.1300439E+00
        -11   -1    0    0    0    0  0.00000000000E+00  0.00000000000E+00  0.45593999997E+02  0.45594000000E+02  0.51100000000E-03 0. -1.
         11   -1    0    0    0    0 -0.00000000000E+00 -0.00000000000E+00 -0.45593999997E+02  0.45594000000E+02  0.51100000000E-03 0.  1.
    9900012    2    1    2    0    0  0.32954200860E+02  0.13980185217E+02 -0.19280627143E+02  0.50528837244E+02  0.29999931285E+02 0.  0.
         12    1    1    2    0    0 -0.32954200860E+02 -0.13980185217E+02  0.19280627143E+02  0.40659162756E+02  0.00000000000E+00 0. -1.
         11    1    3    3    0    0  0.48975807634E+00  0.67802048093E+01 -0.12038895006E+02  0.13825557257E+02  0.51100000000E-03 0. -1.
        -11    1    3    3    0    0  0.90337412737E+01  0.71216151314E+01 -0.66031110461E+01  0.13263746048E+02  0.51100000000E-03 0.  1.
         12    1    3    3    0    0  0.23430701510E+02  0.78365276753E-01 -0.63862109047E+00  0.23439533939E+02  0.00000000000E+00 0. -1.
</event>
<event>
 7    1  0.5642630E-013  0.5052881E+02  0.7816164E-02  0.1300439E+00
        -11   -1    0    0    0    0  0.00000000000E+00  0.00000000000E+00  0.45593999997E+02  0.45594000000E+02  0.51100000000E-03 0.  1.
         11   -1    0    0    0    0 -0.00000000000E+00 -0.00000000000E+00 -0.45593999997E+02  0.45594000000E+02  0.51100000000E-03 0. -1.
    9900012    2    1    2    0    0 -0.40087963059E+01 -0.24460354072E+02  0.32230274145E+02  0.50528807428E+02  0.29999840658E+02 0.  0.
         12    1    1    2    0    0  0.40087963059E+01  0.24460354072E+02 -0.32230274145E+02  0.40659192572E+02  0.00000000000E+00 0. -1.
         11    1    3    3    0    0 -0.97939787263E+01 -0.19852304165E+02  0.21134689760E+02  0.30605736578E+02  0.51100000000E-03 0.  1.
        -11    1    3    3    0    0 -0.36779663739E+01 -0.32319668707E+01  0.88285198915E+01  0.10095336064E+02  0.51100000000E-03 0. -1.
         12    1    3    3    0    0  0.94631487942E+01 -0.13760830361E+01  0.22670644929E+01  0.98277347867E+01  0.00000000000E+00 0. -1.
</event>
<event>
 7    1  0.5642630E-013  0.5052883E+02  0.7816164E-02  0.1300439E+00
        -11   -1    0    0    0    0  0.00000000000E+00  0.00000000000E+00  0.45593999997E+02  0.45594000000E+02  0.51100000000E-03 0. -1.
         11   -1    0    0    0    0 -0.00000000000E+00 -0.00000000000E+00 -0.45593999997E+02  0.45594000000E+02  0.51100000000E-03 0.  1.
    9900012    2    1    2    0    0 -0.80156260708E+01 -0.39491244123E+02  0.54184653969E+01  0.50528826485E+02  0.29999898583E+02 0.  0.
         12    1    1    2    0    0  0.80156260708E+01  0.39491244123E+02 -0.54184653969E+01  0.40659173515E+02  0.00000000000E+00 0. -1.
         11    1    3    3    0    0 -0.10545396515E+02 -0.11219646718E+02  0.92807023409E+01  0.17978245085E+02  0.51100000000E-03 0.  1.
        -11    1    3    3    0    0  0.22787931524E+01  0.11414008348E+01  0.99909654689E+00  0.27374967157E+01  0.51100000000E-03 0. -1.
        -12    1    3    3    0    0  0.25097729184E+00 -0.29412998240E+02 -0.48613334909E+01  0.29813084684E+02  0.00000000000E+00 0.  1.
</event>
<event>
 7    1  0.5642630E-013  0.5052886E+02  0.7816164E-02  0.1300439E+00
        -11   -1    0    0    0    0  0.00000000000E+00  0.00000000000E+00  0.45593999997E+02  0.45594000000E+02  0.51100000000E-03 0.  1.
         11   -1    0    0    0    0 -0.00000000000E+00 -0.00000000000E+00 -0.45593999997E+02  0.45594000000E+02  0.51100000000E-03 0. -1.
    9900012    2    1    2    0    0 -0.12975626232E+02  0.64313016544E+01  0.37992591237E+02  0.50528861962E+02  0.30000006420E+02 0.  0.
         12    1    1    2    0    0  0.12975626232E+02 -0.64313016544E+01 -0.37992591237E+02  0.40659138038E+02  0.00000000000E+00 0. -1.
         11    1    3    3    0    0 -0.46853144222E+01  0.67767391986E+00  0.28550747449E+02  0.28940570024E+02  0.51100000000E-03 0. -1.
        -11    1    3    3    0    0 -0.68971208230E+01  0.10393956932E+02  0.10860930215E+02  0.16539783002E+02  0.51100000000E-03 0.  1.
         12    1    3    3    0    0 -0.13931909868E+01 -0.46403291977E+01 -0.14190864271E+01  0.50485089359E+01  0.00000000000E+00 0. -1.
</event>
<event>
 7    1  0.5642630E-013  0.5052886E+02  0.7816164E-02  0.1300439E+00
        -11   -1    0    0    0    0  0.00000000000E+00  0.00000000000E+00  0.45593999997E+02  0.45594000000E+02  0.51100000000E-03 0.  1.
         11   -1    0    0    0    0 -0.00000000000E+00 -0.00000000000E+00 -0.45593999997E+02  0.45594000000E+02  0.51100000000E-03 0. -1.
    9900012    2    1    2    0    0 -0.20343345280E+02  0.88874875197E+01  0.34063568771E+02  0.50528857744E+02  0.29999993598E+02 0.  0.
         12    1    1    2    0    0  0.20343345280E+02 -0.88874875197E+01 -0.34063568771E+02  0.40659142256E+02  0.00000000000E+00 0. -1.
         11    1    3    3    0    0 -0.96571108715E+01  0.75511688283E+01  0.87178927396E+00  0.12289831482E+02  0.51100000000E-03 0. -1.
        -11    1    3    3    0    0 -0.10006643247E+01 -0.54073397707E+01  0.41455728662E+01  0.68866847711E+01  0.51100000000E-03 0.  1.
         12    1    3    3    0    0 -0.96855700835E+01  0.67436584621E+01  0.29046206631E+02  0.31352341491E+02  0.00000000000E+00 0. -1.
</event>
<event>
 7    1  0.5642630E-013  0.5052886E+02  0.7816164E-02  0.1300439E+00
        -11   -1    0    0    0    0  0.00000000000E+00  0.00000000000E+00  0.45593999997E+02  0.45594000000E+02  0.51100000000E-03 0. -1.
         11   -1    0    0    0    0 -0.00000000000E+00 -0.00000000000E+00 -0.45593999997E+02  0.45594000000E+02  0.51100000000E-03 0.  1.
    9900012    2    1    2    0    0 -0.31580031158E+01 -0.36807069912E+02 -0.16983301574E+02  0.50528856975E+02  0.29999991262E+02 0.  0.
         12    1    1    2    0    0  0.31580031158E+01  0.36807069912E+02  0.16983301574E+02  0.40659143025E+02  0.00000000000E+00 0. -1.
         11    1    3    3    0    0  0.79140413746E+01 -0.24901844195E+02 -0.70481120857E+01  0.27063070399E+02  0.51100000000E-03 0. -1.
        -11    1    3    3    0    0 -0.13267447090E+02 -0.13146678135E+02 -0.92993985510E+01  0.20864781617E+02  0.51100000000E-03 0.  1.
        -12    1    3    3    0    0  0.21954025994E+01  0.12414524180E+01 -0.63579093702E+00  0.26010049587E+01  0.00000000000E+00 0.  1.
</event>
<event>
 7    1  0.5642630E-013  0.5052885E+02  0.7816164E-02  0.1300439E+00
        -11   -1    0    0    0    0  0.00000000000E+00  0.00000000000E+00  0.45593999997E+02  0.45594000000E+02  0.51100000000E-03 0. -1.
         11   -1    0    0    0    0 -0.00000000000E+00 -0.00000000000E+00 -0.45593999997E+02  0.45594000000E+02  0.51100000000E-03 0.  1.
    9900012    2    1    2    0    0  0.39399885061E+02 -0.67133732683E+01 -0.74663412245E+01  0.50528848820E+02  0.29999966472E+02 0.  0.
         12    1    1    2    0    0 -0.39399885061E+02  0.67133732683E+01  0.74663412245E+01  0.40659151180E+02  0.00000000000E+00 0. -1.
         11    1    3    3    0    0  0.10153529744E+02 -0.61517780883E+01 -0.51553836040E+01  0.12942817324E+02  0.51100000000E-03 0. -1.
        -11    1    3    3    0    0  0.30761728045E+02 -0.64529730931E+01 -0.18645557519E+01  0.31486526364E+02  0.51100000000E-03 0.  1.
         12    1    3    3    0    0 -0.15153727289E+01  0.58913779131E+01 -0.44640186856E+00  0.60995051317E+01  0.00000000000E+00 0. -1.
</event>
<event>
 7    1  0.5642630E-013  0.5052886E+02  0.7816164E-02  0.1300439E+00
        -11   -1    0    0    0    0  0.00000000000E+00  0.00000000000E+00  0.45593999997E+02  0.45594000000E+02  0.51100000000E-03 0.  1.
         11   -1    0    0    0    0 -0.00000000000E+00 -0.00000000000E+00 -0.45593999997E+02  0.45594000000E+02  0.51100000000E-03 0. -1.
    9900012    2    1    2    0    0 -0.23489541500E+01 -0.78063150618E+01  0.39833521984E+02  0.50528860633E+02  0.30000002380E+02 0.  0.
         12    1    1    2    0    0  0.23489541500E+01  0.78063150618E+01 -0.39833521984E+02  0.40659139367E+02  0.00000000000E+00 0. -1.
         11    1    3    3    0    0 -0.98867021271E+01 -0.47966143064E+01  0.41289677897E+01  0.11738942160E+02  0.51100000000E-03 0. -1.
        -11    1    3    3    0    0 -0.11782404224E+00  0.31135115504E+01  0.20329897930E+01  0.37203339150E+01  0.51100000000E-03 0.  1.
        -12    1    3    3    0    0  0.76555720194E+01 -0.61232123058E+01  0.33671564401E+02  0.35069584558E+02  0.00000000000E+00 0.  1.
</event>
<event>
 7    1  0.5642630E-013  0.5052883E+02  0.7816164E-02  0.1300439E+00
        -11   -1    0    0    0    0  0.00000000000E+00  0.00000000000E+00  0.45593999997E+02  0.45594000000E+02  0.51100000000E-03 0.  1.
         11   -1    0    0    0    0 -0.00000000000E+00 -0.00000000000E+00 -0.45593999997E+02  0.45594000000E+02  0.51100000000E-03 0. -1.
    9900012    2    1    2    0    0  0.31520225832E+02 -0.76905529051E+00  0.25672004527E+02  0.50528832535E+02  0.29999916974E+02 0.  0.
         12    1    1    2    0    0 -0.31520225832E+02  0.76905529051E+00 -0.25672004527E+02  0.40659167465E+02  0.00000000000E+00 0. -1.
         11    1    3    3    0    0  0.76235010573E+00 -0.22412097734E+01  0.10520359930E+01  0.25905557172E+01  0.51100000000E-03 0. -1.
        -11    1    3    3    0    0  0.32066654175E+02  0.39293855961E+01  0.28555477808E+02  0.43117579875E+02  0.51100000000E-03 0.  1.
        -12    1    3    3    0    0 -0.13087784493E+01 -0.24572311132E+01 -0.39355092741E+01  0.48206969433E+01  0.00000000000E+00 0.  1.
</event>
<event>
 7    1  0.5642630E-013  0.5052891E+02  0.7816164E-02  0.1300439E+00
        -11   -1    0    0    0    0  0.00000000000E+00  0.00000000000E+00  0.45593999997E+02  0.45594000000E+02  0.51100000000E-03 0.  1.
         11   -1    0    0    0    0 -0.00000000000E+00 -0.00000000000E+00 -0.45593999997E+02  0.45594000000E+02  0.51100000000E-03 0. -1.
    9900012    2    1    2    0    0  0.23964436219E+02 -0.25468381346E+02  0.20741967244E+02  0.50528906837E+02  0.30000142822E+02 0.  0.
         12    1    1    2    0    0 -0.23964436219E+02  0.25468381346E+02 -0.20741967244E+02  0.40659093163E+02  0.00000000000E+00 0. -1.
         11    1    3    3    0    0  0.11090363979E+02 -0.68719179889E+01  0.52024076407E+01  0.14045799214E+02  0.51100000000E-03 0. -1.
        -11    1    3    3    0    0  0.12622468763E+02 -0.13345474669E+01  0.14379919882E+02  0.19180454393E+02  0.51100000000E-03 0.  1.
         12    1    3    3    0    0  0.25160347599E+00 -0.17261915891E+02  0.11596397205E+01  0.17302653230E+02  0.00000000000E+00 0. -1.
</event>
<event>
 7    1  0.5642630E-013  0.5052885E+02  0.7816164E-02  0.1300439E+00
        -11   -1    0    0    0    0  0.00000000000E+00  0.00000000000E+00  0.45593999997E+02  0.45594000000E+02  0.51100000000E-03 0. -1.
         11   -1    0    0    0    0 -0.00000000000E+00 -0.00000000000E+00 -0.45593999997E+02  0.45594000000E+02  0.51100000000E-03 0.  1.
    9900012    2    1    2    0    0 -0.33953980936E+02  0.35694549541E+01 -0.22080588083E+02  0.50528853425E+02  0.29999980471E+02 0.  0.
         12    1    1    2    0    0  0.33953980936E+02 -0.35694549541E+01  0.22080588083E+02  0.40659146575E+02  0.00000000000E+00 0. -1.
         11    1    3    3    0    0 -0.11372892228E+02  0.10875734061E+02 -0.66839594905E+01  0.17096771149E+02  0.51100000000E-03 0. -1.
        -11    1    3    3    0    0 -0.50495689053E+01  0.58079642053E+01 -0.51412499724E+01  0.92554333167E+01  0.51100000000E-03 0.  1.
        -12    1    3    3    0    0 -0.17531519803E+02 -0.13114243312E+02 -0.10255378620E+02  0.24176648960E+02  0.00000000000E+00 0.  1.
</event>
<event>
 7    1  0.5642630E-013  0.5052886E+02  0.7816164E-02  0.1300439E+00
        -11   -1    0    0    0    0  0.00000000000E+00  0.00000000000E+00  0.45593999997E+02  0.45594000000E+02  0.51100000000E-03 0.  1.
         11   -1    0    0    0    0 -0.00000000000E+00 -0.00000000000E+00 -0.45593999997E+02  0.45594000000E+02  0.51100000000E-03 0. -1.
    9900012    2    1    2    0    0 -0.20902004674E+02 -0.62456186044E+01  0.34311282467E+02  0.50528860121E+02  0.30000000824E+02 0.  0.
         12    1    1    2    0    0  0.20902004674E+02  0.62456186044E+01 -0.34311282467E+02  0.40659139879E+02  0.00000000000E+00 0. -1.
         11    1    3    3    0    0  0.46260590478E+01 -0.33530879126E+01 -0.11511917654E+01  0.58282813595E+01  0.51100000000E-03 0. -1.
        -11    1    3    3    0    0 -0.10520518614E+02 -0.47404878479E+01  0.11001005170E+02  0.15942887190E+02  0.51100000000E-03 0.  1.
        -12    1    3    3    0    0 -0.15007545107E+02  0.18479571561E+01  0.24461469063E+02  0.28757691571E+02  0.00000000000E+00 0.  1.
</event>
<event>
 7    1  0.5642630E-013  0.5052900E+02  0.7816164E-02  0.1300438E+00
        -11   -1    0    0    0    0  0.00000000000E+00  0.00000000000E+00  0.45593999997E+02  0.45594000000E+02  0.51100000000E-03 0. -1.
         11   -1    0    0    0    0 -0.00000000000E+00 -0.00000000000E+00 -0.45593999997E+02  0.45594000000E+02  0.51100000000E-03 0.  1.
    9900012    2    1    2    0    0  0.25575856235E+02 -0.26467140630E+02 -0.17277747781E+02  0.50528997016E+02  0.30000416926E+02 0.  0.
         12    1    1    2    0    0 -0.25575856235E+02  0.26467140630E+02  0.17277747781E+02  0.40659002984E+02  0.00000000000E+00 0. -1.
         11    1    3    3    0    0  0.16662443222E+01  0.59366138895E+00  0.31400496311E+01  0.36039861172E+01  0.51100000000E-03 0. -1.
        -11    1    3    3    0    0  0.13948965123E+02 -0.57901460323E+01  0.10034420746E+01  0.15136258301E+02  0.51100000000E-03 0.  1.
         12    1    3    3    0    0  0.99606467900E+01 -0.21270655986E+02 -0.21421239487E+02  0.31788752598E+02  0.00000000000E+00 0. -1.
</event>
<event>
 7    1  0.5642630E-013  0.5052884E+02  0.7816164E-02  0.1300439E+00
        -11   -1    0    0    0    0  0.00000000000E+00  0.00000000000E+00  0.45593999997E+02  0.45594000000E+02  0.51100000000E-03 0.  1.
         11   -1    0    0    0    0 -0.00000000000E+00 -0.00000000000E+00 -0.45593999997E+02  0.45594000000E+02  0.51100000000E-03 0. -1.
    9900012    2    1    2    0    0 -0.16166538701E+02 -0.20611550812E+02  0.31096205573E+02  0.50528843571E+02  0.29999950519E+02 0.  0.
         12    1    1    2    0    0  0.16166538701E+02  0.20611550812E+02 -0.31096205573E+02  0.40659156429E+02  0.00000000000E+00 0. -1.
         11    1    3    3    0    0 -0.40821851263E+01  0.52361798159E+01  0.73812184198E+01  0.99279504477E+01  0.51100000000E-03 0. -1.
        -11    1    3    3    0    0 -0.35793112036E+01 -0.12715162741E+02  0.20868779748E+02  0.24698032323E+02  0.51100000000E-03 0.  1.
         12    1    3    3    0    0 -0.85050423714E+01 -0.13132567887E+02  0.28462074059E+01  0.15902860800E+02  0.00000000000E+00 0. -1.
</event>
<event>
 7    1  0.5642630E-013  0.5052886E+02  0.7816164E-02  0.1300439E+00
        -11   -1    0    0    0    0  0.00000000000E+00  0.00000000000E+00  0.45593999997E+02  0.45594000000E+02  0.51100000000E-03 0.  1.
         11   -1    0    0    0    0 -0.00000000000E+00 -0.00000000000E+00 -0.45593999997E+02  0.45594000000E+02  0.51100000000E-03 0. -1.
    9900012    2    1    2    0    0  0.38208025583E+01  0.32639216128E+02  0.23942620083E+02  0.50528855665E+02  0.29999987278E+02 0.  0.
         12    1    1    2    0    0 -0.38208025583E+01 -0.32639216128E+02 -0.23942620083E+02  0.40659144335E+02  0.00000000000E+00 0. -1.
         11    1    3    3    0    0 -0.11863373008E+01  0.31459055657E+00  0.76294316057E+01  0.77275216141E+01  0.51100000000E-03 0. -1.
        -11    1    3    3    0    0 -0.76028474024E+01  0.11922075031E+02  0.64979383037E+00  0.14154907063E+02  0.51100000000E-03 0.  1.
        -12    1    3    3    0    0  0.12609987261E+02  0.20402550540E+02  0.15663394647E+02  0.28646426988E+02  0.00000000000E+00 0.  1.
</event>
<event>
 7    1  0.5642630E-013  0.5052887E+02  0.7816164E-02  0.1300439E+00
        -11   -1    0    0    0    0  0.00000000000E+00  0.00000000000E+00  0.45593999997E+02  0.45594000000E+02  0.51100000000E-03 0. -1.
         11   -1    0    0    0    0 -0.00000000000E+00 -0.00000000000E+00 -0.45593999997E+02  0.45594000000E+02  0.51100000000E-03 0.  1.
    9900012    2    1    2    0    0 -0.19609618372E+01 -0.37510912051E+02 -0.15564420456E+02  0.50528867220E+02  0.30000022403E+02 0.  0.
         12    1    1    2    0    0  0.19609618372E+01  0.37510912051E+02  0.15564420456E+02  0.40659132780E+02  0.00000000000E+00 0. -1.
         11    1    3    3    0    0  0.37665553058E+01 -0.10572151877E+02  0.94510121634E-01  0.11223469455E+02  0.51100000000E-03 0.  1.
        -11    1    3    3    0    0 -0.31656206700E+00 -0.25653412757E+02 -0.34459818993E+01  0.25885760355E+02  0.51100000000E-03 0. -1.
         12    1    3    3    0    0 -0.54109550760E+01 -0.12853474171E+01 -0.12212948678E+02  0.13419637411E+02  0.00000000000E+00 0. -1.
</event>
<event>
 7    1  0.5642630E-013  0.5052885E+02  0.7816164E-02  0.1300439E+00
        -11   -1    0    0    0    0  0.00000000000E+00  0.00000000000E+00  0.45593999997E+02  0.45594000000E+02  0.51100000000E-03 0.  1.
         11   -1    0    0    0    0 -0.00000000000E+00 -0.00000000000E+00 -0.45593999997E+02  0.45594000000E+02  0.51100000000E-03 0. -1.
    9900012    2    1    2    0    0  0.25287588169E+02  0.20721605108E+02  0.24172699767E+02  0.50528850382E+02  0.29999971221E+02 0.  0.
         12    1    1    2    0    0 -0.25287588169E+02 -0.20721605108E+02 -0.24172699767E+02  0.40659149618E+02  0.00000000000E+00 0. -1.
         11    1    3    3    0    0  0.11658988175E+01  0.65899531544E+01  0.19904348147E+01  0.69820221743E+01  0.51100000000E-03 0. -1.
        -11    1    3    3    0    0  0.14341393156E+02  0.20915399813E+02  0.17204964135E+02  0.30645396035E+02  0.51100000000E-03 0.  1.
        -12    1    3    3    0    0  0.97802961947E+01 -0.67837478595E+01  0.49773008176E+01  0.12901432173E+02  0.00000000000E+00 0.  1.
</event>
<event>
 7    1  0.5642630E-013  0.5052886E+02  0.7816164E-02  0.1300439E+00
        -11   -1    0    0    0    0  0.00000000000E+00  0.00000000000E+00  0.45593999997E+02  0.45594000000E+02  0.51100000000E-03 0.  1.
         11   -1    0    0    0    0 -0.00000000000E+00 -0.00000000000E+00 -0.45593999997E+02  0.45594000000E+02  0.51100000000E-03 0. -1.
    9900012    2    1    2    0    0  0.86141607260E+01  0.39403154206E+02  0.51335722526E+01  0.50528857234E+02  0.29999992049E+02 0.  0.
         12    1    1    2    0    0 -0.86141607260E+01 -0.39403154206E+02 -0.51335722526E+01  0.40659142766E+02  0.00000000000E+00 0. -1.
         11    1    3    3    0    0 -0.48440547768E+01  0.17605499210E+02  0.23208864651E+01  0.18406655953E+02  0.51100000000E-03 0.  1.
        -11    1    3    3    0    0  0.13221093814E+02  0.17892339833E+02  0.96458465428E+01  0.24248206163E+02  0.51100000000E-03 0. -1.
         12    1    3    3    0    0  0.23712168861E+00  0.39053151629E+01 -0.68331607554E+01  0.78739951185E+01  0.00000000000E+00 0. -1.
</event>
<event>
 7    1  0.5642630E-013  0.5052887E+02  0.7816164E-02  0.1300439E+00
        -11   -1    0    0    0    0  0.00000000000E+00  0.00000000000E+00  0.45593999997E+02  0.45594000000E+02  0.51100000000E-03 0.  1.
         11   -1    0    0    0    0 -0.00000000000E+00 -0.00000000000E+00 -0.45593999997E+02  0.45594000000E+02  0.51100000000E-03 0. -1.
    9900012    2    1    2    0    0 -0.28968729291E+02 -0.14645325361E+02  0.24484531595E+02  0.50528866720E+02  0.30000020881E+02 0.  0.
         12    1    1    2    0    0  0.28968729291E+02  0.14645325361E+02 -0.24484531595E+02  0.40659133280E+02  0.00000000000E+00 0. -1.
         11    1    3    3    0    0 -0.11241202835E+02 -0.73277971092E+01  0.12894817867E+02  0.18610147225E+02  0.51100000000E-03 0. -1.
        -11    1    3    3    0    0 -0.66414944608E+01  0.48491804636E+00  0.16267622053E+02  0.17577830404E+02  0.51100000000E-03 0.  1.
         12    1    3    3    0    0 -0.11086031995E+02 -0.78024462982E+01 -0.46779083245E+01  0.14340889091E+02  0.00000000000E+00 0. -1.
</event>
<event>
 7    1  0.5642630E-013  0.5052886E+02  0.7816164E-02  0.1300439E+00
        -11   -1    0    0    0    0  0.00000000000E+00  0.00000000000E+00  0.45593999997E+02  0.45594000000E+02  0.51100000000E-03 0. -1.
         11   -1    0    0    0    0 -0.00000000000E+00 -0.00000000000E+00 -0.45593999997E+02  0.45594000000E+02  0.51100000000E-03 0.  1.
    9900012    2    1    2    0    0 -0.16319105797E+02 -0.13272325472E+02 -0.34795085615E+02  0.50528858096E+02  0.29999994667E+02 0.  0.
         12    1    1    2    0    0  0.16319105797E+02  0.13272325472E+02  0.34795085615E+02  0.40659141904E+02  0.00000000000E+00 0. -1.
         11    1    3    3    0    0  0.33326594824E+01 -0.26973652346E+01 -0.11542653261E+02  0.12313214162E+02  0.51100000000E-03 0. -1.
        -11    1    3    3    0    0 -0.22208134458E+01 -0.11836773092E+02 -0.13908359584E+02  0.18397925866E+02  0.51100000000E-03 0.  1.
        -12    1    3    3    0    0 -0.17430951833E+02  0.12618128547E+01 -0.93440727711E+01  0.19817718069E+02  0.00000000000E+00 0.  1.
</event>
<event>
 7    1  0.5642630E-013  0.5052886E+02  0.7816164E-02  0.1300439E+00
        -11   -1    0    0    0    0  0.00000000000E+00  0.00000000000E+00  0.45593999997E+02  0.45594000000E+02  0.51100000000E-03 0. -1.
         11   -1    0    0    0    0 -0.00000000000E+00 -0.00000000000E+00 -0.45593999997E+02  0.45594000000E+02  0.51100000000E-03 0.  1.
    9900012    2    1    2    0    0  0.18282062481E+02  0.35932971843E+02  0.52681120832E+01  0.50528864754E+02  0.30000014905E+02 0.  0.
         12    1    1    2    0    0 -0.18282062481E+02 -0.35932971843E+02 -0.52681120832E+01  0.40659135246E+02  0.00000000000E+00 0. -1.
         11    1    3    3    0    0 -0.77687866229E+00  0.13511407383E+01 -0.23857241378E+01  0.28497020324E+01  0.51100000000E-03 0. -1.
        -11    1    3    3    0    0 -0.32389171037E+01  0.20243405390E+02  0.22507060594E+01  0.20624056920E+02  0.51100000000E-03 0.  1.
        -12    1    3    3    0    0  0.22297858247E+02  0.14338425715E+02  0.54031301616E+01  0.27055105802E+02  0.00000000000E+00 0.  1.
</event>
<event>
 7    1  0.5642630E-013  0.5052884E+02  0.7816164E-02  0.1300439E+00
        -11   -1    0    0    0    0  0.00000000000E+00  0.00000000000E+00  0.45593999997E+02  0.45594000000E+02  0.51100000000E-03 0. -1.
         11   -1    0    0    0    0 -0.00000000000E+00 -0.00000000000E+00 -0.45593999997E+02  0.45594000000E+02  0.51100000000E-03 0.  1.
    9900012    2    1    2    0    0  0.37149838826E+02  0.11283630331E+02 -0.12072140212E+02  0.50528838578E+02  0.29999935342E+02 0.  0.
         12    1    1    2    0    0 -0.37149838826E+02 -0.11283630331E+02  0.12072140212E+02  0.40659161422E+02  0.00000000000E+00 0. -1.
         11    1    3    3    0    0  0.58639261976E+01 -0.57773906890E+01 -0.30706552749E+01  0.87859431879E+01  0.51100000000E-03 0. -1.
        -11    1    3    3    0    0  0.35793813385E+01  0.99537046042E+01 -0.77480535667E+01  0.13111847332E+02  0.51100000000E-03 0.  1.
        -12    1    3    3    0    0  0.27706531290E+02  0.71073164160E+01 -0.12534313708E+01  0.28631048059E+02  0.00000000000E+00 0.  1.
</event>
<event>
 7    1  0.5642630E-013  0.5052887E+02  0.7816164E-02  0.1300439E+00
        -11   -1    0    0    0    0  0.00000000000E+00  0.00000000000E+00  0.45593999997E+02  0.45594000000E+02  0.51100000000E-03 0. -1.
         11   -1    0    0    0    0 -0.00000000000E+00 -0.00000000000E+00 -0.45593999997E+02  0.45594000000E+02  0.51100000000E-03 0.  1.
    9900012    2    1    2    0    0 -0.30965343432E+02  0.26084880718E+01 -0.26220380692E+02  0.50528867354E+02  0.30000022809E+02 0.  0.
         12    1    1    2    0    0  0.30965343432E+02 -0.26084880718E+01  0.26220380692E+02  0.40659132646E+02  0.00000000000E+00 0. -1.
         11    1    3    3    0    0 -0.11233115036E+02 -0.89064205304E+01  0.12557787015E+00  0.14336072340E+02  0.51100000000E-03 0. -1.
        -11    1    3    3    0    0 -0.20226790955E+01 -0.14519189906E+01 -0.49486314581E+01  0.55396979203E+01  0.51100000000E-03 0.  1.
         12    1    3    3    0    0 -0.17709549301E+02  0.12966827593E+02 -0.21397327104E+02  0.30653097094E+02  0.00000000000E+00 0. -1.
</event>
<event>
 7    1  0.5642630E-013  0.5052886E+02  0.7816164E-02  0.1300439E+00
        -11   -1    0    0    0    0  0.00000000000E+00  0.00000000000E+00  0.45593999997E+02  0.45594000000E+02  0.51100000000E-03 0.  1.
         11   -1    0    0    0    0 -0.00000000000E+00 -0.00000000000E+00 -0.45593999997E+02  0.45594000000E+02  0.51100000000E-03 0. -1.
    9900012    2    1    2    0    0  0.30821376400E+02 -0.73196447575E+01  0.25487869248E+02  0.50528856854E+02  0.29999990895E+02 0.  0.
         12    1    1    2    0    0 -0.30821376400E+02  0.73196447575E+01 -0.25487869248E+02  0.40659143146E+02  0.00000000000E+00 0. -1.
         11    1    3    3    0    0  0.72168894365E+01 -0.12010033307E+01  0.11784885494E+02  0.13871172572E+02  0.51100000000E-03 0.  1.
        -11    1    3    3    0    0  0.56004631734E+01 -0.10919224559E+02  0.13192453614E+02  0.18017643723E+02  0.51100000000E-03 0. -1.
         12    1    3    3    0    0  0.18004023790E+02  0.48005831318E+01  0.51053013927E+00  0.18640040559E+02  0.00000000000E+00 0. -1.
</event>
<event>
 7    1  0.8630747E-013  0.5052886E+02  0.7816164E-02  0.1300439E+00
        -11   -1    0    0    0    0  0.00000000000E+00  0.00000000000E+00  0.45593999997E+02  0.45594000000E+02  0.51100000000E-03 0.  1.
         11   -1    0    0    0    0 -0.00000000000E+00 -0.00000000000E+00 -0.45593999997E+02  0.45594000000E+02  0.51100000000E-03 0. -1.
    9900012    2    1    2    0    0 -0.37504484193E+02 -0.12274579444E+02 -0.97935646187E+01  0.50528861507E+02  0.30000005035E+02 0.  0.
         12    1    1    2    0    0  0.37504484193E+02  0.12274579444E+02  0.97935646187E+01  0.40659138493E+02  0.00000000000E+00 0. -1.
         11    1    3    3    0    0  0.12881781412E+01  0.27820888353E-01 -0.31180242449E+01  0.33737593835E+01  0.51100000000E-03 0. -1.
        -11    1    3    3    0    0 -0.10868756745E+02 -0.18286919105E+01 -0.12609099398E+02  0.16747040789E+02  0.51100000000E-03 0.  1.
        -12    1    3    3    0    0 -0.27923905589E+02 -0.10473708422E+02  0.59335590239E+01  0.30408061334E+02  0.00000000000E+00 0.  1.
</event>
<event>
 7    1  0.5642630E-013  0.5052886E+02  0.7816164E-02  0.1300439E+00
        -11   -1    0    0    0    0  0.00000000000E+00  0.00000000000E+00  0.45593999997E+02  0.45594000000E+02  0.51100000000E-03 0. -1.
         11   -1    0    0    0    0 -0.00000000000E+00 -0.00000000000E+00 -0.45593999997E+02  0.45594000000E+02  0.51100000000E-03 0.  1.
    9900012    2    1    2    0    0 -0.36569959673E+02 -0.12411181044E+02 -0.12718745357E+02  0.50528857746E+02  0.29999993606E+02 0.  0.
         12    1    1    2    0    0  0.36569959673E+02  0.12411181044E+02  0.12718745357E+02  0.40659142254E+02  0.00000000000E+00 0. -1.
         11    1    3    3    0    0 -0.20438410118E+01  0.93567468298E+00  0.18876415329E+01  0.29352962392E+01  0.51100000000E-03 0. -1.
        -11    1    3    3    0    0 -0.32415380563E+02 -0.11223173535E+02 -0.17010730065E+01  0.34345453424E+02  0.51100000000E-03 0.  1.
        -12    1    3    3    0    0 -0.21107380979E+01 -0.21236821915E+01 -0.12905313883E+02  0.13248108084E+02  0.00000000000E+00 0.  1.
</event>
<event>
 7    1  0.5642630E-013  0.5052886E+02  0.7816164E-02  0.1300439E+00
        -11   -1    0    0    0    0  0.00000000000E+00  0.00000000000E+00  0.45593999997E+02  0.45594000000E+02  0.51100000000E-03 0.  1.
         11   -1    0    0    0    0 -0.00000000000E+00 -0.00000000000E+00 -0.45593999997E+02  0.45594000000E+02  0.51100000000E-03 0. -1.
    9900012    2    1    2    0    0  0.99427271273E+01  0.17925574525E+02  0.35113841352E+02  0.50528857125E+02  0.29999991718E+02 0.  0.
         12    1    1    2    0    0 -0.99427271273E+01 -0.17925574525E+02 -0.35113841352E+02  0.40659142875E+02  0.00000000000E+00 0. -1.
         11    1    3    3    0    0  0.48043054502E+01  0.12221209898E+02  0.24233401226E+02  0.27562602516E+02  0.51100000000E-03 0. -1.
        -11    1    3    3    0    0  0.46872327429E+01  0.30194453432E+01  0.16122485935E+02  0.17059359717E+02  0.51100000000E-03 0.  1.
         12    1    3    3    0    0  0.45118893419E+00  0.26849192836E+01 -0.52420458081E+01  0.59068948922E+01  0.00000000000E+00 0. -1.
</event>
<event>
 7    1  0.5642630E-013  0.5052895E+02  0.7816164E-02  0.1300438E+00
        -11   -1    0    0    0    0  0.00000000000E+00  0.00000000000E+00  0.45593999997E+02  0.45594000000E+02  0.51100000000E-03 0.  1.
         11   -1    0    0    0    0 -0.00000000000E+00 -0.00000000000E+00 -0.45593999997E+02  0.45594000000E+02  0.51100000000E-03 0. -1.
    9900012    2    1    2    0    0 -0.18027038252E+02  0.34746925322E+02  0.10992518491E+02  0.50528949467E+02  0.30000272398E+02 0.  0.
         12    1    1    2    0    0  0.18027038252E+02 -0.34746925322E+02 -0.10992518491E+02  0.40659050533E+02  0.00000000000E+00 0. -1.
         11    1    3    3    0    0 -0.29063628902E+01  0.29152653520E+01 -0.12194143168E+00  0.41183233598E+01  0.51100000000E-03 0. -1.
        -11    1    3    3    0    0  0.61805023565E+01  0.19341274789E+02  0.62302757384E+01  0.21239111467E+02  0.51100000000E-03 0.  1.
        -12    1    3    3    0    0 -0.21301177718E+02  0.12490385181E+02  0.48841841844E+01  0.25171514640E+02  0.00000000000E+00 0.  1.
</event>
<event>
 7    1  0.5642630E-013  0.5052884E+02  0.7816164E-02  0.1300439E+00
        -11   -1    0    0    0    0  0.00000000000E+00  0.00000000000E+00  0.45593999997E+02  0.45594000000E+02  0.51100000000E-03 0. -1.
         11   -1    0    0    0    0 -0.00000000000E+00 -0.00000000000E+00 -0.45593999997E+02  0.45594000000E+02  0.51100000000E-03 0.  1.
    9900012    2    1    2    0    0 -0.32752771164E+02 -0.28890442440E+01 -0.23918119890E+02  0.50528842917E+02  0.29999948532E+02 0.  0.
         12    1    1    2    0    0  0.32752771164E+02  0.28890442440E+01  0.23918119890E+02  0.40659157083E+02  0.00000000000E+00 0. -1.
         11    1    3    3    0    0 -0.16583973053E+02  0.76890111789E+01 -0.35940752535E+01  0.18629719062E+02  0.51100000000E-03 0. -1.
        -11    1    3    3    0    0 -0.12280767204E+02 -0.85508133083E+01 -0.47206593160E+01  0.15691343983E+02  0.51100000000E-03 0.  1.
         12    1    3    3    0    0 -0.38880309070E+01 -0.20272421146E+01 -0.15603385321E+02  0.16207779873E+02  0.00000000000E+00 0. -1.
</event>
<event>
 7    1  0.5642630E-013  0.5052887E+02  0.7816164E-02  0.1300439E+00
        -11   -1    0    0    0    0  0.00000000000E+00  0.00000000000E+00  0.45593999997E+02  0.45594000000E+02  0.51100000000E-03 0. -1.
         11   -1    0    0    0    0 -0.00000000000E+00 -0.00000000000E+00 -0.45593999997E+02  0.45594000000E+02  0.51100000000E-03 0.  1.
    9900012    2    1    2    0    0  0.26076051777E+02 -0.58043356365E+01 -0.30651488876E+02  0.50528873611E+02  0.30000041827E+02 0.  0.
         12    1    1    2    0    0 -0.26076051777E+02  0.58043356365E+01  0.30651488876E+02  0.40659126389E+02  0.00000000000E+00 0. -1.
         11    1    3    3    0    0  0.10145207881E+02  0.69112762579E+01 -0.13176414095E+02  0.18008577709E+02  0.51100000000E-03 0. -1.
        -11    1    3    3    0    0  0.11686367038E+02 -0.12199796213E+01 -0.16460831394E+02  0.20224205677E+02  0.51100000000E-03 0.  1.
         12    1    3    3    0    0  0.42444768578E+01 -0.11495632273E+02 -0.10142433873E+01  0.12296090224E+02  0.00000000000E+00 0. -1.
</event>
<event>
 7    1  0.5642630E-013  0.5052886E+02  0.7816164E-02  0.1300439E+00
        -11   -1    0    0    0    0  0.00000000000E+00  0.00000000000E+00  0.45593999997E+02  0.45594000000E+02  0.51100000000E-03 0.  1.
         11   -1    0    0    0    0 -0.00000000000E+00 -0.00000000000E+00 -0.45593999997E+02  0.45594000000E+02  0.51100000000E-03 0. -1.
    9900012    2    1    2    0    0  0.48213586426E+01 -0.15937377654E+02  0.37093402853E+02  0.50528855385E+02  0.29999986427E+02 0.  0.
         12    1    1    2    0    0 -0.48213586426E+01  0.15937377654E+02 -0.37093402853E+02  0.40659144615E+02  0.00000000000E+00 0. -1.
         11    1    3    3    0    0 -0.44895564597E-01 -0.66742087186E+01  0.44778983123E+01  0.80373286101E+01  0.51100000000E-03 0. -1.
        -11    1    3    3    0    0  0.27188585564E+01 -0.16112243397E+02  0.10954562574E+02  0.19672290680E+02  0.51100000000E-03 0.  1.
         12    1    3    3    0    0  0.21473956507E+01  0.68490744618E+01  0.21660941967E+02  0.22819236095E+02  0.00000000000E+00 0. -1.
</event>
<event>
 7    1  0.5642630E-013  0.5052886E+02  0.7816164E-02  0.1300439E+00
        -11   -1    0    0    0    0  0.00000000000E+00  0.00000000000E+00  0.45593999997E+02  0.45594000000E+02  0.51100000000E-03 0.  1.
         11   -1    0    0    0    0 -0.00000000000E+00 -0.00000000000E+00 -0.45593999997E+02  0.45594000000E+02  0.51100000000E-03 0. -1.
    9900012    2    1    2    0    0  0.24698807411E+02  0.32839393975E+01  0.32130209543E+02  0.50528859444E+02  0.29999998765E+02 0.  0.
         12    1    1    2    0    0 -0.24698807411E+02 -0.32839393975E+01 -0.32130209543E+02  0.40659140556E+02  0.00000000000E+00 0. -1.
         11    1    3    3    0    0 -0.12763184027E+01 -0.20460553753E+01 -0.10241824773E+01  0.26199773418E+01  0.51100000000E-03 0. -1.
        -11    1    3    3    0    0  0.93075637092E+01 -0.87165882284E+01  0.13285140475E+02  0.18414793245E+02  0.51100000000E-03 0.  1.
        -12    1    3    3    0    0  0.16667562105E+02  0.14046583001E+02  0.19869251546E+02  0.29494088857E+02  0.00000000000E+00 0.  1.
</event>
<event>
 7    1  0.5642630E-013  0.5052885E+02  0.7816164E-02  0.1300439E+00
        -11   -1    0    0    0    0  0.00000000000E+00  0.00000000000E+00  0.45593999997E+02  0.45594000000E+02  0.51100000000E-03 0.  1.
         11   -1    0    0    0    0 -0.00000000000E+00 -0.00000000000E+00 -0.45593999997E+02  0.45594000000E+02  0.51100000000E-03 0. -1.
    9900012    2    1    2    0    0 -0.46159382989E+01  0.58550370375E+01  0.39969712389E+02  0.50528852769E+02  0.29999978477E+02 0.  0.
         12    1    1    2    0    0  0.46159382989E+01 -0.58550370375E+01 -0.39969712389E+02  0.40659147231E+02  0.00000000000E+00 0. -1.
         11    1    3    3    0    0 -0.24014658363E+01  0.46650019711E+00 -0.10804036525E+01  0.26743098007E+01  0.51100000000E-03 0.  1.
        -11    1    3    3    0    0 -0.38876057314E+01 -0.19025572856E+01 -0.15539746019E+01  0.45986998024E+01  0.51100000000E-03 0. -1.
        -12    1    3    3    0    0  0.16731332688E+01  0.72910941259E+01  0.42604090643E+02  0.43255843166E+02  0.00000000000E+00 0.  1.
</event>
<event>
 7    1  0.5642630E-013  0.5052886E+02  0.7816164E-02  0.1300439E+00
        -11   -1    0    0    0    0  0.00000000000E+00  0.00000000000E+00  0.45593999997E+02  0.45594000000E+02  0.51100000000E-03 0. -1.
         11   -1    0    0    0    0 -0.00000000000E+00 -0.00000000000E+00 -0.45593999997E+02  0.45594000000E+02  0.51100000000E-03 0.  1.
    9900012    2    1    2    0    0 -0.12994382596E+02 -0.17045381607E+02 -0.34550933421E+02  0.50528855722E+02  0.29999987453E+02 0.  0.
         12    1    1    2    0    0  0.12994382596E+02  0.17045381607E+02  0.34550933421E+02  0.40659144278E+02  0.00000000000E+00 0. -1.
         11    1    3    3    0    0  0.80603570253E+00  0.44734828646E+01  0.67006258318E+00  0.45946410763E+01  0.51100000000E-03 0. -1.
        -11    1    3    3    0    0 -0.11101478297E+02 -0.44558259339E+01 -0.17391918634E+02  0.21108672132E+02  0.51100000000E-03 0.  1.
        -12    1    3    3    0    0 -0.26989400014E+01 -0.17063038537E+02 -0.17829077370E+02  0.24825542514E+02  0.00000000000E+00 0.  1.
</event>
<event>
 7    1  0.5642630E-013  0.5052885E+02  0.7816164E-02  0.1300439E+00
        -11   -1    0    0    0    0  0.00000000000E+00  0.00000000000E+00  0.45593999997E+02  0.45594000000E+02  0.51100000000E-03 0. -1.
         11   -1    0    0    0    0 -0.00000000000E+00 -0.00000000000E+00 -0.45593999997E+02  0.45594000000E+02  0.51100000000E-03 0.  1.
    9900012    2    1    2    0    0  0.23071489689E+00  0.39822289961E+02 -0.82035776132E+01  0.50528847367E+02  0.29999962058E+02 0.  0.
         12    1    1    2    0    0 -0.23071489689E+00 -0.39822289961E+02  0.82035776132E+01  0.40659152633E+02  0.00000000000E+00 0. -1.
         11    1    3    3    0    0 -0.17298421369E+01  0.15342921018E+02  0.17803866740E+01  0.15542437265E+02  0.51100000000E-03 0. -1.
        -11    1    3    3    0    0  0.12312437550E+02  0.13117718298E+02 -0.71360037770E+01  0.19354410400E+02  0.51100000000E-03 0.  1.
         12    1    3    3    0    0 -0.10351880516E+02  0.11361650646E+02 -0.28479605103E+01  0.15631999702E+02  0.00000000000E+00 0. -1.
</event>
<event>
 7    1  0.5642630E-013  0.5052886E+02  0.7816164E-02  0.1300439E+00
        -11   -1    0    0    0    0  0.00000000000E+00  0.00000000000E+00  0.45593999997E+02  0.45594000000E+02  0.51100000000E-03 0.  1.
         11   -1    0    0    0    0 -0.00000000000E+00 -0.00000000000E+00 -0.45593999997E+02  0.45594000000E+02  0.51100000000E-03 0. -1.
    9900012    2    1    2    0    0 -0.12775956532E+02 -0.17789958174E+02  0.34255774148E+02  0.50528859089E+02  0.29999997687E+02 0.  0.
         12    1    1    2    0    0  0.12775956532E+02  0.17789958174E+02 -0.34255774148E+02  0.40659140911E+02  0.00000000000E+00 0. -1.
         11    1    3    3    0    0  0.53538158965E+01 -0.11606880841E+02  0.75512564596E+01  0.14846026468E+02  0.51100000000E-03 0. -1.
        -11    1    3    3    0    0 -0.18375557690E+01 -0.64365352664E+01  0.11970302275E+02  0.13714726912E+02  0.51100000000E-03 0.  1.
        -12    1    3    3    0    0 -0.16292216660E+02  0.25345793360E+00  0.14734215413E+02  0.21968105709E+02  0.00000000000E+00 0.  1.
</event>
<event>
 7    1  0.5642630E-013  0.5052890E+02  0.7816164E-02  0.1300439E+00
        -11   -1    0    0    0    0  0.00000000000E+00  0.00000000000E+00  0.45593999997E+02  0.45594000000E+02  0.51100000000E-03 0.  1.
         11   -1    0    0    0    0 -0.00000000000E+00 -0.00000000000E+00 -0.45593999997E+02  0.45594000000E+02  0.51100000000E-03 0. -1.
    9900012    2    1    2    0    0 -0.12857479761E+02  0.35957638420E+02 -0.13960512341E+02  0.50528899526E+02  0.30000120599E+02 0.  0.
         12    1    1    2    0    0  0.12857479761E+02 -0.35957638420E+02  0.13960512341E+02  0.40659100474E+02  0.00000000000E+00 0. -1.
         11    1    3    3    0    0  0.63699685957E+00  0.20533241527E+02 -0.66661192627E+01  0.21597613732E+02  0.51100000000E-03 0.  1.
        -11    1    3    3    0    0  0.36337967019E+01  0.61482332356E+01 -0.61399155465E+01  0.94182702005E+01  0.51100000000E-03 0. -1.
         12    1    3    3    0    0 -0.17128273323E+02  0.92761636567E+01 -0.11544775321E+01  0.19513015594E+02  0.00000000000E+00 0. -1.
</event>
<event>
 7    1  0.5642630E-013  0.5052886E+02  0.7816164E-02  0.1300439E+00
        -11   -1    0    0    0    0  0.00000000000E+00  0.00000000000E+00  0.45593999997E+02  0.45594000000E+02  0.51100000000E-03 0.  1.
         11   -1    0    0    0    0 -0.00000000000E+00 -0.00000000000E+00 -0.45593999997E+02  0.45594000000E+02  0.51100000000E-03 0. -1.
    9900012    2    1    2    0    0 -0.24918895502E+02 -0.20284853638E+01  0.32063992760E+02  0.50528859114E+02  0.29999997762E+02 0.  0.
         12    1    1    2    0    0  0.24918895502E+02  0.20284853638E+01 -0.32063992760E+02  0.40659140886E+02  0.00000000000E+00 0. -1.
         11    1    3    3    0    0 -0.88578775557E+01 -0.50214011727E+01  0.34033304748E+01  0.10735880174E+02  0.51100000000E-03 0. -1.
        -11    1    3    3    0    0 -0.17751350965E+02 -0.26332797583E+01  0.10694148112E+02  0.20890414727E+02  0.51100000000E-03 0.  1.
        -12    1    3    3    0    0  0.16903330187E+01  0.56261955672E+01  0.17966514173E+02  0.18902564212E+02  0.00000000000E+00 0.  1.
</event>
<event>
 7    1  0.5642630E-013  0.5052887E+02  0.7816164E-02  0.1300439E+00
        -11   -1    0    0    0    0  0.00000000000E+00  0.00000000000E+00  0.45593999997E+02  0.45594000000E+02  0.51100000000E-03 0. -1.
         11   -1    0    0    0    0 -0.00000000000E+00 -0.00000000000E+00 -0.45593999997E+02  0.45594000000E+02  0.51100000000E-03 0.  1.
    9900012    2    1    2    0    0  0.34334522937E+02  0.13320899718E+02 -0.17229608153E+02  0.50528865335E+02  0.30000016672E+02 0.  0.
         12    1    1    2    0    0 -0.34334522937E+02 -0.13320899718E+02  0.17229608153E+02  0.40659134665E+02  0.00000000000E+00 0. -1.
         11    1    3    3    0    0  0.15292914751E+01  0.85077866593E+01 -0.10605748870E+02  0.13682217496E+02  0.51100000000E-03 0. -1.
        -11    1    3    3    0    0 -0.14416322035E+01 -0.12904278786E+00 -0.10749764228E+01  0.18029226334E+01  0.51100000000E-03 0.  1.
        -12    1    3    3    0    0  0.34246863665E+02  0.49421558467E+01 -0.55488828609E+01  0.35043725206E+02  0.00000000000E+00 0.  1.
</event>
<event>
 7    1  0.5642630E-013  0.5052887E+02  0.7816164E-02  0.1300439E+00
        -11   -1    0    0    0    0  0.00000000000E+00  0.00000000000E+00  0.45593999997E+02  0.45594000000E+02  0.51100000000E-03 0. -1.
         11   -1    0    0    0    0 -0.00000000000E+00 -0.00000000000E+00 -0.45593999997E+02  0.45594000000E+02  0.51100000000E-03 0.  1.
    9900012    2    1    2    0    0  0.40163544767E+02 -0.12006353215E+01  0.62139510219E+01  0.50528867683E+02  0.30000023810E+02 0.  0.
         12    1    1    2    0    0 -0.40163544767E+02  0.12006353215E+01 -0.62139510219E+01  0.40659132317E+02  0.00000000000E+00 0. -1.
         11    1    3    3    0    0  0.10819383253E+02  0.16840427566E+00 -0.42073299006E+01  0.11609868179E+02  0.51100000000E-03 0. -1.
        -11    1    3    3    0    0  0.12545479178E+02  0.47445380845E+01 -0.59551395115E+01  0.14675264096E+02  0.51100000000E-03 0.  1.
         12    1    3    3    0    0  0.16798682336E+02 -0.61135776817E+01  0.16376420434E+02  0.24243735408E+02  0.00000000000E+00 0. -1.
</event>
<event>
 7    1  0.5642630E-013  0.5052886E+02  0.7816164E-02  0.1300439E+00
        -11   -1    0    0    0    0  0.00000000000E+00  0.00000000000E+00  0.45593999997E+02  0.45594000000E+02  0.51100000000E-03 0.  1.
         11   -1    0    0    0    0 -0.00000000000E+00 -0.00000000000E+00 -0.45593999997E+02  0.45594000000E+02  0.51100000000E-03 0. -1.
    9900012    2    1    2    0    0  0.15902552957E+02  0.28913146430E+02  0.23755100879E+02  0.50528855336E+02  0.29999986281E+02 0.  0.
         12    1    1    2    0    0 -0.15902552957E+02 -0.28913146430E+02 -0.23755100879E+02  0.40659144664E+02  0.00000000000E+00 0. -1.
         11    1    3    3    0    0  0.29668721391E+01 -0.70126567608E+00  0.50329944252E+00  0.30898890640E+01  0.51100000000E-03 0. -1.
        -11    1    3    3    0    0  0.68774046646E+00 -0.77149201461E-01 -0.47668591626E+01  0.48168335539E+01  0.51100000000E-03 0.  1.
        -12    1    3    3    0    0  0.12247940351E+02  0.29691561308E+02  0.28018660599E+02  0.42622132718E+02  0.00000000000E+00 0.  1.
</event>
<event>
 7    1  0.5642630E-013  0.5052887E+02  0.7816164E-02  0.1300439E+00
        -11   -1    0    0    0    0  0.00000000000E+00  0.00000000000E+00  0.45593999997E+02  0.45594000000E+02  0.51100000000E-03 0. -1.
         11   -1    0    0    0    0 -0.00000000000E+00 -0.00000000000E+00 -0.45593999997E+02  0.45594000000E+02  0.51100000000E-03 0.  1.
    9900012    2    1    2    0    0  0.40445173640E+02  0.12430033857E+01 -0.39759333752E+01  0.50528866040E+02  0.30000018815E+02 0.  0.
         12    1    1    2    0    0 -0.40445173640E+02 -0.12430033857E+01  0.39759333752E+01  0.40659133960E+02  0.00000000000E+00 0. -1.
         11    1    3    3    0    0 -0.38077263619E+01 -0.89295042143E+00  0.25159131604E+01  0.46503720060E+01  0.51100000000E-03 0. -1.
        -11    1    3    3    0    0  0.19064471536E+02 -0.20081870507E+01  0.12291821138E+01  0.19209314905E+02  0.51100000000E-03 0.  1.
        -12    1    3    3    0    0  0.25188428466E+02  0.41441408578E+01 -0.77210286495E+01  0.26669179129E+02  0.00000000000E+00 0.  1.
</event>
<event>
 7    1  0.5642630E-013  0.5052886E+02  0.7816164E-02  0.1300439E+00
        -11   -1    0    0    0    0  0.00000000000E+00  0.00000000000E+00  0.45593999997E+02  0.45594000000E+02  0.51100000000E-03 0. -1.
         11   -1    0    0    0    0 -0.00000000000E+00 -0.00000000000E+00 -0.45593999997E+02  0.45594000000E+02  0.51100000000E-03 0.  1.
    9900012    2    1    2    0    0 -0.30139121919E+02  0.35128309919E+00 -0.27288741948E+02  0.50528861950E+02  0.30000006384E+02 0.  0.
         12    1    1    2    0    0  0.30139121919E+02 -0.35128309919E+00  0.27288741948E+02  0.40659138050E+02  0.00000000000E+00 0. -1.
         11    1    3    3    0    0 -0.17539067849E+01  0.11571083791E+02 -0.74991674444E+01  0.13899772722E+02  0.51100000000E-03 0. -1.
        -11    1    3    3    0    0 -0.86633079928E+01 -0.14453028335E+01 -0.49371344031E+01  0.10075569564E+02  0.51100000000E-03 0.  1.
         12    1    3    3    0    0 -0.19721907141E+02 -0.97744978580E+01 -0.14852440100E+02  0.26553519665E+02  0.00000000000E+00 0. -1.
</event>
<event>
 7    1  0.5642630E-013  0.5052887E+02  0.7816164E-02  0.1300439E+00
        -11   -1    0    0    0    0  0.00000000000E+00  0.00000000000E+00  0.45593999997E+02  0.45594000000E+02  0.51100000000E-03 0. -1.
         11   -1    0    0    0    0 -0.00000000000E+00 -0.00000000000E+00 -0.45593999997E+02  0.45594000000E+02  0.51100000000E-03 0.  1.
    9900012    2    1    2    0    0  0.58949838198E+01  0.28878243772E+02 -0.28008238250E+02  0.50528865633E+02  0.30000017579E+02 0.  0.
         12    1    1    2    0    0 -0.58949838198E+01 -0.28878243772E+02  0.28008238250E+02  0.40659134367E+02  0.00000000000E+00 0. -1.
         11    1    3    3    0    0  0.16739838253E+01  0.23881702860E+01  0.23675393666E+01  0.37564374181E+01  0.51100000000E-03 0. -1.
        -11    1    3    3    0    0 -0.40236256422E+01  0.15464678351E+02 -0.28772812931E+02  0.32912316905E+02  0.51100000000E-03 0.  1.
         12    1    3    3    0    0  0.82446256367E+01  0.11025395135E+02 -0.16029646859E+01  0.13860111311E+02  0.00000000000E+00 0. -1.
</event>
<event>
 7    1  0.5642630E-013  0.5052884E+02  0.7816164E-02  0.1300439E+00
        -11   -1    0    0    0    0  0.00000000000E+00  0.00000000000E+00  0.45593999997E+02  0.45594000000E+02  0.51100000000E-03 0.  1.
         11   -1    0    0    0    0 -0.00000000000E+00 -0.00000000000E+00 -0.45593999997E+02  0.45594000000E+02  0.51100000000E-03 0. -1.
    9900012    2    1    2    0    0  0.14885895560E+02 -0.17400584292E+01  0.37796153328E+02  0.50528844864E+02  0.29999954449E+02 0.  0.
         12    1    1    2    0    0 -0.14885895560E+02  0.17400584292E+01 -0.37796153328E+02  0.40659155136E+02  0.00000000000E+00 0. -1.
         11    1    3    3    0    0  0.11638113153E+01 -0.10254230302E+01  0.19156250169E+02  0.19218945600E+02  0.51100000000E-03 0.  1.
        -11    1    3    3    0    0  0.26214604667E+01 -0.74759772748E+01  0.16272303566E+02  0.18098346742E+02  0.51100000000E-03 0. -1.
         12    1    3    3    0    0  0.11100623778E+02  0.67613418758E+01  0.23675995934E+01  0.13211552522E+02  0.00000000000E+00 0. -1.
</event>
<event>
 7    1  0.5642630E-013  0.5052887E+02  0.7816164E-02  0.1300439E+00
        -11   -1    0    0    0    0  0.00000000000E+00  0.00000000000E+00  0.45593999997E+02  0.45594000000E+02  0.51100000000E-03 0.  1.
         11   -1    0    0    0    0 -0.00000000000E+00 -0.00000000000E+00 -0.45593999997E+02  0.45594000000E+02  0.51100000000E-03 0. -1.
    9900012    2    1    2    0    0 -0.32272981221E+02  0.24541941303E+02  0.30516277553E+01  0.50528872713E+02  0.30000039099E+02 0.  0.
         12    1    1    2    0    0  0.32272981221E+02 -0.24541941303E+02 -0.30516277553E+01  0.40659127287E+02  0.00000000000E+00 0. -1.
         11    1    3    3    0    0 -0.17755095476E+02  0.10013476643E+02 -0.49623554752E+01  0.20979468582E+02  0.51100000000E-03 0. -1.
        -11    1    3    3    0    0 -0.18175936607E+02  0.13598696897E+02  0.24580297533E+01  0.22832677008E+02  0.51100000000E-03 0.  1.
        -12    1    3    3    0    0  0.36580508627E+01  0.92976776337E+00  0.55559534771E+01  0.67167271232E+01  0.00000000000E+00 0.  1.
</event>
<event>
 7    1  0.5642630E-013  0.5052886E+02  0.7816164E-02  0.1300439E+00
        -11   -1    0    0    0    0  0.00000000000E+00  0.00000000000E+00  0.45593999997E+02  0.45594000000E+02  0.51100000000E-03 0.  1.
         11   -1    0    0    0    0 -0.00000000000E+00 -0.00000000000E+00 -0.45593999997E+02  0.45594000000E+02  0.51100000000E-03 0. -1.
    9900012    2    1    2    0    0 -0.19880344546E+02 -0.11802596119E+02  0.33446021636E+02  0.50528859113E+02  0.29999997759E+02 0.  0.
         12    1    1    2    0    0  0.19880344546E+02  0.11802596119E+02 -0.33446021636E+02  0.40659140887E+02  0.00000000000E+00 0. -1.
         11    1    3    3    0    0  0.59020278536E+00  0.12921218136E+01 -0.27726665825E+01  0.31153809315E+01  0.51100000000E-03 0. -1.
        -11    1    3    3    0    0 -0.14045754398E+02  0.19509044825E+01  0.18271485803E+02  0.23128692973E+02  0.51100000000E-03 0.  1.
         12    1    3    3    0    0 -0.64247929335E+01 -0.15045622415E+02  0.17947202415E+02  0.24284785209E+02  0.00000000000E+00 0. -1.
</event>
<event>
 7    1  0.5642630E-013  0.5052883E+02  0.7816164E-02  0.1300439E+00
        -11   -1    0    0    0    0  0.00000000000E+00  0.00000000000E+00  0.45593999997E+02  0.45594000000E+02  0.51100000000E-03 0. -1.
         11   -1    0    0    0    0 -0.00000000000E+00 -0.00000000000E+00 -0.45593999997E+02  0.45594000000E+02  0.51100000000E-03 0.  1.
    9900012    2    1    2    0    0 -0.23332878830E+02  0.27378509167E+02 -0.18951562447E+02  0.50528834762E+02  0.29999923741E+02 0.  0.
         12    1    1    2    0    0  0.23332878830E+02 -0.27378509167E+02  0.18951562447E+02  0.40659165238E+02  0.00000000000E+00 0. -1.
         11    1    3    3    0    0 -0.16059136940E+01  0.61899521738E+01 -0.77553004012E+01  0.10051823281E+02  0.51100000000E-03 0. -1.
        -11    1    3    3    0    0 -0.32183718161E+01 -0.20414078252E+01 -0.10055216690E+02  0.10753262110E+02  0.51100000000E-03 0.  1.
         12    1    3    3    0    0 -0.18508593320E+02  0.23229964819E+02 -0.11410453556E+01  0.29723749371E+02  0.00000000000E+00 0. -1.
</event>
<event>
 7    1  0.5642630E-013  0.5052884E+02  0.7816164E-02  0.1300439E+00
        -11   -1    0    0    0    0  0.00000000000E+00  0.00000000000E+00  0.45593999997E+02  0.45594000000E+02  0.51100000000E-03 0. -1.
         11   -1    0    0    0    0 -0.00000000000E+00 -0.00000000000E+00 -0.45593999997E+02  0.45594000000E+02  0.51100000000E-03 0.  1.
    9900012    2    1    2    0    0  0.23929021844E+02  0.32820866249E+02  0.18330341854E+01  0.50528839137E+02  0.29999937042E+02 0.  0.
         12    1    1    2    0    0 -0.23929021844E+02 -0.32820866249E+02 -0.18330341854E+01  0.40659160863E+02  0.00000000000E+00 0. -1.
         11    1    3    3    0    0 -0.23735670927E+01  0.93796290624E+00  0.37210942590E+01  0.45122209501E+01  0.51100000000E-03 0. -1.
        -11    1    3    3    0    0  0.14217786372E+02  0.30545037971E+02  0.12693449432E+00  0.33692149035E+02  0.51100000000E-03 0.  1.
         12    1    3    3    0    0  0.12084802565E+02  0.13378653717E+01 -0.20149945680E+01  0.12324469152E+02  0.00000000000E+00 0. -1.
</event>
<event>
 7    1  0.5642630E-013  0.5052886E+02  0.7816164E-02  0.1300439E+00
        -11   -1    0    0    0    0  0.00000000000E+00  0.00000000000E+00  0.45593999997E+02  0.45594000000E+02  0.51100000000E-03 0. -1.
         11   -1    0    0    0    0 -0.00000000000E+00 -0.00000000000E+00 -0.45593999997E+02  0.45594000000E+02  0.51100000000E-03 0.  1.
    9900012    2    1    2    0    0  0.27099019026E+01 -0.21311774055E+02 -0.34520002632E+02  0.50528857567E+02  0.29999993061E+02 0.  0.
         12    1    1    2    0    0 -0.27099019026E+01  0.21311774055E+02  0.34520002632E+02  0.40659142433E+02  0.00000000000E+00 0. -1.
         11    1    3    3    0    0 -0.44119781480E+00 -0.50683464789E+01 -0.30182596294E+01  0.59154613508E+01  0.51100000000E-03 0. -1.
        -11    1    3    3    0    0  0.78924706652E+01 -0.21443005393E+02 -0.16951057063E+02  0.28450516855E+02  0.51100000000E-03 0.  1.
         12    1    3    3    0    0 -0.47413709478E+01  0.51995778175E+01 -0.14550685939E+02  0.16162879361E+02  0.00000000000E+00 0. -1.
</event>
<event>
 7    1  0.5642630E-013  0.5052886E+02  0.7816164E-02  0.1300439E+00
        -11   -1    0    0    0    0  0.00000000000E+00  0.00000000000E+00  0.45593999997E+02  0.45594000000E+02  0.51100000000E-03 0. -1.
         11   -1    0    0    0    0 -0.00000000000E+00 -0.00000000000E+00 -0.45593999997E+02  0.45594000000E+02  0.51100000000E-03 0.  1.
    9900012    2    1    2    0    0 -0.11580917722E+01 -0.34096527101E+02 -0.22119032151E+02  0.50528856868E+02  0.29999990937E+02 0.  0.
         12    1    1    2    0    0  0.11580917722E+01  0.34096527101E+02  0.22119032151E+02  0.40659143132E+02  0.00000000000E+00 0. -1.
         11    1    3    3    0    0 -0.74847790344E+00  0.17692281729E+00 -0.13284736611E+01  0.15350450757E+01  0.51100000000E-03 0. -1.
        -11    1    3    3    0    0 -0.98016293807E+01 -0.33152619085E+02 -0.18708435052E+02  0.39308696659E+02  0.51100000000E-03 0.  1.
         12    1    3    3    0    0  0.93920155119E+01 -0.11208308331E+01 -0.20821234386E+01  0.96851151333E+01  0.00000000000E+00 0. -1.
</event>
<event>
 7    1  0.5642630E-013  0.5052884E+02  0.7816164E-02  0.1300439E+00
        -11   -1    0    0    0    0  0.00000000000E+00  0.00000000000E+00  0.45593999997E+02  0.45594000000E+02  0.51100000000E-03 0.  1.
         11   -1    0    0    0    0 -0.00000000000E+00 -0.00000000000E+00 -0.45593999997E+02  0.45594000000E+02  0.51100000000E-03 0. -1.
    9900012    2    1    2    0    0  0.17525816907E+02  0.26801548440E+02  0.25053742039E+02  0.50528840550E+02  0.29999941336E+02 0.  0.
         12    1    1    2    0    0 -0.17525816907E+02 -0.26801548440E+02 -0.25053742039E+02  0.40659159450E+02  0.00000000000E+00 0. -1.
         11    1    3    3    0    0 -0.55216105776E+01  0.81049338799E+01  0.61468372217E+01  0.11574184406E+02  0.51100000000E-03 0. -1.
        -11    1    3    3    0    0  0.13554823484E+01  0.29435509313E+01  0.10300875548E+02  0.10798604623E+02  0.51100000000E-03 0.  1.
        -12    1    3    3    0    0  0.21691945136E+02  0.15753063629E+02  0.86060292689E+01  0.28156051521E+02  0.00000000000E+00 0.  1.
</event>
<event>
 7    1  0.5642630E-013  0.5052887E+02  0.7816164E-02  0.1300439E+00
        -11   -1    0    0    0    0  0.00000000000E+00  0.00000000000E+00  0.45593999997E+02  0.45594000000E+02  0.51100000000E-03 0.  1.
         11   -1    0    0    0    0 -0.00000000000E+00 -0.00000000000E+00 -0.45593999997E+02  0.45594000000E+02  0.51100000000E-03 0. -1.
    9900012    2    1    2    0    0  0.34344562694E+02 -0.20266612631E+02 -0.79297028247E+01  0.50528871123E+02  0.30000034265E+02 0.  0.
         12    1    1    2    0    0 -0.34344562694E+02  0.20266612631E+02  0.79297028247E+01  0.40659128877E+02  0.00000000000E+00 0. -1.
         11    1    3    3    0    0  0.21832285703E+01  0.40209011246E+01 -0.17235248003E+01  0.48892403134E+01  0.51100000000E-03 0. -1.
        -11    1    3    3    0    0  0.92417031417E+01  0.26485556155E+01  0.56274594965E+00  0.96301924733E+01  0.51100000000E-03 0.  1.
         12    1    3    3    0    0  0.22919630982E+02 -0.26936069371E+02 -0.67689239740E+01  0.36009438336E+02  0.00000000000E+00 0. -1.
</event>
<event>
 7    1  0.5642630E-013  0.5052883E+02  0.7816164E-02  0.1300439E+00
        -11   -1    0    0    0    0  0.00000000000E+00  0.00000000000E+00  0.45593999997E+02  0.45594000000E+02  0.51100000000E-03 0.  1.
         11   -1    0    0    0    0 -0.00000000000E+00 -0.00000000000E+00 -0.45593999997E+02  0.45594000000E+02  0.51100000000E-03 0. -1.
    9900012    2    1    2    0    0  0.56915718813E+01 -0.26450826227E+02  0.30350093399E+02  0.50528826769E+02  0.29999899446E+02 0.  0.
         12    1    1    2    0    0 -0.56915718813E+01  0.26450826227E+02 -0.30350093399E+02  0.40659173231E+02  0.00000000000E+00 0. -1.
         11    1    3    3    0    0 -0.40606300370E+01 -0.10317720058E+02  0.46655973117E+01  0.12029624351E+02  0.51100000000E-03 0. -1.
        -11    1    3    3    0    0 -0.57442469724E+01 -0.67567849099E+00  0.16993961094E+01  0.60283382536E+01  0.51100000000E-03 0.  1.
        -12    1    3    3    0    0  0.15496448891E+02 -0.15457427678E+02  0.23985099978E+02  0.32470864164E+02  0.00000000000E+00 0.  1.
</event>
<event>
 7    1  0.5642630E-013  0.5052883E+02  0.7816164E-02  0.1300439E+00
        -11   -1    0    0    0    0  0.00000000000E+00  0.00000000000E+00  0.45593999997E+02  0.45594000000E+02  0.51100000000E-03 0.  1.
         11   -1    0    0    0    0 -0.00000000000E+00 -0.00000000000E+00 -0.45593999997E+02  0.45594000000E+02  0.51100000000E-03 0. -1.
    9900012    2    1    2    0    0 -0.86351003732E+01  0.28038826907E+02  0.28150082159E+02  0.50528832542E+02  0.29999916996E+02 0.  0.
         12    1    1    2    0    0  0.86351003732E+01 -0.28038826907E+02 -0.28150082159E+02  0.40659167458E+02  0.00000000000E+00 0. -1.
         11    1    3    3    0    0  0.31838103678E+00  0.10014326369E+02  0.10220954642E+02  0.14312791942E+02  0.51100000000E-03 0. -1.
        -11    1    3    3    0    0 -0.25472746780E+00  0.19518910174E+02  0.19102456036E+02  0.27312205465E+02  0.51100000000E-03 0.  1.
        -12    1    3    3    0    0 -0.86987539422E+01 -0.14944096363E+01 -0.11733285196E+01  0.89038351357E+01  0.00000000000E+00 0.  1.
</event>
<event>
 7    1  0.5642630E-013  0.5052883E+02  0.7816164E-02  0.1300439E+00
        -11   -1    0    0    0    0  0.00000000000E+00  0.00000000000E+00  0.45593999997E+02  0.45594000000E+02  0.51100000000E-03 0.  1.
         11   -1    0    0    0    0 -0.00000000000E+00 -0.00000000000E+00 -0.45593999997E+02  0.45594000000E+02  0.51100000000E-03 0. -1.
    9900012    2    1    2    0    0 -0.13908561211E+02 -0.33861147060E+02  0.17695848214E+02  0.50528826383E+02  0.29999898275E+02 0.  0.
         12    1    1    2    0    0  0.13908561211E+02  0.33861147060E+02 -0.17695848214E+02  0.40659173617E+02  0.00000000000E+00 0. -1.
         11    1    3    3    0    0 -0.10372293734E+02 -0.16070558835E+02 -0.13968829719E+01  0.19178076569E+02  0.51100000000E-03 0. -1.
        -11    1    3    3    0    0 -0.38923633843E+01 -0.25684993664E+01 -0.22142861629E+01  0.51624359737E+01  0.51100000000E-03 0.  1.
        -12    1    3    3    0    0  0.35609590749E+00 -0.15222088858E+02  0.21307017349E+02  0.26188313841E+02  0.00000000000E+00 0.  1.
</event>
<event>
 7    1  0.5642630E-013  0.5052888E+02  0.7816164E-02  0.1300439E+00
        -11   -1    0    0    0    0  0.00000000000E+00  0.00000000000E+00  0.45593999997E+02  0.45594000000E+02  0.51100000000E-03 0.  1.
         11   -1    0    0    0    0 -0.00000000000E+00 -0.00000000000E+00 -0.45593999997E+02  0.45594000000E+02  0.51100000000E-03 0. -1.
    9900012    2    1    2    0    0  0.15759250338E+02 -0.29321444610E+02  0.23346582636E+02  0.50528880408E+02  0.30000062488E+02 0.  0.
         12    1    1    2    0    0 -0.15759250338E+02  0.29321444610E+02 -0.23346582636E+02  0.40659119592E+02  0.00000000000E+00 0. -1.
         11    1    3    3    0    0  0.89060643628E+01 -0.63142533454E+01  0.39832903866E-01  0.10917388180E+02  0.51100000000E-03 0. -1.
        -11    1    3    3    0    0  0.13017225965E+02 -0.14313754176E+02  0.79456926458E+01  0.20915682210E+02  0.51100000000E-03 0.  1.
         12    1    3    3    0    0 -0.61640399900E+01 -0.86934370881E+01  0.15361057087E+02  0.18695810018E+02  0.00000000000E+00 0. -1.
</event>
<event>
 7    1  0.5642630E-013  0.5052885E+02  0.7816164E-02  0.1300439E+00
        -11   -1    0    0    0    0  0.00000000000E+00  0.00000000000E+00  0.45593999997E+02  0.45594000000E+02  0.51100000000E-03 0.  1.
         11   -1    0    0    0    0 -0.00000000000E+00 -0.00000000000E+00 -0.45593999997E+02  0.45594000000E+02  0.51100000000E-03 0. -1.
    9900012    2    1    2    0    0  0.34194045457E+02 -0.20070100378E+02  0.90069453895E+01  0.50528846798E+02  0.29999960327E+02 0.  0.
         12    1    1    2    0    0 -0.34194045457E+02  0.20070100378E+02 -0.90069453895E+01  0.40659153202E+02  0.00000000000E+00 0. -1.
         11    1    3    3    0    0 -0.14855205491E+01 -0.69434027519E+01 -0.16892455744E+00  0.71025452371E+01  0.51100000000E-03 0. -1.
        -11    1    3    3    0    0  0.16449921929E+02 -0.12362428337E+02 -0.27886071240E+01  0.20765497726E+02  0.51100000000E-03 0.  1.
        -12    1    3    3    0    0  0.19229644077E+02 -0.76426928858E+00  0.11964477071E+02  0.22660803835E+02  0.00000000000E+00 0.  1.
</event>
<event>
 7    1  0.5642630E-013  0.5052888E+02  0.7816164E-02  0.1300439E+00
        -11   -1    0    0    0    0  0.00000000000E+00  0.00000000000E+00  0.45593999997E+02  0.45594000000E+02  0.51100000000E-03 0.  1.
         11   -1    0    0    0    0 -0.00000000000E+00 -0.00000000000E+00 -0.45593999997E+02  0.45594000000E+02  0.51100000000E-03 0. -1.
    9900012    2    1    2    0    0  0.23326641924E+02 -0.22987518448E+02  0.24095763317E+02  0.50528880018E+02  0.30000061304E+02 0.  0.
         12    1    1    2    0    0 -0.23326641924E+02  0.22987518448E+02 -0.24095763317E+02  0.40659119982E+02  0.00000000000E+00 0. -1.
         11    1    3    3    0    0 -0.11561639838E+01  0.30963172254E+01 -0.76064975634E-01  0.33060069055E+01  0.51100000000E-03 0. -1.
        -11    1    3    3    0    0  0.33208133065E+01 -0.16792233880E+02  0.73063636019E+01  0.18611552032E+02  0.51100000000E-03 0.  1.
         12    1    3    3    0    0  0.21161992601E+02 -0.92916017926E+01  0.16865464691E+02  0.28611321081E+02  0.00000000000E+00 0. -1.
</event>
<event>
 7    1  0.5642630E-013  0.5052886E+02  0.7816164E-02  0.1300439E+00
        -11   -1    0    0    0    0  0.00000000000E+00  0.00000000000E+00  0.45593999997E+02  0.45594000000E+02  0.51100000000E-03 0.  1.
         11   -1    0    0    0    0 -0.00000000000E+00 -0.00000000000E+00 -0.45593999997E+02  0.45594000000E+02  0.51100000000E-03 0. -1.
    9900012    2    1    2    0    0 -0.14820005808E+02 -0.24945173675E+01  0.37779762892E+02  0.50528859906E+02  0.30000000169E+02 0.  0.
         12    1    1    2    0    0  0.14820005808E+02  0.24945173675E+01 -0.37779762892E+02  0.40659140094E+02  0.00000000000E+00 0. -1.
         11    1    3    3    0    0 -0.56522666775E+01 -0.45027505996E+01  0.53557766053E+01  0.89948443490E+01  0.51100000000E-03 0. -1.
        -11    1    3    3    0    0 -0.16886894348E+02  0.32195873967E+01  0.16657280531E+02  0.23937375350E+02  0.51100000000E-03 0.  1.
         12    1    3    3    0    0  0.77191552168E+01 -0.12113541646E+01  0.15766705756E+02  0.17596640206E+02  0.00000000000E+00 0. -1.
</event>
<event>
 7    1  0.9200393E-013  0.5052885E+02  0.7816164E-02  0.1300439E+00
        -11   -1    0    0    0    0  0.00000000000E+00  0.00000000000E+00  0.45593999997E+02  0.45594000000E+02  0.51100000000E-03 0. -1.
         11   -1    0    0    0    0 -0.00000000000E+00 -0.00000000000E+00 -0.45593999997E+02  0.45594000000E+02  0.51100000000E-03 0.  1.
    9900012    2    1    2    0    0 -0.18572646564E+02 -0.51418155402E+01 -0.35802027652E+02  0.50528847876E+02  0.29999963603E+02 0.  0.
         12    1    1    2    0    0  0.18572646564E+02  0.51418155402E+01  0.35802027652E+02  0.40659152124E+02  0.00000000000E+00 0. -1.
         11    1    3    3    0    0 -0.31644782958E+01 -0.39011764461E+01  0.12275762801E+01  0.51710776761E+01  0.51100000000E-03 0. -1.
        -11    1    3    3    0    0 -0.13299781431E+02 -0.83403207089E+01 -0.13549276235E+02  0.20737117022E+02  0.51100000000E-03 0.  1.
        -12    1    3    3    0    0 -0.21083868372E+01  0.70996816148E+01 -0.23480327698E+02  0.24620653177E+02  0.00000000000E+00 0.  1.
</event>
<event>
 7    1  0.5642630E-013  0.5052887E+02  0.7816164E-02  0.1300439E+00
        -11   -1    0    0    0    0  0.00000000000E+00  0.00000000000E+00  0.45593999997E+02  0.45594000000E+02  0.51100000000E-03 0.  1.
         11   -1    0    0    0    0 -0.00000000000E+00 -0.00000000000E+00 -0.45593999997E+02  0.45594000000E+02  0.51100000000E-03 0. -1.
    9900012    2    1    2    0    0  0.66713983537E+01  0.60630068303E+01  0.39647160180E+02  0.50528869191E+02  0.30000028394E+02 0.  0.
         12    1    1    2    0    0 -0.66713983537E+01 -0.60630068303E+01 -0.39647160180E+02  0.40659130809E+02  0.00000000000E+00 0. -1.
         11    1    3    3    0    0  0.59096721284E+01  0.13064446787E+02  0.19683090085E+02  0.24352166846E+02  0.51100000000E-03 0. -1.
        -11    1    3    3    0    0  0.71628368194E+01 -0.72550441675E+01  0.96677401984E+01  0.14050163628E+02  0.51100000000E-03 0.  1.
        -12    1    3    3    0    0 -0.64011105942E+01  0.25360421078E+00  0.10296329896E+02  0.12126538717E+02  0.00000000000E+00 0.  1.
</event>
<event>
 7    1  0.5642630E-013  0.5052886E+02  0.7816164E-02  0.1300439E+00
        -11   -1    0    0    0    0  0.00000000000E+00  0.00000000000E+00  0.45593999997E+02  0.45594000000E+02  0.51100000000E-03 0.  1.
         11   -1    0    0    0    0 -0.00000000000E+00 -0.00000000000E+00 -0.45593999997E+02  0.45594000000E+02  0.51100000000E-03 0. -1.
    9900012    2    1    2    0    0  0.33350886501E+02 -0.93282702358E+01  0.21304156786E+02  0.50528863851E+02  0.30000012163E+02 0.  0.
         12    1    1    2    0    0 -0.33350886501E+02  0.93282702358E+01 -0.21304156786E+02  0.40659136149E+02  0.00000000000E+00 0. -1.
         11    1    3    3    0    0  0.37741425503E+01  0.49915669801E+01 -0.36457049219E+01  0.72423102354E+01  0.51100000000E-03 0. -1.
        -11    1    3    3    0    0  0.92237042022E+01 -0.10842256581E+01  0.12720418230E+01  0.93739188789E+01  0.51100000000E-03 0.  1.
        -12    1    3    3    0    0  0.20353039748E+02 -0.13235611558E+02  0.23677819885E+02  0.33912634737E+02  0.00000000000E+00 0.  1.
</event>
<event>
 7    1  0.5642630E-013  0.5052885E+02  0.7816164E-02  0.1300439E+00
        -11   -1    0    0    0    0  0.00000000000E+00  0.00000000000E+00  0.45593999997E+02  0.45594000000E+02  0.51100000000E-03 0.  1.
         11   -1    0    0    0    0 -0.00000000000E+00 -0.00000000000E+00 -0.45593999997E+02  0.45594000000E+02  0.51100000000E-03 0. -1.
    9900012    2    1    2    0    0  0.24532190831E+02  0.11541638302E+02  0.30300643260E+02  0.50528846251E+02  0.29999958664E+02 0.  0.
         12    1    1    2    0    0 -0.24532190831E+02 -0.11541638302E+02 -0.30300643260E+02  0.40659153749E+02  0.00000000000E+00 0. -1.
         11    1    3    3    0    0  0.65142311928E+01 -0.17392931645E+01  0.51625831486E+01  0.84919146117E+01  0.51100000000E-03 0. -1.
        -11    1    3    3    0    0  0.34526563837E+01 -0.70999567072E+01  0.25229510160E+01  0.82882750581E+01  0.51100000000E-03 0.  1.
        -12    1    3    3    0    0  0.14565303254E+02  0.20380888174E+02  0.22615109095E+02  0.33748656581E+02  0.00000000000E+00 0.  1.
</event>
<event>
 7    1  0.5642630E-013  0.5052886E+02  0.7816164E-02  0.1300439E+00
        -11   -1    0    0    0    0  0.00000000000E+00  0.00000000000E+00  0.45593999997E+02  0.45594000000E+02  0.51100000000E-03 0.  1.
         11   -1    0    0    0    0 -0.00000000000E+00 -0.00000000000E+00 -0.45593999997E+02  0.45594000000E+02  0.51100000000E-03 0. -1.
    9900012    2    1    2    0    0  0.19736658079E+02 -0.16128425024E+02  0.31678129009E+02  0.50528860518E+02  0.30000002032E+02 0.  0.
         12    1    1    2    0    0 -0.19736658079E+02  0.16128425024E+02 -0.31678129009E+02  0.40659139482E+02  0.00000000000E+00 0. -1.
         11    1    3    3    0    0  0.79212990659E+01  0.83097519679E+00  0.24831602685E+02  0.26077691440E+02  0.51100000000E-03 0. -1.
        -11    1    3    3    0    0 -0.71423400616E+00 -0.34023098541E+01  0.47295693164E+01  0.58698099406E+01  0.51100000000E-03 0.  1.
        -12    1    3    3    0    0  0.12529593019E+02 -0.13557090367E+02  0.21169570075E+01  0.18581359138E+02  0.00000000000E+00 0.  1.
</event>
<event>
 7    1  0.5642630E-013  0.5052887E+02  0.7816164E-02  0.1300439E+00
        -11   -1    0    0    0    0  0.00000000000E+00  0.00000000000E+00  0.45593999997E+02  0.45594000000E+02  0.51100000000E-03 0.  1.
         11   -1    0    0    0    0 -0.00000000000E+00 -0.00000000000E+00 -0.45593999997E+02  0.45594000000E+02  0.51100000000E-03 0. -1.
    9900012    2    1    2    0    0  0.69919232029E+00 -0.65856086539E+00  0.40647787636E+02  0.50528865577E+02  0.30000017409E+02 0.  0.
         12    1    1    2    0    0 -0.69919232029E+00  0.65856086539E+00 -0.40647787636E+02  0.40659134423E+02  0.00000000000E+00 0. -1.
         11    1    3    3    0    0  0.37664930445E+01  0.45784618296E+01  0.11419243680E+01  0.60376132787E+01  0.51100000000E-03 0. -1.
        -11    1    3    3    0    0  0.80753644239E+01 -0.41741339239E+01  0.14812733207E+02  0.17379642399E+02  0.51100000000E-03 0.  1.
        -12    1    3    3    0    0 -0.11142665148E+02 -0.10628887711E+01  0.24693130061E+02  0.27111609900E+02  0.00000000000E+00 0.  1.
</event>
<event>
 7    1  0.5642630E-013  0.5052885E+02  0.7816164E-02  0.1300439E+00
        -11   -1    0    0    0    0  0.00000000000E+00  0.00000000000E+00  0.45593999997E+02  0.45594000000E+02  0.51100000000E-03 0. -1.
         11   -1    0    0    0    0 -0.00000000000E+00 -0.00000000000E+00 -0.45593999997E+02  0.45594000000E+02  0.51100000000E-03 0.  1.
    9900012    2    1    2    0    0  0.95414879211E+01  0.11778773910E+02 -0.37727797928E+02  0.50528852898E+02  0.29999978868E+02 0.  0.
         12    1    1    2    0    0 -0.95414879211E+01 -0.11778773910E+02  0.37727797928E+02  0.40659147102E+02  0.00000000000E+00 0. -1.
         11    1    3    3    0    0  0.54840738776E+01  0.23266977543E+01 -0.10355631919E+01  0.60465676313E+01  0.51100000000E-03 0. -1.
        -11    1    3    3    0    0  0.42947633009E+01  0.11024718417E+02 -0.51566247908E+01  0.12906594728E+02  0.51100000000E-03 0.  1.
        -12    1    3    3    0    0 -0.23734925747E+00 -0.15726422608E+01 -0.31535609946E+02  0.31575690539E+02  0.00000000000E+00 0.  1.
</event>
<event>
 7    1  0.5642630E-013  0.5052888E+02  0.7816164E-02  0.1300439E+00
        -11   -1    0    0    0    0  0.00000000000E+00  0.00000000000E+00  0.45593999997E+02  0.45594000000E+02  0.51100000000E-03 0.  1.
         11   -1    0    0    0    0 -0.00000000000E+00 -0.00000000000E+00 -0.45593999997E+02  0.45594000000E+02  0.51100000000E-03 0. -1.
    9900012    2    1    2    0    0 -0.39802784570E+01  0.39827959156E+02 -0.71453013127E+01  0.50528877064E+02  0.30000052323E+02 0.  0.
         12    1    1    2    0    0  0.39802784570E+01 -0.39827959156E+02  0.71453013127E+01  0.40659122936E+02  0.00000000000E+00 0. -1.
         11    1    3    3    0    0  0.50426746827E+01  0.62847354518E+01 -0.78450634892E+01  0.11245954342E+02  0.51100000000E-03 0. -1.
        -11    1    3    3    0    0 -0.80174799966E+01  0.35792598197E+01  0.28340838038E+01  0.92262190317E+01  0.51100000000E-03 0.  1.
         12    1    3    3    0    0 -0.10054731431E+01  0.29963963884E+02 -0.21343216273E+01  0.30056703690E+02  0.00000000000E+00 0. -1.
</event>
<event>
 7    1  0.5642630E-013  0.5052886E+02  0.7816164E-02  0.1300439E+00
        -11   -1    0    0    0    0  0.00000000000E+00  0.00000000000E+00  0.45593999997E+02  0.45594000000E+02  0.51100000000E-03 0.  1.
         11   -1    0    0    0    0 -0.00000000000E+00 -0.00000000000E+00 -0.45593999997E+02  0.45594000000E+02  0.51100000000E-03 0. -1.
    9900012    2    1    2    0    0  0.18044905574E+02 -0.15845105030E+01  0.36401053027E+02  0.50528856475E+02  0.29999989743E+02 0.  0.
         12    1    1    2    0    0 -0.18044905574E+02  0.15845105030E+01 -0.36401053027E+02  0.40659143525E+02  0.00000000000E+00 0. -1.
         11    1    3    3    0    0  0.17158282678E+01  0.28702799738E+01  0.51399769860E+01  0.61320418663E+01  0.51100000000E-03 0. -1.
        -11    1    3    3    0    0 -0.68765730462E+01  0.18597954813E+01  0.45418923477E+01  0.84483656675E+01  0.51100000000E-03 0.  1.
        -12    1    3    3    0    0  0.23205650352E+02 -0.63145859581E+01  0.26719183693E+02  0.35948448942E+02  0.00000000000E+00 0.  1.
</event>
<event>
 7    1  0.5642630E-013  0.5052886E+02  0.7816164E-02  0.1300439E+00
        -11   -1    0    0    0    0  0.00000000000E+00  0.00000000000E+00  0.45593999997E+02  0.45594000000E+02  0.51100000000E-03 0. -1.
         11   -1    0    0    0    0 -0.00000000000E+00 -0.00000000000E+00 -0.45593999997E+02  0.45594000000E+02  0.51100000000E-03 0.  1.
    9900012    2    1    2    0    0 -0.28085392011E+02  0.46422596793E+01 -0.29031461529E+02  0.50528861079E+02  0.30000003734E+02 0.  0.
         12    1    1    2    0    0  0.28085392011E+02 -0.46422596793E+01  0.29031461529E+02  0.40659138921E+02  0.00000000000E+00 0. -1.
         11    1    3    3    0    0 -0.14421991944E+02  0.29244085833E+01 -0.10546350437E+02  0.18104461467E+02  0.51100000000E-03 0. -1.
        -11    1    3    3    0    0 -0.18272742755E+02  0.69522722141E+01 -0.12267178126E+02  0.23080530240E+02  0.51100000000E-03 0.  1.
         12    1    3    3    0    0  0.46093426886E+01 -0.52344211181E+01 -0.62179329664E+01  0.93438693718E+01  0.00000000000E+00 0. -1.
</event>
<event>
 7    1  0.5642630E-013  0.5052886E+02  0.7816164E-02  0.1300439E+00
        -11   -1    0    0    0    0  0.00000000000E+00  0.00000000000E+00  0.45593999997E+02  0.45594000000E+02  0.51100000000E-03 0.  1.
         11   -1    0    0    0    0 -0.00000000000E+00 -0.00000000000E+00 -0.45593999997E+02  0.45594000000E+02  0.51100000000E-03 0. -1.
    9900012    2    1    2    0    0 -0.13553292871E+01  0.34986083544E+02  0.20671297810E+02  0.50528861883E+02  0.30000006179E+02 0.  0.
         12    1    1    2    0    0  0.13553292871E+01 -0.34986083544E+02 -0.20671297810E+02  0.40659138117E+02  0.00000000000E+00 0. -1.
         11    1    3    3    0    0  0.18050876959E+00 -0.10500429939E+01 -0.34253780006E+01  0.35872536031E+01  0.51100000000E-03 0. -1.
        -11    1    3    3    0    0  0.61502087425E+01  0.58789243329E+01  0.19054487319E+01  0.87188046210E+01  0.51100000000E-03 0.  1.
         12    1    3    3    0    0 -0.76860467992E+01  0.30157202205E+02  0.22191227079E+02  0.38222803659E+02  0.00000000000E+00 0. -1.
</event>
<event>
 7    1  0.5642630E-013  0.5052885E+02  0.7816164E-02  0.1300439E+00
        -11   -1    0    0    0    0  0.00000000000E+00  0.00000000000E+00  0.45593999997E+02  0.45594000000E+02  0.51100000000E-03 0. -1.
         11   -1    0    0    0    0 -0.00000000000E+00 -0.00000000000E+00 -0.45593999997E+02  0.45594000000E+02  0.51100000000E-03 0.  1.
    9900012    2    1    2    0    0  0.15909940014E+02 -0.27195421261E+01 -0.37318150205E+02  0.50528850534E+02  0.29999971683E+02 0.  0.
         12    1    1    2    0    0 -0.15909940014E+02  0.27195421261E+01  0.37318150205E+02  0.40659149466E+02  0.00000000000E+00 0. -1.
         11    1    3    3    0    0  0.44994065783E+01  0.81163391771E+00  0.91610872120E+00  0.46629030253E+01  0.51100000000E-03 0. -1.
        -11    1    3    3    0    0  0.17864834135E+01  0.40377821861E+01  0.11992910761E+01  0.45753149963E+01  0.51100000000E-03 0.  1.
         12    1    3    3    0    0  0.96240500220E+01 -0.75689582300E+01 -0.39433550002E+02  0.41290632512E+02  0.00000000000E+00 0. -1.
</event>
<event>
 7    1  0.5642630E-013  0.5052885E+02  0.7816164E-02  0.1300439E+00
        -11   -1    0    0    0    0  0.00000000000E+00  0.00000000000E+00  0.45593999997E+02  0.45594000000E+02  0.51100000000E-03 0. -1.
         11   -1    0    0    0    0 -0.00000000000E+00 -0.00000000000E+00 -0.45593999997E+02  0.45594000000E+02  0.51100000000E-03 0.  1.
    9900012    2    1    2    0    0 -0.33865044502E+02 -0.21935863488E+02 -0.50142619665E+01  0.50528853807E+02  0.29999981631E+02 0.  0.
         12    1    1    2    0    0  0.33865044502E+02  0.21935863488E+02  0.50142619665E+01  0.40659146193E+02  0.00000000000E+00 0. -1.
         11    1    3    3    0    0 -0.42849383184E+01 -0.15765641481E+02  0.35187627891E+01  0.16712206303E+02  0.51100000000E-03 0. -1.
        -11    1    3    3    0    0 -0.49417697974E+01 -0.61161313205E+01 -0.37779624738E+01  0.87235974102E+01  0.51100000000E-03 0.  1.
         12    1    3    3    0    0 -0.24638336386E+02 -0.54090687136E-01 -0.47550622817E+01  0.25093050093E+02  0.00000000000E+00 0. -1.
</event>
<event>
 7    1  0.5642630E-013  0.5052885E+02  0.7816164E-02  0.1300439E+00
        -11   -1    0    0    0    0  0.00000000000E+00  0.00000000000E+00  0.45593999997E+02  0.45594000000E+02  0.51100000000E-03 0.  1.
         11   -1    0    0    0    0 -0.00000000000E+00 -0.00000000000E+00 -0.45593999997E+02  0.45594000000E+02  0.51100000000E-03 0. -1.
    9900012    2    1    2    0    0 -0.37295917315E+02 -0.10120807409E+02 -0.12639243350E+02  0.50528847729E+02  0.29999963156E+02 0.  0.
         12    1    1    2    0    0  0.37295917315E+02  0.10120807409E+02  0.12639243350E+02  0.40659152271E+02  0.00000000000E+00 0. -1.
         11    1    3    3    0    0 -0.12778892520E+02 -0.11710903915E+02  0.36024672434E+01  0.17703760477E+02  0.51100000000E-03 0. -1.
        -11    1    3    3    0    0 -0.15586671549E+01 -0.27994582048E+01 -0.69846834415E+01  0.76845437457E+01  0.51100000000E-03 0.  1.
        -12    1    3    3    0    0 -0.22958357639E+02  0.43895547106E+01 -0.92570271521E+01  0.25140543506E+02  0.00000000000E+00 0.  1.
</event>
<event>
 7    1  0.5642630E-013  0.5052887E+02  0.7816164E-02  0.1300439E+00
        -11   -1    0    0    0    0  0.00000000000E+00  0.00000000000E+00  0.45593999997E+02  0.45594000000E+02  0.51100000000E-03 0. -1.
         11   -1    0    0    0    0 -0.00000000000E+00 -0.00000000000E+00 -0.45593999997E+02  0.45594000000E+02  0.51100000000E-03 0.  1.
    9900012    2    1    2    0    0  0.36617068550E+02 -0.91223868642E+01  0.15137289474E+02  0.50528865923E+02  0.30000018459E+02 0.  0.
         12    1    1    2    0    0 -0.36617068550E+02  0.91223868642E+01 -0.15137289474E+02  0.40659134077E+02  0.00000000000E+00 0. -1.
         11    1    3    3    0    0  0.56524072182E+01 -0.92922781118E+00  0.99912183791E+01  0.11516840567E+02  0.51100000000E-03 0. -1.
        -11    1    3    3    0    0  0.24069817212E+02 -0.15489874927E+02  0.34428604094E+01  0.28829596146E+02  0.51100000000E-03 0.  1.
         12    1    3    3    0    0  0.68948441197E+01  0.72967158739E+01  0.17032106852E+01  0.10182429210E+02  0.00000000000E+00 0. -1.
</event>
<event>
 7    1  0.5642630E-013  0.5052889E+02  0.7816164E-02  0.1300439E+00
        -11   -1    0    0    0    0  0.00000000000E+00  0.00000000000E+00  0.45593999997E+02  0.45594000000E+02  0.51100000000E-03 0. -1.
         11   -1    0    0    0    0 -0.00000000000E+00 -0.00000000000E+00 -0.45593999997E+02  0.45594000000E+02  0.51100000000E-03 0.  1.
    9900012    2    1    2    0    0 -0.17608537954E+02 -0.32379357423E+02 -0.17166246072E+02  0.50528887857E+02  0.30000085130E+02 0.  0.
         12    1    1    2    0    0  0.17608537954E+02  0.32379357423E+02  0.17166246072E+02  0.40659112143E+02  0.00000000000E+00 0. -1.
         11    1    3    3    0    0 -0.10510346252E+02 -0.34619456683E+02 -0.98636256924E+01  0.37500203619E+02  0.51100000000E-03 0. -1.
        -11    1    3    3    0    0 -0.40929115406E+01 -0.26335731030E+01 -0.21308706105E+01  0.53130256905E+01  0.51100000000E-03 0.  1.
         12    1    3    3    0    0 -0.30052801616E+01  0.48736723629E+01 -0.51717497696E+01  0.77156585480E+01  0.00000000000E+00 0. -1.
</event>
<event>
 7    1  0.5642630E-013  0.5052886E+02  0.7816164E-02  0.1300439E+00
        -11   -1    0    0    0    0  0.00000000000E+00  0.00000000000E+00  0.45593999997E+02  0.45594000000E+02  0.51100000000E-03 0. -1.
         11   -1    0    0    0    0 -0.00000000000E+00 -0.00000000000E+00 -0.45593999997E+02  0.45594000000E+02  0.51100000000E-03 0.  1.
    9900012    2    1    2    0    0 -0.37000923777E+02 -0.15535350261E+02 -0.65383941201E+01  0.50528855079E+02  0.29999985498E+02 0.  0.
         12    1    1    2    0    0  0.37000923777E+02  0.15535350261E+02  0.65383941201E+01  0.40659144921E+02  0.00000000000E+00 0. -1.
         11    1    3    3    0    0  0.80728114155E+00 -0.14265261844E+01  0.21381889975E+01  0.26941663361E+01  0.51100000000E-03 0. -1.
        -11    1    3    3    0    0 -0.17065375439E+02 -0.46202121943E+01  0.81717027327E+01  0.19476912625E+02  0.51100000000E-03 0.  1.
        -12    1    3    3    0    0 -0.20742829479E+02 -0.94886118822E+01 -0.16848285850E+02  0.28357776118E+02  0.00000000000E+00 0.  1.
</event>
<event>
 7    1  0.5642630E-013  0.5052885E+02  0.7816164E-02  0.1300439E+00
        -11   -1    0    0    0    0  0.00000000000E+00  0.00000000000E+00  0.45593999997E+02  0.45594000000E+02  0.51100000000E-03 0. -1.
         11   -1    0    0    0    0 -0.00000000000E+00 -0.00000000000E+00 -0.45593999997E+02  0.45594000000E+02  0.51100000000E-03 0.  1.
    9900012    2    1    2    0    0  0.38424654593E+02 -0.13244825876E+02 -0.11344776015E+01  0.50528849339E+02  0.29999968051E+02 0.  0.
         12    1    1    2    0    0 -0.38424654593E+02  0.13244825876E+02  0.11344776015E+01  0.40659150661E+02  0.00000000000E+00 0. -1.
         11    1    3    3    0    0  0.66140049597E+00 -0.53916462120E+01  0.10098442735E+01  0.55251321440E+01  0.51100000000E-03 0. -1.
        -11    1    3    3    0    0  0.26543149865E+02 -0.13360047221E+02  0.56858448631E+01  0.30254892143E+02  0.51100000000E-03 0.  1.
         12    1    3    3    0    0  0.11220104232E+02  0.55068675579E+01 -0.78301667380E+01  0.14748825052E+02  0.00000000000E+00 0. -1.
</event>
<event>
 7    1  0.5642630E-013  0.5052886E+02  0.7816164E-02  0.1300439E+00
        -11   -1    0    0    0    0  0.00000000000E+00  0.00000000000E+00  0.45593999997E+02  0.45594000000E+02  0.51100000000E-03 0. -1.
         11   -1    0    0    0    0 -0.00000000000E+00 -0.00000000000E+00 -0.45593999997E+02  0.45594000000E+02  0.51100000000E-03 0.  1.
    9900012    2    1    2    0    0  0.11324731352E+02 -0.37507294681E+02 -0.10868268538E+02  0.50528856434E+02  0.29999989618E+02 0.  0.
         12    1    1    2    0    0 -0.11324731352E+02  0.37507294681E+02  0.10868268538E+02  0.40659143566E+02  0.00000000000E+00 0. -1.
         11    1    3    3    0    0  0.93596301736E+01 -0.19965151577E+02  0.59439387162E+01  0.22837258202E+02  0.51100000000E-03 0. -1.
        -11    1    3    3    0    0 -0.27790452819E+01 -0.11601497231E+02 -0.36222481450E+01  0.12467498248E+02  0.51100000000E-03 0.  1.
        -12    1    3    3    0    0  0.47441464605E+01 -0.59406458730E+01 -0.13189959109E+02  0.15224099984E+02  0.00000000000E+00 0.  1.
</event>
<event>
 7    1  0.5642630E-013  0.5052888E+02  0.7816164E-02  0.1300439E+00
        -11   -1    0    0    0    0  0.00000000000E+00  0.00000000000E+00  0.45593999997E+02  0.45594000000E+02  0.51100000000E-03 0.  1.
         11   -1    0    0    0    0 -0.00000000000E+00 -0.00000000000E+00 -0.45593999997E+02  0.45594000000E+02  0.51100000000E-03 0. -1.
    9900012    2    1    2    0    0 -0.81805563007E+01 -0.32620972033E+02  0.22849825680E+02  0.50528882309E+02  0.30000068267E+02 0.  0.
         12    1    1    2    0    0  0.81805563007E+01  0.32620972033E+02 -0.22849825680E+02  0.40659117691E+02  0.00000000000E+00 0. -1.
         11    1    3    3    0    0 -0.57270949459E+01 -0.11944585949E+02  0.22219406378E+02  0.25868412593E+02  0.51100000000E-03 0. -1.
        -11    1    3    3    0    0  0.28689052205E+01 -0.11276766787E+02  0.54296395253E+01  0.12840446720E+02  0.51100000000E-03 0.  1.
         12    1    3    3    0    0 -0.53223665752E+01 -0.93996192968E+01 -0.47992202231E+01  0.11820022996E+02  0.00000000000E+00 0. -1.
</event>
<event>
 7    1  0.5642630E-013  0.5052886E+02  0.7816164E-02  0.1300439E+00
        -11   -1    0    0    0    0  0.00000000000E+00  0.00000000000E+00  0.45593999997E+02  0.45594000000E+02  0.51100000000E-03 0.  1.
         11   -1    0    0    0    0 -0.00000000000E+00 -0.00000000000E+00 -0.45593999997E+02  0.45594000000E+02  0.51100000000E-03 0. -1.
    9900012    2    1    2    0    0  0.19323917094E+02 -0.74385495340E+01  0.34991711110E+02  0.50528860346E+02  0.30000001507E+02 0.  0.
         12    1    1    2    0    0 -0.19323917094E+02  0.74385495340E+01 -0.34991711110E+02  0.40659139654E+02  0.00000000000E+00 0. -1.
         11    1    3    3    0    0  0.15250476568E+02 -0.10006251646E+01  0.12606856355E+02  0.19811893239E+02  0.51100000000E-03 0. -1.
        -11    1    3    3    0    0  0.10779114896E+02 -0.87994350964E+01  0.14353957101E+02  0.19991384661E+02  0.51100000000E-03 0.  1.
         12    1    3    3    0    0 -0.67056743702E+01  0.23615107270E+01  0.80308976539E+01  0.10725582446E+02  0.00000000000E+00 0. -1.
</event>
<event>
 7    1  0.5642630E-013  0.5052888E+02  0.7816164E-02  0.1300439E+00
        -11   -1    0    0    0    0  0.00000000000E+00  0.00000000000E+00  0.45593999997E+02  0.45594000000E+02  0.51100000000E-03 0.  1.
         11   -1    0    0    0    0 -0.00000000000E+00 -0.00000000000E+00 -0.45593999997E+02  0.45594000000E+02  0.51100000000E-03 0. -1.
    9900012    2    1    2    0    0  0.24195952353E+02 -0.56858186095E+01  0.32177504197E+02  0.50528875318E+02  0.30000047018E+02 0.  0.
         12    1    1    2    0    0 -0.24195952353E+02  0.56858186095E+01 -0.32177504197E+02  0.40659124682E+02  0.00000000000E+00 0. -1.
         11    1    3    3    0    0  0.11459940475E+01  0.22566696819E+01 -0.35272354488E+01  0.43413420255E+01  0.51100000000E-03 0. -1.
        -11    1    3    3    0    0  0.77839011997E+01  0.37180876279E+01  0.50055000908E+01  0.99733808167E+01  0.51100000000E-03 0.  1.
        -12    1    3    3    0    0  0.15266057106E+02 -0.11660575919E+02  0.30699239555E+02  0.36214152476E+02  0.00000000000E+00 0.  1.
</event>
<event>
 7    1  0.5642630E-013  0.5052886E+02  0.7816164E-02  0.1300439E+00
        -11   -1    0    0    0    0  0.00000000000E+00  0.00000000000E+00  0.45593999997E+02  0.45594000000E+02  0.51100000000E-03 0.  1.
         11   -1    0    0    0    0 -0.00000000000E+00 -0.00000000000E+00 -0.45593999997E+02  0.45594000000E+02  0.51100000000E-03 0. -1.
    9900012    2    1    2    0    0  0.26600299951E+02 -0.86170817059E+01 -0.29518400505E+02  0.50528855604E+02  0.29999987095E+02 0.  0.
         12    1    1    2    0    0 -0.26600299951E+02  0.86170817059E+01  0.29518400505E+02  0.40659144396E+02  0.00000000000E+00 0. -1.
         11    1    3    3    0    0  0.19342144435E+02 -0.39408917907E+01 -0.28849534207E+02  0.34956327091E+02  0.51100000000E-03 0. -1.
        -11    1    3    3    0    0  0.82786807884E+01  0.36557849696E+00 -0.42418990190E+01  0.93093453466E+01  0.51100000000E-03 0.  1.
         12    1    3    3    0    0 -0.10205252731E+01 -0.50417684122E+01  0.35730327210E+01  0.62631831667E+01  0.00000000000E+00 0. -1.
</event>
<event>
 7    1  0.5642630E-013  0.5052885E+02  0.7816164E-02  0.1300439E+00
        -11   -1    0    0    0    0  0.00000000000E+00  0.00000000000E+00  0.45593999997E+02  0.45594000000E+02  0.51100000000E-03 0.  1.
         11   -1    0    0    0    0 -0.00000000000E+00 -0.00000000000E+00 -0.45593999997E+02  0.45594000000E+02  0.51100000000E-03 0. -1.
    9900012    2    1    2    0    0 -0.34171806345E+02  0.11664151798E+02  0.18692279312E+02  0.50528854757E+02  0.29999984518E+02 0.  0.
         12    1    1    2    0    0  0.34171806345E+02 -0.11664151798E+02 -0.18692279312E+02  0.40659145243E+02  0.00000000000E+00 0. -1.
         11    1    3    3    0    0 -0.84382116348E+01  0.10761474111E+02  0.49321447655E+01  0.14537496101E+02  0.51100000000E-03 0. -1.
        -11    1    3    3    0    0 -0.17398711302E+02  0.77011129224E+01  0.16168856968E+02  0.24969065484E+02  0.51100000000E-03 0.  1.
        -12    1    3    3    0    0 -0.83348834076E+01 -0.67984352348E+01 -0.24087224217E+01  0.11022293172E+02  0.00000000000E+00 0.  1.
</event>
<event>
 7    1  0.5642630E-013  0.5052883E+02  0.7816164E-02  0.1300439E+00
        -11   -1    0    0    0    0  0.00000000000E+00  0.00000000000E+00  0.45593999997E+02  0.45594000000E+02  0.51100000000E-03 0. -1.
         11   -1    0    0    0    0 -0.00000000000E+00 -0.00000000000E+00 -0.45593999997E+02  0.45594000000E+02  0.51100000000E-03 0.  1.
    9900012    2    1    2    0    0 -0.49594911871E+00  0.25952716084E+02 -0.31295026895E+02  0.50528829496E+02  0.29999907737E+02 0.  0.
         12    1    1    2    0    0  0.49594911871E+00 -0.25952716084E+02  0.31295026895E+02  0.40659170504E+02  0.00000000000E+00 0. -1.
         11    1    3    3    0    0  0.12842667767E+02  0.12316877974E+02 -0.13777695672E+02  0.22504766089E+02  0.51100000000E-03 0. -1.
        -11    1    3    3    0    0 -0.21581705391E+01  0.54674074783E+00  0.12535575881E+01  0.25550014499E+01  0.51100000000E-03 0.  1.
        -12    1    3    3    0    0 -0.11180446347E+02  0.13089097362E+02 -0.18770888811E+02  0.25469061958E+02  0.00000000000E+00 0.  1.
</event>
<event>
 7    1  0.5642630E-013  0.5052886E+02  0.7816164E-02  0.1300439E+00
        -11   -1    0    0    0    0  0.00000000000E+00  0.00000000000E+00  0.45593999997E+02  0.45594000000E+02  0.51100000000E-03 0.  1.
         11   -1    0    0    0    0 -0.00000000000E+00 -0.00000000000E+00 -0.45593999997E+02  0.45594000000E+02  0.51100000000E-03 0. -1.
    9900012    2    1    2    0    0  0.32266383894E+01  0.36463852729E+02  0.17695812545E+02  0.50528861633E+02  0.30000005418E+02 0.  0.
         12    1    1    2    0    0 -0.32266383894E+01 -0.36463852729E+02 -0.17695812545E+02  0.40659138367E+02  0.00000000000E+00 0. -1.
         11    1    3    3    0    0  0.10696115727E+00 -0.15083674330E+01  0.23607834028E+01  0.28035533770E+01  0.51100000000E-03 0. -1.
        -11    1    3    3    0    0  0.16530980166E+01  0.30446305328E+01 -0.58861341008E+01  0.68300134002E+01  0.51100000000E-03 0.  1.
        -12    1    3    3    0    0  0.14665792155E+01  0.34927589629E+02  0.21221163243E+02  0.40895294855E+02  0.00000000000E+00 0.  1.
</event>
<event>
 7    1  0.5642630E-013  0.5052887E+02  0.7816164E-02  0.1300439E+00
        -11   -1    0    0    0    0  0.00000000000E+00  0.00000000000E+00  0.45593999997E+02  0.45594000000E+02  0.51100000000E-03 0.  1.
         11   -1    0    0    0    0 -0.00000000000E+00 -0.00000000000E+00 -0.45593999997E+02  0.45594000000E+02  0.51100000000E-03 0. -1.
    9900012    2    1    2    0    0 -0.22408149457E+02 -0.45490307092E+01  0.33620622138E+02  0.50528867257E+02  0.30000022515E+02 0.  0.
         12    1    1    2    0    0  0.22408149457E+02  0.45490307092E+01 -0.33620622138E+02  0.40659132743E+02  0.00000000000E+00 0. -1.
         11    1    3    3    0    0 -0.54576799035E+01  0.51976152463E+01  0.71805530137E+01  0.10409698171E+02  0.51100000000E-03 0. -1.
        -11    1    3    3    0    0  0.38887411699E+01  0.34412590893E+01  0.70055231122E+01  0.87202021962E+01  0.51100000000E-03 0.  1.
        -12    1    3    3    0    0 -0.20839210723E+02 -0.13187905045E+02  0.19434546012E+02  0.31398966889E+02  0.00000000000E+00 0.  1.
</event>
<event>
 7    1  0.5642630E-013  0.5052890E+02  0.7816164E-02  0.1300439E+00
        -11   -1    0    0    0    0  0.00000000000E+00  0.00000000000E+00  0.45593999997E+02  0.45594000000E+02  0.51100000000E-03 0. -1.
         11   -1    0    0    0    0 -0.00000000000E+00 -0.00000000000E+00 -0.45593999997E+02  0.45594000000E+02  0.51100000000E-03 0.  1.
    9900012    2    1    2    0    0  0.17146521506E+02 -0.64345330879E+01 -0.36300911722E+02  0.50528897604E+02  0.30000114758E+02 0.  0.
         12    1    1    2    0    0 -0.17146521506E+02  0.64345330879E+01  0.36300911722E+02  0.40659102396E+02  0.00000000000E+00 0. -1.
         11    1    3    3    0    0  0.28854670947E+00  0.38779545942E+01 -0.23669516582E+02  0.23986825687E+02  0.51100000000E-03 0.  1.
        -11    1    3    3    0    0  0.10733234967E+02 -0.57392116305E+01 -0.14237981253E+02  0.18731283817E+02  0.51100000000E-03 0. -1.
         12    1    3    3    0    0  0.61247398291E+01 -0.45732760515E+01  0.16065861132E+01  0.78107881008E+01  0.00000000000E+00 0. -1.
</event>
<event>
 7    1  0.5642630E-013  0.5052887E+02  0.7816164E-02  0.1300439E+00
        -11   -1    0    0    0    0  0.00000000000E+00  0.00000000000E+00  0.45593999997E+02  0.45594000000E+02  0.51100000000E-03 0.  1.
         11   -1    0    0    0    0 -0.00000000000E+00 -0.00000000000E+00 -0.45593999997E+02  0.45594000000E+02  0.51100000000E-03 0. -1.
    9900012    2    1    2    0    0 -0.33808991733E+02 -0.22347295955E+02 -0.32734502952E+01  0.50528867750E+02  0.30000024012E+02 0.  0.
         12    1    1    2    0    0  0.33808991733E+02  0.22347295955E+02  0.32734502952E+01  0.40659132250E+02  0.00000000000E+00 0. -1.
         11    1    3    3    0    0  0.29313635689E+01 -0.10542733831E+01 -0.33869432367E+01  0.46017137556E+01  0.51100000000E-03 0. -1.
        -11    1    3    3    0    0  0.71442850776E+00 -0.26843958783E+01 -0.28750288407E+01  0.39977719320E+01  0.51100000000E-03 0.  1.
        -12    1    3    3    0    0 -0.37454783810E+02 -0.18608626694E+02  0.29885217822E+01  0.41929382062E+02  0.00000000000E+00 0.  1.
</event>
<event>
 7    1  0.5642630E-013  0.5052887E+02  0.7816164E-02  0.1300439E+00
        -11   -1    0    0    0    0  0.00000000000E+00  0.00000000000E+00  0.45593999997E+02  0.45594000000E+02  0.51100000000E-03 0.  1.
         11   -1    0    0    0    0 -0.00000000000E+00 -0.00000000000E+00 -0.45593999997E+02  0.45594000000E+02  0.51100000000E-03 0. -1.
    9900012    2    1    2    0    0 -0.41847577535E+01  0.27494761137E+02  0.29659581210E+02  0.50528870091E+02  0.30000031129E+02 0.  0.
         12    1    1    2    0    0  0.41847577535E+01 -0.27494761137E+02 -0.29659581210E+02  0.40659129909E+02  0.00000000000E+00 0. -1.
         11    1    3    3    0    0 -0.66461733575E+00  0.95014290465E+01  0.25117569548E+02  0.26862821341E+02  0.51100000000E-03 0. -1.
        -11    1    3    3    0    0 -0.13781180379E+01  0.39961734027E+01  0.80371261016E+01  0.90809695201E+01  0.51100000000E-03 0.  1.
         12    1    3    3    0    0 -0.21420223798E+01  0.13997158687E+02 -0.34951144403E+01  0.14585079230E+02  0.00000000000E+00 0. -1.
</event>
<event>
 7    1  0.5642630E-013  0.5052886E+02  0.7816164E-02  0.1300439E+00
        -11   -1    0    0    0    0  0.00000000000E+00  0.00000000000E+00  0.45593999997E+02  0.45594000000E+02  0.51100000000E-03 0.  1.
         11   -1    0    0    0    0 -0.00000000000E+00 -0.00000000000E+00 -0.45593999997E+02  0.45594000000E+02  0.51100000000E-03 0. -1.
    9900012    2    1    2    0    0 -0.89834002863E+00  0.26004148456E+02  0.31243288630E+02  0.50528857902E+02  0.29999994079E+02 0.  0.
         12    1    1    2    0    0  0.89834002863E+00 -0.26004148456E+02 -0.31243288630E+02  0.40659142098E+02  0.00000000000E+00 0. -1.
         11    1    3    3    0    0 -0.12056147559E+01  0.42136467931E+01  0.31485410461E+01  0.53964467214E+01  0.51100000000E-03 0. -1.
        -11    1    3    3    0    0  0.64583819265E+01  0.24653595169E+02  0.28625828529E+02  0.38326864092E+02  0.51100000000E-03 0.  1.
         12    1    3    3    0    0 -0.61511071992E+01 -0.28630935066E+01 -0.53108094499E+00  0.68055470885E+01  0.00000000000E+00 0. -1.
</event>
<event>
 7    1  0.5642630E-013  0.5052897E+02  0.7816164E-02  0.1300438E+00
        -11   -1    0    0    0    0  0.00000000000E+00  0.00000000000E+00  0.45593999997E+02  0.45594000000E+02  0.51100000000E-03 0.  1.
         11   -1    0    0    0    0 -0.00000000000E+00 -0.00000000000E+00 -0.45593999997E+02  0.45594000000E+02  0.51100000000E-03 0. -1.
    9900012    2    1    2    0    0  0.11000405630E+00 -0.39856182372E+02  0.80392129661E+01  0.50528974935E+02  0.30000349809E+02 0.  0.
         12    1    1    2    0    0 -0.11000405630E+00  0.39856182372E+02 -0.80392129661E+01  0.40659025065E+02  0.00000000000E+00 0. -1.
         11    1    3    3    0    0 -0.38164877692E+01 -0.47136681533E+01  0.73773424366E+00  0.61097052652E+01  0.51100000000E-03 0. -1.
        -11    1    3    3    0    0  0.12002729366E+02 -0.17014736023E+02 -0.45372635059E+01  0.21310877845E+02  0.51100000000E-03 0.  1.
         12    1    3    3    0    0 -0.80762375409E+01 -0.18127778196E+02  0.11838742228E+02  0.23108391824E+02  0.00000000000E+00 0. -1.
</event>
<event>
 7    1  0.5642630E-013  0.5052887E+02  0.7816164E-02  0.1300439E+00
        -11   -1    0    0    0    0  0.00000000000E+00  0.00000000000E+00  0.45593999997E+02  0.45594000000E+02  0.51100000000E-03 0.  1.
         11   -1    0    0    0    0 -0.00000000000E+00 -0.00000000000E+00 -0.45593999997E+02  0.45594000000E+02  0.51100000000E-03 0. -1.
    9900012    2    1    2    0    0 -0.12015262695E+02  0.33967458070E+02  0.18841721895E+02  0.50528865364E+02  0.30000016760E+02 0.  0.
         12    1    1    2    0    0  0.12015262695E+02 -0.33967458070E+02 -0.18841721895E+02  0.40659134636E+02  0.00000000000E+00 0. -1.
         11    1    3    3    0    0 -0.24710262466E+01 -0.37844901032E+01  0.30460076342E+01  0.54503668520E+01  0.51100000000E-03 0. -1.
        -11    1    3    3    0    0 -0.93669221441E+00 -0.85763180741E+00 -0.14479953397E+01  0.19260361852E+01  0.51100000000E-03 0.  1.
        -12    1    3    3    0    0 -0.86075442342E+01  0.38609579981E+02  0.17243709601E+02  0.43152462327E+02  0.00000000000E+00 0.  1.
</event>
<event>
 7    1  0.5642630E-013  0.5052882E+02  0.7816164E-02  0.1300439E+00
        -11   -1    0    0    0    0  0.00000000000E+00  0.00000000000E+00  0.45593999997E+02  0.45594000000E+02  0.51100000000E-03 0.  1.
         11   -1    0    0    0    0 -0.00000000000E+00 -0.00000000000E+00 -0.45593999997E+02  0.45594000000E+02  0.51100000000E-03 0. -1.
    9900012    2    1    2    0    0  0.20938029321E+02  0.18466151632E+02  0.29559579845E+02  0.50528824055E+02  0.29999891196E+02 0.  0.
         12    1    1    2    0    0 -0.20938029321E+02 -0.18466151632E+02 -0.29559579845E+02  0.40659175945E+02  0.00000000000E+00 0. -1.
         11    1    3    3    0    0  0.18294010296E+02  0.25740502237E+02  0.19688949606E+02  0.37214231216E+02  0.51100000000E-03 0. -1.
        -11    1    3    3    0    0  0.41805957632E+00 -0.56656687795E+00  0.41855053611E+01  0.42443170505E+01  0.51100000000E-03 0.  1.
         12    1    3    3    0    0  0.22259594488E+01 -0.67077837271E+01  0.56851248781E+01  0.90702757884E+01  0.00000000000E+00 0. -1.
</event>
<event>
 7    1  0.5642630E-013  0.5052886E+02  0.7816164E-02  0.1300439E+00
        -11   -1    0    0    0    0  0.00000000000E+00  0.00000000000E+00  0.45593999997E+02  0.45594000000E+02  0.51100000000E-03 0.  1.
         11   -1    0    0    0    0 -0.00000000000E+00 -0.00000000000E+00 -0.45593999997E+02  0.45594000000E+02  0.51100000000E-03 0. -1.
    9900012    2    1    2    0    0  0.30408618800E+02  0.17909103010E+02  0.20192712843E+02  0.50528859331E+02  0.29999998423E+02 0.  0.
         12    1    1    2    0    0 -0.30408618800E+02 -0.17909103010E+02 -0.20192712843E+02  0.40659140669E+02  0.00000000000E+00 0. -1.
         11    1    3    3    0    0  0.13702901342E+02  0.12040200296E+02 -0.32205137753E+01  0.18523164892E+02  0.51100000000E-03 0. -1.
        -11    1    3    3    0    0  0.25060884177E+01  0.52269450894E+01  0.16768636429E+01  0.60343438800E+01  0.51100000000E-03 0.  1.
        -12    1    3    3    0    0  0.14199629040E+02  0.64195762471E+00  0.21736362976E+02  0.25971350560E+02  0.00000000000E+00 0.  1.
</event>
<event>
 7    1  0.5642630E-013  0.5052881E+02  0.7816164E-02  0.1300439E+00
        -11   -1    0    0    0    0  0.00000000000E+00  0.00000000000E+00  0.45593999997E+02  0.45594000000E+02  0.51100000000E-03 0.  1.
         11   -1    0    0    0    0 -0.00000000000E+00 -0.00000000000E+00 -0.45593999997E+02  0.45594000000E+02  0.51100000000E-03 0. -1.
    9900012    2    1    2    0    0 -0.21420640960E+02 -0.33027666150E+02 -0.10173434210E+02  0.50528814640E+02  0.29999862581E+02 0.  0.
         12    1    1    2    0    0  0.21420640960E+02  0.33027666150E+02  0.10173434210E+02  0.40659185360E+02  0.00000000000E+00 0. -1.
         11    1    3    3    0    0 -0.98547568809E+01 -0.13038055984E+02  0.59187166699E+00  0.16354126371E+02  0.51100000000E-03 0.  1.
        -11    1    3    3    0    0  0.45261191678E+01  0.19755408210E+01 -0.12362407340E+00  0.49400201851E+01  0.51100000000E-03 0. -1.
         12    1    3    3    0    0 -0.16092003247E+02 -0.21965150988E+02 -0.10641681804E+02  0.29234668085E+02  0.00000000000E+00 0. -1.
</event>
<event>
 7    1  0.5642630E-013  0.5052886E+02  0.7816164E-02  0.1300439E+00
        -11   -1    0    0    0    0  0.00000000000E+00  0.00000000000E+00  0.45593999997E+02  0.45594000000E+02  0.51100000000E-03 0.  1.
         11   -1    0    0    0    0 -0.00000000000E+00 -0.00000000000E+00 -0.45593999997E+02  0.45594000000E+02  0.51100000000E-03 0. -1.
    9900012    2    1    2    0    0 -0.11139939773E+02  0.39010024867E+02 -0.26991499650E+01  0.50528859468E+02  0.29999998839E+02 0.  0.
         12    1    1    2    0    0  0.11139939773E+02 -0.39010024867E+02  0.26991499650E+01  0.40659140532E+02  0.00000000000E+00 0. -1.
         11    1    3    3    0    0 -0.38021293906E+00 -0.23027701068E+01 -0.28557310326E+01  0.36881583528E+01  0.51100000000E-03 0. -1.
        -11    1    3    3    0    0 -0.53648636565E+01  0.11997535939E+01 -0.29655723190E+01  0.62462620966E+01  0.51100000000E-03 0.  1.
        -12    1    3    3    0    0 -0.53948631771E+01  0.40113041380E+02  0.31221533866E+01  0.40594439019E+02  0.00000000000E+00 0.  1.
</event>
<event>
 7    1  0.5642630E-013  0.5052885E+02  0.7816164E-02  0.1300439E+00
        -11   -1    0    0    0    0  0.00000000000E+00  0.00000000000E+00  0.45593999997E+02  0.45594000000E+02  0.51100000000E-03 0. -1.
         11   -1    0    0    0    0 -0.00000000000E+00 -0.00000000000E+00 -0.45593999997E+02  0.45594000000E+02  0.51100000000E-03 0.  1.
    9900012    2    1    2    0    0 -0.15930853261E+02  0.12692795187E+02 -0.35189026466E+02  0.50528847046E+02  0.29999961081E+02 0.  0.
         12    1    1    2    0    0  0.15930853261E+02 -0.12692795187E+02  0.35189026466E+02  0.40659152954E+02  0.00000000000E+00 0. -1.
         11    1    3    3    0    0 -0.29623610129E+01 -0.51888547382E+01 -0.18642886735E+02  0.19576951304E+02  0.51100000000E-03 0. -1.
        -11    1    3    3    0    0 -0.98427937713E+01  0.23213057823E+01 -0.47252218189E+01  0.11162292384E+02  0.51100000000E-03 0.  1.
        -12    1    3    3    0    0 -0.31256984772E+01  0.15560344143E+02 -0.11820917912E+02  0.19789603359E+02  0.00000000000E+00 0.  1.
</event>
<event>
 7    1  0.5642630E-013  0.5052884E+02  0.7816164E-02  0.1300439E+00
        -11   -1    0    0    0    0  0.00000000000E+00  0.00000000000E+00  0.45593999997E+02  0.45594000000E+02  0.51100000000E-03 0.  1.
         11   -1    0    0    0    0 -0.00000000000E+00 -0.00000000000E+00 -0.45593999997E+02  0.45594000000E+02  0.51100000000E-03 0. -1.
    9900012    2    1    2    0    0 -0.31486294421E+02  0.13022639335E+02  0.22185386615E+02  0.50528840504E+02  0.29999941197E+02 0.  0.
         12    1    1    2    0    0  0.31486294421E+02 -0.13022639335E+02 -0.22185386615E+02  0.40659159496E+02  0.00000000000E+00 0. -1.
         11    1    3    3    0    0 -0.18572550602E+02 -0.80403646354E-01  0.80718702974E+01  0.20250955310E+02  0.51100000000E-03 0. -1.
        -11    1    3    3    0    0 -0.14629101842E+02  0.12013095078E+01  0.89473663889E+01  0.17190379018E+02  0.51100000000E-03 0.  1.
        -12    1    3    3    0    0  0.17153580226E+01  0.11901733474E+02  0.51661499285E+01  0.13087506176E+02  0.00000000000E+00 0.  1.
</event>
<event>
 7    1  0.5642630E-013  0.5052886E+02  0.7816164E-02  0.1300439E+00
        -11   -1    0    0    0    0  0.00000000000E+00  0.00000000000E+00  0.45593999997E+02  0.45594000000E+02  0.51100000000E-03 0. -1.
         11   -1    0    0    0    0 -0.00000000000E+00 -0.00000000000E+00 -0.45593999997E+02  0.45594000000E+02  0.51100000000E-03 0.  1.
    9900012    2    1    2    0    0  0.23108878617E+02 -0.13564115451E+02 -0.30580382371E+02  0.50528864681E+02  0.30000014685E+02 0.  0.
         12    1    1    2    0    0 -0.23108878617E+02  0.13564115451E+02  0.30580382371E+02  0.40659135319E+02  0.00000000000E+00 0. -1.
         11    1    3    3    0    0  0.25846800072E+01 -0.95408936985E+01 -0.21985478037E+02  0.24105403297E+02  0.51100000000E-03 0. -1.
        -11    1    3    3    0    0  0.39159458017E+01 -0.66890485153E+01 -0.49969631558E+01  0.92221278783E+01  0.51100000000E-03 0.  1.
        -12    1    3    3    0    0  0.16608252808E+02  0.26658267628E+01 -0.35979411779E+01  0.17201333506E+02  0.00000000000E+00 0.  1.
</event>
<event>
 7    1  0.5642630E-013  0.5052889E+02  0.7816164E-02  0.1300439E+00
        -11   -1    0    0    0    0  0.00000000000E+00  0.00000000000E+00  0.45593999997E+02  0.45594000000E+02  0.51100000000E-03 0.  1.
         11   -1    0    0    0    0 -0.00000000000E+00 -0.00000000000E+00 -0.45593999997E+02  0.45594000000E+02  0.51100000000E-03 0. -1.
    9900012    2    1    2    0    0  0.15364624589E+02  0.13420431496E+02  0.35170782487E+02  0.50528885265E+02  0.30000077251E+02 0.  0.
         12    1    1    2    0    0 -0.15364624589E+02 -0.13420431496E+02 -0.35170782487E+02  0.40659114735E+02  0.00000000000E+00 0. -1.
         11    1    3    3    0    0 -0.97556996137E+00  0.21735843156E+01 -0.44609416430E+01  0.50572923714E+01  0.51100000000E-03 0. -1.
        -11    1    3    3    0    0 -0.83317141553E+00 -0.53923078179E+00  0.43323931913E+00  0.10828855029E+01  0.51100000000E-03 0.  1.
        -12    1    3    3    0    0  0.17173365966E+02  0.11786077962E+02  0.39198484811E+02  0.44388707390E+02  0.00000000000E+00 0.  1.
</event>
<event>
 7    1  0.5642630E-013  0.5052886E+02  0.7816164E-02  0.1300439E+00
        -11   -1    0    0    0    0  0.00000000000E+00  0.00000000000E+00  0.45593999997E+02  0.45594000000E+02  0.51100000000E-03 0.  1.
         11   -1    0    0    0    0 -0.00000000000E+00 -0.00000000000E+00 -0.45593999997E+02  0.45594000000E+02  0.51100000000E-03 0. -1.
    9900012    2    1    2    0    0  0.16753557686E+02 -0.27039334360E+02  0.25325056668E+02  0.50528858432E+02  0.29999995690E+02 0.  0.
         12    1    1    2    0    0 -0.16753557686E+02  0.27039334360E+02 -0.25325056668E+02  0.40659141568E+02  0.00000000000E+00 0. -1.
         11    1    3    3    0    0  0.64075585184E+01 -0.31415959289E+01  0.18177919313E+02  0.19528522267E+02  0.51100000000E-03 0. -1.
        -11    1    3    3    0    0 -0.94313689271E+00 -0.90898648835E+01  0.82987405586E+01  0.12344401400E+02  0.51100000000E-03 0.  1.
        -12    1    3    3    0    0  0.11289136061E+02 -0.14807873548E+02 -0.11516032030E+01  0.18655934765E+02  0.00000000000E+00 0.  1.
</event>
<event>
 7    1  0.5642630E-013  0.5052886E+02  0.7816164E-02  0.1300439E+00
        -11   -1    0    0    0    0  0.00000000000E+00  0.00000000000E+00  0.45593999997E+02  0.45594000000E+02  0.51100000000E-03 0.  1.
         11   -1    0    0    0    0 -0.00000000000E+00 -0.00000000000E+00 -0.45593999997E+02  0.45594000000E+02  0.51100000000E-03 0. -1.
    9900012    2    1    2    0    0 -0.75846538173E+00 -0.28028481490E+02  0.29444776368E+02  0.50528857120E+02  0.29999991703E+02 0.  0.
         12    1    1    2    0    0  0.75846538173E+00  0.28028481490E+02 -0.29444776368E+02  0.40659142880E+02  0.00000000000E+00 0. -1.
         11    1    3    3    0    0 -0.18170492144E+01 -0.45992228830E+01  0.20070920254E+02  0.20671147986E+02  0.51100000000E-03 0. -1.
        -11    1    3    3    0    0  0.25340201196E+01 -0.85087006635E+01  0.11697855415E+02  0.14685335084E+02  0.51100000000E-03 0.  1.
        -12    1    3    3    0    0 -0.14754362870E+01 -0.14920557943E+02 -0.23239993013E+01  0.15172374050E+02  0.00000000000E+00 0.  1.
</event>
<event>
 7    1  0.5642630E-013  0.5052889E+02  0.7816164E-02  0.1300439E+00
        -11   -1    0    0    0    0  0.00000000000E+00  0.00000000000E+00  0.45593999997E+02  0.45594000000E+02  0.51100000000E-03 0.  1.
         11   -1    0    0    0    0 -0.00000000000E+00 -0.00000000000E+00 -0.45593999997E+02  0.45594000000E+02  0.51100000000E-03 0. -1.
    9900012    2    1    2    0    0  0.23044994142E+01  0.18824035688E+02  0.35965376192E+02  0.50528888822E+02  0.30000088065E+02 0.  0.
         12    1    1    2    0    0 -0.23044994142E+01 -0.18824035688E+02 -0.35965376192E+02  0.40659111178E+02  0.00000000000E+00 0. -1.
         11    1    3    3    0    0  0.63704167782E+01 -0.27016902051E+01  0.17482806987E+02  0.18802390282E+02  0.51100000000E-03 0. -1.
        -11    1    3    3    0    0 -0.31678554141E+01 -0.20535064646E+00 -0.15216985462E-01  0.31745406960E+01  0.51100000000E-03 0.  1.
        -12    1    3    3    0    0 -0.89806194988E+00  0.21731076540E+02  0.18497786190E+02  0.28551957845E+02  0.00000000000E+00 0.  1.
</event>
<event>
 7    1  0.5642630E-013  0.5052886E+02  0.7816164E-02  0.1300439E+00
        -11   -1    0    0    0    0  0.00000000000E+00  0.00000000000E+00  0.45593999997E+02  0.45594000000E+02  0.51100000000E-03 0. -1.
         11   -1    0    0    0    0 -0.00000000000E+00 -0.00000000000E+00 -0.45593999997E+02  0.45594000000E+02  0.51100000000E-03 0.  1.
    9900012    2    1    2    0    0 -0.33741946437E+02  0.20794632534E+02 -0.90680919942E+01  0.50528856083E+02  0.29999988551E+02 0.  0.
         12    1    1    2    0    0  0.33741946437E+02 -0.20794632534E+02  0.90680919942E+01  0.40659143917E+02  0.00000000000E+00 0. -1.
         11    1    3    3    0    0 -0.14618091411E+02 -0.47448235781E-01 -0.10216877018E+02  0.17834669162E+02  0.51100000000E-03 0. -1.
        -11    1    3    3    0    0 -0.76111755812E+01  0.78884350329E+00 -0.45189442655E+01  0.88866824708E+01  0.51100000000E-03 0.  1.
        -12    1    3    3    0    0 -0.11512679445E+02  0.20053237267E+02  0.56677292898E+01  0.23807504451E+02  0.00000000000E+00 0.  1.
</event>
<event>
 7    1  0.5642630E-013  0.5052893E+02  0.7816164E-02  0.1300439E+00
        -11   -1    0    0    0    0  0.00000000000E+00  0.00000000000E+00  0.45593999997E+02  0.45594000000E+02  0.51100000000E-03 0.  1.
         11   -1    0    0    0    0 -0.00000000000E+00 -0.00000000000E+00 -0.45593999997E+02  0.45594000000E+02  0.51100000000E-03 0. -1.
    9900012    2    1    2    0    0 -0.28700001149E+01 -0.18275544459E+02  0.36206737668E+02  0.50528926247E+02  0.30000201819E+02 0.  0.
         12    1    1    2    0    0  0.28700001149E+01  0.18275544459E+02 -0.36206737668E+02  0.40659073753E+02  0.00000000000E+00 0. -1.
         11    1    3    3    0    0 -0.94317656261E+01 -0.10188644393E+02  0.20977771159E+02  0.25156183344E+02  0.51100000000E-03 0. -1.
        -11    1    3    3    0    0 -0.48287059714E+00 -0.10861820654E+02  0.13961949258E+02  0.17695997832E+02  0.51100000000E-03 0.  1.
         12    1    3    3    0    0  0.70446361083E+01  0.27749205875E+01  0.12670172509E+01  0.76767450706E+01  0.00000000000E+00 0. -1.
</event>
<event>
 7    1  0.5642630E-013  0.5052888E+02  0.7816164E-02  0.1300439E+00
        -11   -1    0    0    0    0  0.00000000000E+00  0.00000000000E+00  0.45593999997E+02  0.45594000000E+02  0.51100000000E-03 0.  1.
         11   -1    0    0    0    0 -0.00000000000E+00 -0.00000000000E+00 -0.45593999997E+02  0.45594000000E+02  0.51100000000E-03 0. -1.
    9900012    2    1    2    0    0 -0.34884885874E+01 -0.13678575400E+02  0.38129921219E+02  0.50528882083E+02  0.30000067579E+02 0.  0.
         12    1    1    2    0    0  0.34884885874E+01  0.13678575400E+02 -0.38129921219E+02  0.40659117917E+02  0.00000000000E+00 0. -1.
         11    1    3    3    0    0  0.38326288131E+01 -0.61804812970E+01  0.10842332231E+02  0.13055403523E+02  0.51100000000E-03 0. -1.
        -11    1    3    3    0    0  0.68437294483E+01  0.76883531880E+00  0.16401470145E+02  0.17788647045E+02  0.51100000000E-03 0.  1.
         12    1    3    3    0    0 -0.14164846849E+02 -0.82669294214E+01  0.10886118843E+02  0.19684831515E+02  0.00000000000E+00 0. -1.
</event>
<event>
 7    1  0.5642630E-013  0.5052886E+02  0.7816164E-02  0.1300439E+00
        -11   -1    0    0    0    0  0.00000000000E+00  0.00000000000E+00  0.45593999997E+02  0.45594000000E+02  0.51100000000E-03 0.  1.
         11   -1    0    0    0    0 -0.00000000000E+00 -0.00000000000E+00 -0.45593999997E+02  0.45594000000E+02  0.51100000000E-03 0. -1.
    9900012    2    1    2    0    0 -0.25820668276E+02 -0.19544663311E+02  0.24585864519E+02  0.50528861934E+02  0.30000006334E+02 0.  0.
         12    1    1    2    0    0  0.25820668276E+02  0.19544663311E+02 -0.24585864519E+02  0.40659138066E+02  0.00000000000E+00 0. -1.
         11    1    3    3    0    0 -0.15135968155E+01  0.89543097878E+00 -0.97261992822E+00  0.20096670728E+01  0.51100000000E-03 0. -1.
        -11    1    3    3    0    0 -0.24727411016E+01 -0.17142199156E+02  0.42518104947E+01  0.17833881608E+02  0.51100000000E-03 0.  1.
        -12    1    3    3    0    0 -0.21834330359E+02 -0.32978951336E+01  0.21306673953E+02  0.30685313253E+02  0.00000000000E+00 0.  1.
</event>
<event>
 7    1  0.5642630E-013  0.5052886E+02  0.7816164E-02  0.1300439E+00
        -11   -1    0    0    0    0  0.00000000000E+00  0.00000000000E+00  0.45593999997E+02  0.45594000000E+02  0.51100000000E-03 0.  1.
         11   -1    0    0    0    0 -0.00000000000E+00 -0.00000000000E+00 -0.45593999997E+02  0.45594000000E+02  0.51100000000E-03 0. -1.
    9900012    2    1    2    0    0 -0.27183030791E+02 -0.87518526526E+01  0.28942246486E+02  0.50528859337E+02  0.29999998440E+02 0.  0.
         12    1    1    2    0    0  0.27183030791E+02  0.87518526526E+01 -0.28942246486E+02  0.40659140663E+02  0.00000000000E+00 0. -1.
         11    1    3    3    0    0  0.22650109309E+01  0.13835132202E+01  0.92731116281E+00  0.28114568468E+01  0.51100000000E-03 0. -1.
        -11    1    3    3    0    0 -0.14642605772E+02 -0.16093920859E+02  0.10970291191E+02  0.24367344573E+02  0.51100000000E-03 0.  1.
        -12    1    3    3    0    0 -0.14805435949E+02  0.59585549865E+01  0.17044644131E+02  0.23350057917E+02  0.00000000000E+00 0.  1.
</event>
<event>
 7    1  0.5642630E-013  0.5052886E+02  0.7816164E-02  0.1300439E+00
        -11   -1    0    0    0    0  0.00000000000E+00  0.00000000000E+00  0.45593999997E+02  0.45594000000E+02  0.51100000000E-03 0.  1.
         11   -1    0    0    0    0 -0.00000000000E+00 -0.00000000000E+00 -0.45593999997E+02  0.45594000000E+02  0.51100000000E-03 0. -1.
    9900012    2    1    2    0    0 -0.12001778450E+02 -0.36227211721E+02  0.14025395538E+02  0.50528864803E+02  0.30000015054E+02 0.  0.
         12    1    1    2    0    0  0.12001778450E+02  0.36227211721E+02 -0.14025395538E+02  0.40659135197E+02  0.00000000000E+00 0. -1.
         11    1    3    3    0    0 -0.49409280360E+01 -0.25709151768E+02  0.89613731503E+01  0.27670913673E+02  0.51100000000E-03 0.  1.
        -11    1    3    3    0    0  0.17720297846E+01 -0.12359638767E+02  0.58742618958E+01  0.13798830135E+02  0.51100000000E-03 0. -1.
         12    1    3    3    0    0 -0.88328801983E+01  0.18415788151E+01 -0.81023950837E+00  0.90591209943E+01  0.00000000000E+00 0. -1.
</event>
<event>
 7    1  0.5642630E-013  0.5052886E+02  0.7816164E-02  0.1300439E+00
        -11   -1    0    0    0    0  0.00000000000E+00  0.00000000000E+00  0.45593999997E+02  0.45594000000E+02  0.51100000000E-03 0.  1.
         11   -1    0    0    0    0 -0.00000000000E+00 -0.00000000000E+00 -0.45593999997E+02  0.45594000000E+02  0.51100000000E-03 0. -1.
    9900012    2    1    2    0    0  0.76794791056E+01  0.33260084338E+02  0.22089765799E+02  0.50528863726E+02  0.30000011782E+02 0.  0.
         12    1    1    2    0    0 -0.76794791056E+01 -0.33260084338E+02 -0.22089765799E+02  0.40659136274E+02  0.00000000000E+00 0. -1.
         11    1    3    3    0    0  0.72629901390E+01  0.21508868109E+01  0.27338639163E+01  0.80530337145E+01  0.51100000000E-03 0. -1.
        -11    1    3    3    0    0  0.21066328167E+01  0.20447917366E+02  0.28054997229E+00  0.20558062530E+02  0.51100000000E-03 0.  1.
        -12    1    3    3    0    0 -0.16901438501E+01  0.10661280161E+02  0.19075351910E+02  0.21917767482E+02  0.00000000000E+00 0.  1.
</event>
<event>
 7    1  0.5642630E-013  0.5052882E+02  0.7816164E-02  0.1300439E+00
        -11   -1    0    0    0    0  0.00000000000E+00  0.00000000000E+00  0.45593999997E+02  0.45594000000E+02  0.51100000000E-03 0. -1.
         11   -1    0    0    0    0 -0.00000000000E+00 -0.00000000000E+00 -0.45593999997E+02  0.45594000000E+02  0.51100000000E-03 0.  1.
    9900012    2    1    2    0    0  0.26658103677E+02  0.75612165315E+01 -0.29754702586E+02  0.50528821294E+02  0.29999882804E+02 0.  0.
         12    1    1    2    0    0 -0.26658103677E+02 -0.75612165315E+01  0.29754702586E+02  0.40659178706E+02  0.00000000000E+00 0. -1.
         11    1    3    3    0    0 -0.19351738762E+01  0.42230821030E+01 -0.13717202691E+00  0.46473795633E+01  0.51100000000E-03 0. -1.
        -11    1    3    3    0    0  0.27620214616E+02  0.60120735769E+01 -0.17083070908E+02  0.33028057709E+02  0.51100000000E-03 0.  1.
         12    1    3    3    0    0  0.97306293736E+00 -0.26739391484E+01 -0.12534459651E+02  0.12853384021E+02  0.00000000000E+00 0. -1.
</event>
<event>
 7    1  0.5642630E-013  0.5052886E+02  0.7816164E-02  0.1300439E+00
        -11   -1    0    0    0    0  0.00000000000E+00  0.00000000000E+00  0.45593999997E+02  0.45594000000E+02  0.51100000000E-03 0.  1.
         11   -1    0    0    0    0 -0.00000000000E+00 -0.00000000000E+00 -0.45593999997E+02  0.45594000000E+02  0.51100000000E-03 0. -1.
    9900012    2    1    2    0    0  0.22066372022E+02  0.29461908328E+02  0.17269526891E+02  0.50528863566E+02  0.30000011295E+02 0.  0.
         12    1    1    2    0    0 -0.22066372022E+02 -0.29461908328E+02 -0.17269526891E+02  0.40659136434E+02  0.00000000000E+00 0. -1.
         11    1    3    3    0    0  0.12378403764E+02  0.10565232385E+02 -0.53988339780E+01  0.17146323912E+02  0.51100000000E-03 0. -1.
        -11    1    3    3    0    0  0.12398300961E+02  0.15275541020E+02  0.16176558530E+02  0.25470395880E+02  0.51100000000E-03 0.  1.
        -12    1    3    3    0    0 -0.27103327028E+01  0.36211349231E+01  0.64918023390E+01  0.79121437740E+01  0.00000000000E+00 0.  1.
</event>
<event>
 7    1  0.5642630E-013  0.5052888E+02  0.7816164E-02  0.1300439E+00
        -11   -1    0    0    0    0  0.00000000000E+00  0.00000000000E+00  0.45593999997E+02  0.45594000000E+02  0.51100000000E-03 0.  1.
         11   -1    0    0    0    0 -0.00000000000E+00 -0.00000000000E+00 -0.45593999997E+02  0.45594000000E+02  0.51100000000E-03 0. -1.
    9900012    2    1    2    0    0 -0.78519648711E+01  0.11563600910E+02  0.38181070683E+02  0.50528875848E+02  0.30000048627E+02 0.  0.
         12    1    1    2    0    0  0.78519648711E+01 -0.11563600910E+02 -0.38181070683E+02  0.40659124152E+02  0.00000000000E+00 0. -1.
         11    1    3    3    0    0 -0.93950492437E+01 -0.38013154862E+01  0.21121867813E+02  0.23427553220E+02  0.51100000000E-03 0. -1.
        -11    1    3    3    0    0 -0.43267844858E+01  0.45818156693E+01  0.12511291149E+02  0.14008800994E+02  0.51100000000E-03 0.  1.
         12    1    3    3    0    0  0.58698688583E+01  0.10783100727E+02  0.45479117207E+01  0.13092521633E+02  0.00000000000E+00 0. -1.
</event>
<event>
 7    1  0.5642630E-013  0.5052886E+02  0.7816164E-02  0.1300439E+00
        -11   -1    0    0    0    0  0.00000000000E+00  0.00000000000E+00  0.45593999997E+02  0.45594000000E+02  0.51100000000E-03 0. -1.
         11   -1    0    0    0    0 -0.00000000000E+00 -0.00000000000E+00 -0.45593999997E+02  0.45594000000E+02  0.51100000000E-03 0.  1.
    9900012    2    1    2    0    0 -0.31617049948E+01  0.12126376416E+02 -0.38679716854E+02  0.50528857371E+02  0.29999992464E+02 0.  0.
         12    1    1    2    0    0  0.31617049948E+01 -0.12126376416E+02  0.38679716854E+02  0.40659142629E+02  0.00000000000E+00 0. -1.
         11    1    3    3    0    0  0.18477767195E+01  0.97492133437E+01 -0.67733347905E+01  0.12014137675E+02  0.51100000000E-03 0. -1.
        -11    1    3    3    0    0  0.60311797684E+00  0.27765940241E+01  0.24187645875E+01  0.37314404805E+01  0.51100000000E-03 0.  1.
        -12    1    3    3    0    0 -0.56125996912E+01 -0.39943095217E+00 -0.34325146651E+02  0.34783279215E+02  0.00000000000E+00 0.  1.
</event>
<event>
 7    1  0.5642630E-013  0.5052887E+02  0.7816164E-02  0.1300439E+00
        -11   -1    0    0    0    0  0.00000000000E+00  0.00000000000E+00  0.45593999997E+02  0.45594000000E+02  0.51100000000E-03 0. -1.
         11   -1    0    0    0    0 -0.00000000000E+00 -0.00000000000E+00 -0.45593999997E+02  0.45594000000E+02  0.51100000000E-03 0.  1.
    9900012    2    1    2    0    0  0.35843762850E+02  0.15899475421E+02 -0.10751581401E+02  0.50528866260E+02  0.30000019483E+02 0.  0.
         12    1    1    2    0    0 -0.35843762850E+02 -0.15899475421E+02  0.10751581401E+02  0.40659133740E+02  0.00000000000E+00 0. -1.
         11    1    3    3    0    0 -0.16024164746E+01 -0.18560634852E+01  0.16461694137E+01  0.29534021431E+01  0.51100000000E-03 0. -1.
        -11    1    3    3    0    0  0.21832876171E+02  0.17458902714E+01 -0.12488341444E+02  0.25212720738E+02  0.51100000000E-03 0.  1.
         12    1    3    3    0    0  0.15613303153E+02  0.16009648635E+02  0.90590628824E-01  0.22362743378E+02  0.00000000000E+00 0. -1.
</event>
<event>
 7    1  0.5642630E-013  0.5052887E+02  0.7816164E-02  0.1300439E+00
        -11   -1    0    0    0    0  0.00000000000E+00  0.00000000000E+00  0.45593999997E+02  0.45594000000E+02  0.51100000000E-03 0.  1.
         11   -1    0    0    0    0 -0.00000000000E+00 -0.00000000000E+00 -0.45593999997E+02  0.45594000000E+02  0.51100000000E-03 0. -1.
    9900012    2    1    2    0    0 -0.27419677435E+01  0.13504958594E+02  0.38252611554E+02  0.50528873294E+02  0.30000040865E+02 0.  0.
         12    1    1    2    0    0  0.27419677435E+01 -0.13504958594E+02 -0.38252611554E+02  0.40659126706E+02  0.00000000000E+00 0. -1.
         11    1    3    3    0    0  0.46515948766E+01  0.58678297688E+01  0.34138132876E+01  0.82293913818E+01  0.51100000000E-03 0. -1.
        -11    1    3    3    0    0 -0.18505391466E+01  0.12851690723E+02  0.31340367287E+02  0.33923576927E+02  0.51100000000E-03 0.  1.
        -12    1    3    3    0    0 -0.55430234735E+01 -0.52145618973E+01  0.34984309799E+01  0.83759049857E+01  0.00000000000E+00 0.  1.
</event>
<event>
 7    1  0.5642630E-013  0.5052886E+02  0.7816164E-02  0.1300439E+00
        -11   -1    0    0    0    0  0.00000000000E+00  0.00000000000E+00  0.45593999997E+02  0.45594000000E+02  0.51100000000E-03 0.  1.
         11   -1    0    0    0    0 -0.00000000000E+00 -0.00000000000E+00 -0.45593999997E+02  0.45594000000E+02  0.51100000000E-03 0. -1.
    9900012    2    1    2    0    0 -0.72669788398E+01  0.44019596364E+01  0.39761533643E+02  0.50528858497E+02  0.29999995889E+02 0.  0.
         12    1    1    2    0    0  0.72669788398E+01 -0.44019596364E+01 -0.39761533643E+02  0.40659141503E+02  0.00000000000E+00 0. -1.
         11    1    3    3    0    0 -0.51562286250E+01 -0.64250811191E+01  0.10665506515E+01  0.83069784865E+01  0.51100000000E-03 0. -1.
        -11    1    3    3    0    0 -0.62145342552E+01  0.84248919301E+01  0.16634001772E+02  0.19654242679E+02  0.51100000000E-03 0.  1.
        -12    1    3    3    0    0  0.41037840404E+01  0.24021488254E+01  0.22060981219E+02  0.22567637333E+02  0.00000000000E+00 0.  1.
</event>
<event>
 7    1  0.5642630E-013  0.5052885E+02  0.7816164E-02  0.1300439E+00
        -11   -1    0    0    0    0  0.00000000000E+00  0.00000000000E+00  0.45593999997E+02  0.45594000000E+02  0.51100000000E-03 0.  1.
         11   -1    0    0    0    0 -0.00000000000E+00 -0.00000000000E+00 -0.45593999997E+02  0.45594000000E+02  0.51100000000E-03 0. -1.
    9900012    2    1    2    0    0 -0.27439132125E+02 -0.21669344040E+02  0.20753306425E+02  0.50528853791E+02  0.29999981583E+02 0.  0.
         12    1    1    2    0    0  0.27439132125E+02  0.21669344040E+02 -0.20753306425E+02  0.40659146209E+02  0.00000000000E+00 0. -1.
         11    1    3    3    0    0 -0.62381240244E+01 -0.21510256902E+01  0.96112270275E+00  0.66681976556E+01  0.51100000000E-03 0. -1.
        -11    1    3    3    0    0  0.18182181940E+01  0.25651826330E+01  0.10014471156E+02  0.10496461886E+02  0.51100000000E-03 0.  1.
         12    1    3    3    0    0 -0.23019226294E+02 -0.22083500983E+02  0.97777125662E+01  0.33364194249E+02  0.00000000000E+00 0. -1.
</event>
<event>
 7    1  0.5642630E-013  0.5052885E+02  0.7816164E-02  0.1300439E+00
        -11   -1    0    0    0    0  0.00000000000E+00  0.00000000000E+00  0.45593999997E+02  0.45594000000E+02  0.51100000000E-03 0.  1.
         11   -1    0    0    0    0 -0.00000000000E+00 -0.00000000000E+00 -0.45593999997E+02  0.45594000000E+02  0.51100000000E-03 0. -1.
    9900012    2    1    2    0    0 -0.94288080323E+01 -0.25799282592E+02  0.29977676826E+02  0.50528849602E+02  0.29999968850E+02 0.  0.
         12    1    1    2    0    0  0.94288080323E+01  0.25799282592E+02 -0.29977676826E+02  0.40659150398E+02  0.00000000000E+00 0. -1.
         11    1    3    3    0    0  0.28986400883E+01 -0.11414736737E+02  0.20230563313E+02  0.23408844938E+02  0.51100000000E-03 0. -1.
        -11    1    3    3    0    0  0.24837580855E+01 -0.67372427668E+01  0.73574824209E+01  0.10280663508E+02  0.51100000000E-03 0.  1.
         12    1    3    3    0    0 -0.14811206206E+02 -0.76473030890E+01  0.23896310926E+01  0.16839341156E+02  0.00000000000E+00 0. -1.
</event>
<event>
 7    1  0.5642630E-013  0.5052885E+02  0.7816164E-02  0.1300439E+00
        -11   -1    0    0    0    0  0.00000000000E+00  0.00000000000E+00  0.45593999997E+02  0.45594000000E+02  0.51100000000E-03 0.  1.
         11   -1    0    0    0    0 -0.00000000000E+00 -0.00000000000E+00 -0.45593999997E+02  0.45594000000E+02  0.51100000000E-03 0. -1.
    9900012    2    1    2    0    0  0.89588797821E+01  0.18862200783E+02  0.34887275192E+02  0.50528854465E+02  0.29999983631E+02 0.  0.
         12    1    1    2    0    0 -0.89588797821E+01 -0.18862200783E+02 -0.34887275192E+02  0.40659145535E+02  0.00000000000E+00 0. -1.
         11    1    3    3    0    0  0.18924824830E+01  0.14253999144E+02  0.23010335689E+02  0.27133623612E+02  0.51100000000E-03 0. -1.
        -11    1    3    3    0    0 -0.15040840580E+01  0.89068943619E+01  0.13113964909E+01  0.91276939610E+01  0.51100000000E-03 0.  1.
        -12    1    3    3    0    0  0.85704813571E+01 -0.42986927221E+01  0.10565543012E+02  0.14267536891E+02  0.00000000000E+00 0.  1.
</event>
<event>
 7    1  0.5642630E-013  0.5052885E+02  0.7816164E-02  0.1300439E+00
        -11   -1    0    0    0    0  0.00000000000E+00  0.00000000000E+00  0.45593999997E+02  0.45594000000E+02  0.51100000000E-03 0.  1.
         11   -1    0    0    0    0 -0.00000000000E+00 -0.00000000000E+00 -0.45593999997E+02  0.45594000000E+02  0.51100000000E-03 0. -1.
    9900012    2    1    2    0    0 -0.22913798964E+02 -0.30130998603E+02 -0.14840716646E+02  0.50528854284E+02  0.29999983082E+02 0.  0.
         12    1    1    2    0    0  0.22913798964E+02  0.30130998603E+02  0.14840716646E+02  0.40659145716E+02  0.00000000000E+00 0. -1.
         11    1    3    3    0    0 -0.13155537235E+01 -0.11245641641E+02 -0.17318086185E+01  0.11454007983E+02  0.51100000000E-03 0. -1.
        -11    1    3    3    0    0 -0.19787441997E+01 -0.10314340136E+02  0.44296352968E+01  0.11398364363E+02  0.51100000000E-03 0.  1.
         12    1    3    3    0    0 -0.19619501040E+02 -0.85710168267E+01 -0.17538543324E+02  0.27676481938E+02  0.00000000000E+00 0. -1.
</event>
<event>
 7    1  0.5642630E-013  0.5052885E+02  0.7816164E-02  0.1300439E+00
        -11   -1    0    0    0    0  0.00000000000E+00  0.00000000000E+00  0.45593999997E+02  0.45594000000E+02  0.51100000000E-03 0. -1.
         11   -1    0    0    0    0 -0.00000000000E+00 -0.00000000000E+00 -0.45593999997E+02  0.45594000000E+02  0.51100000000E-03 0.  1.
    9900012    2    1    2    0    0  0.30315322614E+02  0.15734504599E+02 -0.22058404149E+02  0.50528848340E+02  0.29999965013E+02 0.  0.
         12    1    1    2    0    0 -0.30315322614E+02 -0.15734504599E+02  0.22058404149E+02  0.40659151660E+02  0.00000000000E+00 0. -1.
         11    1    3    3    0    0  0.13217311080E+02  0.31384901626E+01 -0.57700591290E+01  0.14759438177E+02  0.51100000000E-03 0. -1.
        -11    1    3    3    0    0  0.22545159608E+02  0.12017183244E+02 -0.10014299268E+02  0.27440537622E+02  0.51100000000E-03 0.  1.
         12    1    3    3    0    0 -0.54471480749E+01  0.57883119231E+00 -0.62740457522E+01  0.83288725408E+01  0.00000000000E+00 0. -1.
</event>
<event>
 7    1  0.5642630E-013  0.5052880E+02  0.7816164E-02  0.1300439E+00
        -11   -1    0    0    0    0  0.00000000000E+00  0.00000000000E+00  0.45593999997E+02  0.45594000000E+02  0.51100000000E-03 0.  1.
         11   -1    0    0    0    0 -0.00000000000E+00 -0.00000000000E+00 -0.45593999997E+02  0.45594000000E+02  0.51100000000E-03 0. -1.
    9900012    2    1    2    0    0 -0.28561683920E+02 -0.27206290926E+02 -0.98599506683E+01  0.50528798317E+02  0.29999812965E+02 0.  0.
         12    1    1    2    0    0  0.28561683920E+02  0.27206290926E+02  0.98599506683E+01  0.40659201683E+02  0.00000000000E+00 0. -1.
         11    1    3    3    0    0 -0.14144028436E+01  0.28677686657E+01  0.67883790093E-01  0.31983184635E+01  0.51100000000E-03 0. -1.
        -11    1    3    3    0    0 -0.28996567684E+02 -0.18146051717E+02 -0.74452967488E+01  0.35007321724E+02  0.51100000000E-03 0.  1.
         12    1    3    3    0    0  0.18492866077E+01 -0.11928007874E+02 -0.24825377095E+01  0.12323158130E+02  0.00000000000E+00 0. -1.
</event>
<event>
 7    1  0.5642630E-013  0.5052887E+02  0.7816164E-02  0.1300439E+00
        -11   -1    0    0    0    0  0.00000000000E+00  0.00000000000E+00  0.45593999997E+02  0.45594000000E+02  0.51100000000E-03 0. -1.
         11   -1    0    0    0    0 -0.00000000000E+00 -0.00000000000E+00 -0.45593999997E+02  0.45594000000E+02  0.51100000000E-03 0.  1.
    9900012    2    1    2    0    0  0.40304782764E+02  0.59225261419E+00 -0.53233736550E+01  0.50528873301E+02  0.30000040886E+02 0.  0.
         12    1    1    2    0    0 -0.40304782764E+02 -0.59225261419E+00  0.53233736550E+01  0.40659126699E+02  0.00000000000E+00 0. -1.
         11    1    3    3    0    0  0.29610019044E+01  0.33954750728E+01 -0.45113660410E+01  0.63756730675E+01  0.51100000000E-03 0. -1.
        -11    1    3    3    0    0  0.35837447978E+02  0.48537381694E+01  0.84924489443E+00  0.36174613598E+02  0.51100000000E-03 0.  1.
         12    1    3    3    0    0  0.15063328820E+01 -0.76569606280E+01 -0.16612525085E+01  0.79785866359E+01  0.00000000000E+00 0. -1.
</event>
<event>
 7    1  0.5642630E-013  0.5052886E+02  0.7816164E-02  0.1300439E+00
        -11   -1    0    0    0    0  0.00000000000E+00  0.00000000000E+00  0.45593999997E+02  0.45594000000E+02  0.51100000000E-03 0. -1.
         11   -1    0    0    0    0 -0.00000000000E+00 -0.00000000000E+00 -0.45593999997E+02  0.45594000000E+02  0.51100000000E-03 0.  1.
    9900012    2    1    2    0    0  0.12249449315E+00  0.40600144652E+02  0.21861440713E+01  0.50528856175E+02  0.29999988829E+02 0.  0.
         12    1    1    2    0    0 -0.12249449315E+00 -0.40600144652E+02 -0.21861440713E+01  0.40659143825E+02  0.00000000000E+00 0. -1.
         11    1    3    3    0    0 -0.50110848206E+01  0.35954527386E+01  0.35141227355E+01  0.70984019565E+01  0.51100000000E-03 0. -1.
        -11    1    3    3    0    0 -0.60684792738E+01  0.28231750780E+02 -0.33054974540E+01  0.29065176870E+02  0.51100000000E-03 0.  1.
         12    1    3    3    0    0  0.11202058588E+02  0.87729411338E+01  0.19775187898E+01  0.14365277349E+02  0.00000000000E+00 0. -1.
</event>
<event>
 7    1  0.5642630E-013  0.5052885E+02  0.7816164E-02  0.1300439E+00
        -11   -1    0    0    0    0  0.00000000000E+00  0.00000000000E+00  0.45593999997E+02  0.45594000000E+02  0.51100000000E-03 0.  1.
         11   -1    0    0    0    0 -0.00000000000E+00 -0.00000000000E+00 -0.45593999997E+02  0.45594000000E+02  0.51100000000E-03 0. -1.
    9900012    2    1    2    0    0 -0.37112638235E+02  0.16062220554E+01  0.16529938109E+02  0.50528847034E+02  0.29999961043E+02 0.  0.
         12    1    1    2    0    0  0.37112638235E+02 -0.16062220554E+01 -0.16529938109E+02  0.40659152966E+02  0.00000000000E+00 0. -1.
         11    1    3    3    0    0  0.22811106801E+01 -0.12846075545E+01  0.10543779660E+01  0.28223032545E+01  0.51100000000E-03 0. -1.
        -11    1    3    3    0    0 -0.25747896946E+02 -0.45565925556E+01  0.54735015184E+00  0.26153705766E+02  0.51100000000E-03 0.  1.
         12    1    3    3    0    0 -0.13645851969E+02  0.74474221655E+01  0.14928209991E+02  0.21552838013E+02  0.00000000000E+00 0. -1.
</event>
<event>
 7    1  0.5642630E-013  0.5052885E+02  0.7816164E-02  0.1300439E+00
        -11   -1    0    0    0    0  0.00000000000E+00  0.00000000000E+00  0.45593999997E+02  0.45594000000E+02  0.51100000000E-03 0. -1.
         11   -1    0    0    0    0 -0.00000000000E+00 -0.00000000000E+00 -0.45593999997E+02  0.45594000000E+02  0.51100000000E-03 0.  1.
    9900012    2    1    2    0    0 -0.23122777886E+02  0.32244113119E+02 -0.88781093470E+01  0.50528849571E+02  0.29999968756E+02 0.  0.
         12    1    1    2    0    0  0.23122777886E+02 -0.32244113119E+02  0.88781093470E+01  0.40659150429E+02  0.00000000000E+00 0. -1.
         11    1    3    3    0    0 -0.19087329380E+02  0.22297982706E+02  0.99275541072E+00  0.29368550171E+02  0.51100000000E-03 0. -1.
        -11    1    3    3    0    0 -0.45198332451E+01  0.13131450524E+02 -0.39811677598E+01  0.14446922939E+02  0.51100000000E-03 0.  1.
        -12    1    3    3    0    0  0.48438473839E+00 -0.31853201099E+01 -0.58896969980E+01  0.67133764609E+01  0.00000000000E+00 0.  1.
</event>
<event>
 7    1  0.5642630E-013  0.5052893E+02  0.7816164E-02  0.1300439E+00
        -11   -1    0    0    0    0  0.00000000000E+00  0.00000000000E+00  0.45593999997E+02  0.45594000000E+02  0.51100000000E-03 0.  1.
         11   -1    0    0    0    0 -0.00000000000E+00 -0.00000000000E+00 -0.45593999997E+02  0.45594000000E+02  0.51100000000E-03 0. -1.
    9900012    2    1    2    0    0  0.12025403611E+02 -0.28474404017E+02  0.26415107169E+02  0.50528930865E+02  0.30000215857E+02 0.  0.
         12    1    1    2    0    0 -0.12025403611E+02  0.28474404017E+02 -0.26415107169E+02  0.40659069135E+02  0.00000000000E+00 0. -1.
         11    1    3    3    0    0  0.11862723706E+02 -0.89509965059E+01  0.89138815614E+01  0.17329219167E+02  0.51100000000E-03 0. -1.
        -11    1    3    3    0    0  0.71103823548E+01 -0.20021438342E+02  0.13137725736E+02  0.24980299604E+02  0.51100000000E-03 0.  1.
         12    1    3    3    0    0 -0.69477024503E+01  0.49803083119E+00  0.43634998718E+01  0.82194120944E+01  0.00000000000E+00 0. -1.
</event>
<event>
 7    1  0.5642630E-013  0.5052887E+02  0.7816164E-02  0.1300439E+00
        -11   -1    0    0    0    0  0.00000000000E+00  0.00000000000E+00  0.45593999997E+02  0.45594000000E+02  0.51100000000E-03 0. -1.
         11   -1    0    0    0    0 -0.00000000000E+00 -0.00000000000E+00 -0.45593999997E+02  0.45594000000E+02  0.51100000000E-03 0.  1.
    9900012    2    1    2    0    0  0.14222919219E+02 -0.38055873855E+02 -0.16199215296E+01  0.50528866811E+02  0.30000021158E+02 0.  0.
         12    1    1    2    0    0 -0.14222919219E+02  0.38055873855E+02  0.16199215296E+01  0.40659133189E+02  0.00000000000E+00 0. -1.
         11    1    3    3    0    0 -0.10348248457E+01 -0.86664286929E+01  0.55327544079E+01  0.10333886991E+02  0.51100000000E-03 0.  1.
        -11    1    3    3    0    0  0.23510474910E+01 -0.14645298836E+02  0.66207600630E+01  0.16243357608E+02  0.51100000000E-03 0. -1.
        -12    1    3    3    0    0  0.12906696573E+02 -0.14744146326E+02 -0.13773436001E+02  0.23951622211E+02  0.00000000000E+00 0.  1.
</event>
<event>
 7    1  0.5642630E-013  0.5052886E+02  0.7816164E-02  0.1300439E+00
        -11   -1    0    0    0    0  0.00000000000E+00  0.00000000000E+00  0.45593999997E+02  0.45594000000E+02  0.51100000000E-03 0. -1.
         11   -1    0    0    0    0 -0.00000000000E+00 -0.00000000000E+00 -0.45593999997E+02  0.45594000000E+02  0.51100000000E-03 0.  1.
    9900012    2    1    2    0    0  0.20276454435E+02 -0.26494920428E+02 -0.23238979483E+02  0.50528861048E+02  0.30000003640E+02 0.  0.
         12    1    1    2    0    0 -0.20276454435E+02  0.26494920428E+02  0.23238979483E+02  0.40659138952E+02  0.00000000000E+00 0. -1.
         11    1    3    3    0    0 -0.18550277398E+01 -0.44000126910E+01 -0.96971308937E+01  0.10809051181E+02  0.51100000000E-03 0. -1.
        -11    1    3    3    0    0  0.10945414944E+02 -0.62435125030E+01 -0.15775958470E+02  0.20190701390E+02  0.51100000000E-03 0.  1.
         12    1    3    3    0    0  0.11186067230E+02 -0.15851395234E+02  0.22341098813E+01  0.19529108477E+02  0.00000000000E+00 0. -1.
</event>
<event>
 7    1  0.5642630E-013  0.5052890E+02  0.7816164E-02  0.1300439E+00
        -11   -1    0    0    0    0  0.00000000000E+00  0.00000000000E+00  0.45593999997E+02  0.45594000000E+02  0.51100000000E-03 0. -1.
         11   -1    0    0    0    0 -0.00000000000E+00 -0.00000000000E+00 -0.45593999997E+02  0.45594000000E+02  0.51100000000E-03 0.  1.
    9900012    2    1    2    0    0  0.37657504362E+01 -0.39968472653E+02  0.64422718446E+01  0.50528898324E+02  0.30000116945E+02 0.  0.
         12    1    1    2    0    0 -0.37657504362E+01  0.39968472653E+02 -0.64422718446E+01  0.40659101676E+02  0.00000000000E+00 0. -1.
         11    1    3    3    0    0 -0.23934387193E+00 -0.58703528962E+01 -0.83249694457E+01  0.10189379036E+02  0.51100000000E-03 0. -1.
        -11    1    3    3    0    0 -0.25140149419E+01 -0.22328305580E+01 -0.18258350883E+01  0.38261570093E+01  0.51100000000E-03 0.  1.
        -12    1    3    3    0    0  0.65191092500E+01 -0.31865289199E+02  0.16593076379E+02  0.36513362278E+02  0.00000000000E+00 0.  1.
</event>
<event>
 7    1  0.5642630E-013  0.5052885E+02  0.7816164E-02  0.1300439E+00
        -11   -1    0    0    0    0  0.00000000000E+00  0.00000000000E+00  0.45593999997E+02  0.45594000000E+02  0.51100000000E-03 0. -1.
         11   -1    0    0    0    0 -0.00000000000E+00 -0.00000000000E+00 -0.45593999997E+02  0.45594000000E+02  0.51100000000E-03 0.  1.
    9900012    2    1    2    0    0 -0.48222547241E+01  0.34152098033E+02 -0.21530128464E+02  0.50528851308E+02  0.29999974037E+02 0.  0.
         12    1    1    2    0    0  0.48222547241E+01 -0.34152098033E+02  0.21530128464E+02  0.40659148692E+02  0.00000000000E+00 0. -1.
         11    1    3    3    0    0 -0.10957931845E+01 -0.13298889484E+01  0.53633543873E+00  0.18047224946E+01  0.51100000000E-03 0. -1.
        -11    1    3    3    0    0  0.20764259266E+00 -0.51502519078E+00  0.40433309917E+01  0.40812856018E+01  0.51100000000E-03 0.  1.
        -12    1    3    3    0    0 -0.39341041322E+01  0.35997012172E+02 -0.26109794894E+02  0.44642843212E+02  0.00000000000E+00 0.  1.
</event>
<event>
 7    1  0.5642630E-013  0.5052885E+02  0.7816164E-02  0.1300439E+00
        -11   -1    0    0    0    0  0.00000000000E+00  0.00000000000E+00  0.45593999997E+02  0.45594000000E+02  0.51100000000E-03 0. -1.
         11   -1    0    0    0    0 -0.00000000000E+00 -0.00000000000E+00 -0.45593999997E+02  0.45594000000E+02  0.51100000000E-03 0.  1.
    9900012    2    1    2    0    0 -0.10686791275E+02  0.24225544960E+02 -0.30855829617E+02  0.50528846569E+02  0.29999959632E+02 0.  0.
         12    1    1    2    0    0  0.10686791275E+02 -0.24225544960E+02  0.30855829617E+02  0.40659153431E+02  0.00000000000E+00 0. -1.
         11    1    3    3    0    0  0.24772520326E+01 -0.17778942168E+01  0.66674317001E+00  0.31212549071E+01  0.51100000000E-03 0. -1.
        -11    1    3    3    0    0 -0.33030315447E+01 -0.29631738495E+01 -0.65501441131E+01  0.79116878611E+01  0.51100000000E-03 0.  1.
         12    1    3    3    0    0 -0.98610117626E+01  0.28966613027E+02 -0.24972428674E+02  0.39495903801E+02  0.00000000000E+00 0. -1.
</event>
<event>
 7    1  0.5642630E-013  0.5052885E+02  0.7816164E-02  0.1300439E+00
        -11   -1    0    0    0    0  0.00000000000E+00  0.00000000000E+00  0.45593999997E+02  0.45594000000E+02  0.51100000000E-03 0. -1.
         11   -1    0    0    0    0 -0.00000000000E+00 -0.00000000000E+00 -0.45593999997E+02  0.45594000000E+02  0.51100000000E-03 0.  1.
    9900012    2    1    2    0    0  0.19382127019E+02  0.15379058720E+02 -0.32264287822E+02  0.50528848956E+02  0.29999966888E+02 0.  0.
         12    1    1    2    0    0 -0.19382127019E+02 -0.15379058720E+02  0.32264287822E+02  0.40659151044E+02  0.00000000000E+00 0. -1.
         11    1    3    3    0    0  0.30623344451E+01  0.12591643756E+02 -0.40611794762E+01  0.13580153303E+02  0.51100000000E-03 0. -1.
        -11    1    3    3    0    0 -0.10405532382E+01  0.57953781655E+01 -0.44807097295E+01  0.73990485242E+01  0.51100000000E-03 0.  1.
        -12    1    3    3    0    0  0.17360345813E+02 -0.30079632016E+01 -0.23722398617E+02  0.29549647129E+02  0.00000000000E+00 0.  1.
</event>
<event>
 7    1  0.5642630E-013  0.5052886E+02  0.7816164E-02  0.1300439E+00
        -11   -1    0    0    0    0  0.00000000000E+00  0.00000000000E+00  0.45593999997E+02  0.45594000000E+02  0.51100000000E-03 0. -1.
         11   -1    0    0    0    0 -0.00000000000E+00 -0.00000000000E+00 -0.45593999997E+02  0.45594000000E+02  0.51100000000E-03 0.  1.
    9900012    2    1    2    0    0  0.64974586009E+01 -0.86602802263E+00 -0.40127284237E+02  0.50528856956E+02  0.29999991205E+02 0.  0.
         12    1    1    2    0    0 -0.64974586009E+01  0.86602802263E+00  0.40127284237E+02  0.40659143044E+02  0.00000000000E+00 0. -1.
         11    1    3    3    0    0 -0.92339554523E+01 -0.30408810341E+01 -0.72522553208E+01  0.12128812731E+02  0.51100000000E-03 0. -1.
        -11    1    3    3    0    0  0.21905152521E+01 -0.19210839990E+01 -0.16522489903E+02  0.16777413199E+02  0.51100000000E-03 0.  1.
        -12    1    3    3    0    0  0.13540898801E+02  0.40959370105E+01 -0.16352539014E+02  0.21622631027E+02  0.00000000000E+00 0.  1.
</event>
<event>
 7    1  0.5642630E-013  0.5052885E+02  0.7816164E-02  0.1300439E+00
        -11   -1    0    0    0    0  0.00000000000E+00  0.00000000000E+00  0.45593999997E+02  0.45594000000E+02  0.51100000000E-03 0. -1.
         11   -1    0    0    0    0 -0.00000000000E+00 -0.00000000000E+00 -0.45593999997E+02  0.45594000000E+02  0.51100000000E-03 0.  1.
    9900012    2    1    2    0    0  0.12372009103E+02 -0.36350501253E+02  0.13369412900E+02  0.50528846641E+02  0.29999959851E+02 0.  0.
         12    1    1    2    0    0 -0.12372009103E+02  0.36350501253E+02 -0.13369412900E+02  0.40659153359E+02  0.00000000000E+00 0. -1.
         11    1    3    3    0    0  0.84063368165E+01 -0.52319145985E+01  0.41134718522E+01  0.10721943853E+02  0.51100000000E-03 0. -1.
        -11    1    3    3    0    0  0.11324268310E+02 -0.21142425866E+02  0.12425350005E+02  0.27011674278E+02  0.51100000000E-03 0.  1.
        -12    1    3    3    0    0 -0.73585960241E+01 -0.99761607879E+01 -0.31694089577E+01  0.12795228511E+02  0.00000000000E+00 0.  1.
</event>
<event>
 7    1  0.5642630E-013  0.5052886E+02  0.7816164E-02  0.1300439E+00
        -11   -1    0    0    0    0  0.00000000000E+00  0.00000000000E+00  0.45593999997E+02  0.45594000000E+02  0.51100000000E-03 0.  1.
         11   -1    0    0    0    0 -0.00000000000E+00 -0.00000000000E+00 -0.45593999997E+02  0.45594000000E+02  0.51100000000E-03 0. -1.
    9900012    2    1    2    0    0  0.17509948863E+02 -0.35507650659E+02 -0.92614318699E+01  0.50528859763E+02  0.29999999736E+02 0.  0.
         12    1    1    2    0    0 -0.17509948863E+02  0.35507650659E+02  0.92614318699E+01  0.40659140237E+02  0.00000000000E+00 0. -1.
         11    1    3    3    0    0  0.10869900591E+02 -0.26120044712E+02 -0.42637839638E+01  0.28611035083E+02  0.51100000000E-03 0. -1.
        -11    1    3    3    0    0  0.69250831749E+00 -0.64574171067E+01  0.61520762628E+01  0.89457166322E+01  0.51100000000E-03 0.  1.
         12    1    3    3    0    0  0.59475399546E+01 -0.29301888408E+01 -0.11149724169E+02  0.12972108047E+02  0.00000000000E+00 0. -1.
</event>
<event>
 7    1  0.5642630E-013  0.5052885E+02  0.7816164E-02  0.1300439E+00
        -11   -1    0    0    0    0  0.00000000000E+00  0.00000000000E+00  0.45593999997E+02  0.45594000000E+02  0.51100000000E-03 0. -1.
         11   -1    0    0    0    0 -0.00000000000E+00 -0.00000000000E+00 -0.45593999997E+02  0.45594000000E+02  0.51100000000E-03 0.  1.
    9900012    2    1    2    0    0  0.34279904838E+02 -0.21073312052E+02 -0.58283588510E+01  0.50528854369E+02  0.29999983340E+02 0.  0.
         12    1    1    2    0    0 -0.34279904838E+02  0.21073312052E+02  0.58283588510E+01  0.40659145631E+02  0.00000000000E+00 0. -1.
         11    1    3    3    0    0  0.53580709100E+01  0.57626994041E+01 -0.66706542739E+01  0.10315777092E+02  0.51100000000E-03 0. -1.
        -11    1    3    3    0    0  0.57997943542E+00 -0.27976172259E+01 -0.93827294206E+00  0.30072237468E+01  0.51100000000E-03 0.  1.
        -12    1    3    3    0    0  0.28341854492E+02 -0.24038394230E+02  0.17805683650E+01  0.37205853531E+02  0.00000000000E+00 0.  1.
</event>
<event>
 7    1  0.5709433E-013  0.5052884E+02  0.7816164E-02  0.1300439E+00
        -11   -1    0    0    0    0  0.00000000000E+00  0.00000000000E+00  0.45593999997E+02  0.45594000000E+02  0.51100000000E-03 0. -1.
         11   -1    0    0    0    0 -0.00000000000E+00 -0.00000000000E+00 -0.45593999997E+02  0.45594000000E+02  0.51100000000E-03 0.  1.
    9900012    2    1    2    0    0 -0.23747808590E+02  0.29903066791E+02 -0.13964790337E+02  0.50528841308E+02  0.29999943641E+02 0.  0.
         12    1    1    2    0    0  0.23747808590E+02 -0.29903066791E+02  0.13964790337E+02  0.40659158692E+02  0.00000000000E+00 0. -1.
         11    1    3    3    0    0 -0.43833958820E+01 -0.26222118938E+01 -0.40451565343E+01  0.65156309229E+01  0.51100000000E-03 0. -1.
        -11    1    3    3    0    0 -0.14297801405E+02  0.58083303065E+01 -0.59127087305E+01  0.16526462137E+02  0.51100000000E-03 0.  1.
        -12    1    3    3    0    0 -0.50666113030E+01  0.26716948378E+02 -0.40069250721E+01  0.27486748248E+02  0.00000000000E+00 0.  1.
</event>
<event>
 7    1  0.5642630E-013  0.5052887E+02  0.7816164E-02  0.1300439E+00
        -11   -1    0    0    0    0  0.00000000000E+00  0.00000000000E+00  0.45593999997E+02  0.45594000000E+02  0.51100000000E-03 0.  1.
         11   -1    0    0    0    0 -0.00000000000E+00 -0.00000000000E+00 -0.45593999997E+02  0.45594000000E+02  0.51100000000E-03 0. -1.
    9900012    2    1    2    0    0  0.35399888117E+02 -0.11197352470E+02  0.16572037829E+02  0.50528865493E+02  0.30000017152E+02 0.  0.
         12    1    1    2    0    0 -0.35399888117E+02  0.11197352470E+02 -0.16572037829E+02  0.40659134507E+02  0.00000000000E+00 0. -1.
         11    1    3    3    0    0  0.28321574541E+01 -0.54095963805E+01  0.15577503494E+02  0.16731511116E+02  0.51100000000E-03 0. -1.
        -11    1    3    3    0    0  0.96871642039E+01 -0.36186654439E+01  0.28870068567E+01  0.10736419271E+02  0.51100000000E-03 0.  1.
        -12    1    3    3    0    0  0.22880566459E+02 -0.21690906455E+01 -0.18924725218E+01  0.23060935106E+02  0.00000000000E+00 0.  1.
</event>
<event>
 7    1  0.5642630E-013  0.5052886E+02  0.7816164E-02  0.1300439E+00
        -11   -1    0    0    0    0  0.00000000000E+00  0.00000000000E+00  0.45593999997E+02  0.45594000000E+02  0.51100000000E-03 0.  1.
         11   -1    0    0    0    0 -0.00000000000E+00 -0.00000000000E+00 -0.45593999997E+02  0.45594000000E+02  0.51100000000E-03 0. -1.
    9900012    2    1    2    0    0  0.68850973554E+01 -0.24731403528E+02  0.31529654929E+02  0.50528855567E+02  0.29999986981E+02 0.  0.
         12    1    1    2    0    0 -0.68850973554E+01  0.24731403528E+02 -0.31529654929E+02  0.40659144433E+02  0.00000000000E+00 0. -1.
         11    1    3    3    0    0 -0.43389850539E+01 -0.33933176697E+01  0.22212899659E+02  0.22885679095E+02  0.51100000000E-03 0. -1.
        -11    1    3    3    0    0  0.46548158914E+01 -0.38594322153E+01 -0.12696303733E+01  0.61785507648E+01  0.51100000000E-03 0.  1.
        -12    1    3    3    0    0  0.65692665178E+01 -0.17478653643E+02  0.10586385643E+02  0.21464625707E+02  0.00000000000E+00 0.  1.
</event>
<event>
 7    1  0.5642630E-013  0.5052878E+02  0.7816164E-02  0.1300439E+00
        -11   -1    0    0    0    0  0.00000000000E+00  0.00000000000E+00  0.45593999997E+02  0.45594000000E+02  0.51100000000E-03 0. -1.
         11   -1    0    0    0    0 -0.00000000000E+00 -0.00000000000E+00 -0.45593999997E+02  0.45594000000E+02  0.51100000000E-03 0.  1.
    9900012    2    1    2    0    0  0.17303028864E+02  0.36539278462E+02  0.43195007817E+01  0.50528784988E+02  0.29999772447E+02 0.  0.
         12    1    1    2    0    0 -0.17303028864E+02 -0.36539278462E+02 -0.43195007817E+01  0.40659215012E+02  0.00000000000E+00 0. -1.
         11    1    3    3    0    0  0.44689810202E+01  0.65722076296E+01  0.12486903762E+02  0.14801637420E+02  0.51100000000E-03 0. -1.
        -11    1    3    3    0    0  0.16381264428E+01 -0.82162749913E+00 -0.13187896926E+01  0.22578167561E+01  0.51100000000E-03 0.  1.
        -12    1    3    3    0    0  0.11195921401E+02  0.30788698332E+02 -0.68486132880E+01  0.33469330811E+02  0.00000000000E+00 0.  1.
</event>
<event>
 7    1  0.5642630E-013  0.5052889E+02  0.7816164E-02  0.1300439E+00
        -11   -1    0    0    0    0  0.00000000000E+00  0.00000000000E+00  0.45593999997E+02  0.45594000000E+02  0.51100000000E-03 0.  1.
         11   -1    0    0    0    0 -0.00000000000E+00 -0.00000000000E+00 -0.45593999997E+02  0.45594000000E+02  0.51100000000E-03 0. -1.
    9900012    2    1    2    0    0 -0.15274883565E+02  0.12920141709E+02  0.35396488241E+02  0.50528886514E+02  0.30000081047E+02 0.  0.
         12    1    1    2    0    0  0.15274883565E+02 -0.12920141709E+02 -0.35396488241E+02  0.40659113486E+02  0.00000000000E+00 0. -1.
         11    1    3    3    0    0 -0.89023902958E+01  0.10718955378E+02  0.26161017579E+02  0.29640300242E+02  0.51100000000E-03 0.  1.
        -11    1    3    3    0    0 -0.11942458540E+02  0.13708195675E+01  0.28107607797E+01  0.12345113960E+02  0.51100000000E-03 0. -1.
         12    1    3    3    0    0  0.55699652707E+01  0.83036676319E+00  0.64247098819E+01  0.85434723119E+01  0.00000000000E+00 0. -1.
</event>
<event>
 7    1  0.5642630E-013  0.5052886E+02  0.7816164E-02  0.1300439E+00
        -11   -1    0    0    0    0  0.00000000000E+00  0.00000000000E+00  0.45593999997E+02  0.45594000000E+02  0.51100000000E-03 0.  1.
         11   -1    0    0    0    0 -0.00000000000E+00 -0.00000000000E+00 -0.45593999997E+02  0.45594000000E+02  0.51100000000E-03 0. -1.
    9900012    2    1    2    0    0 -0.95836471734E+01  0.22574740581E+01  0.39448993928E+02  0.50528860754E+02  0.30000002749E+02 0.  0.
         12    1    1    2    0    0  0.95836471734E+01 -0.22574740581E+01 -0.39448993928E+02  0.40659139246E+02  0.00000000000E+00 0. -1.
         11    1    3    3    0    0  0.14761208126E+01 -0.64988621853E+01  0.46010940216E+00  0.66802577255E+01  0.51100000000E-03 0. -1.
        -11    1    3    3    0    0  0.14416191923E+01  0.15848113356E+01  0.19458907569E+02  0.19576490413E+02  0.51100000000E-03 0.  1.
        -12    1    3    3    0    0 -0.12501387178E+02  0.71715249078E+01  0.19529976957E+02  0.24272112616E+02  0.00000000000E+00 0.  1.
</event>
<event>
 7    1  0.5642630E-013  0.5052889E+02  0.7816164E-02  0.1300439E+00
        -11   -1    0    0    0    0  0.00000000000E+00  0.00000000000E+00  0.45593999997E+02  0.45594000000E+02  0.51100000000E-03 0. -1.
         11   -1    0    0    0    0 -0.00000000000E+00 -0.00000000000E+00 -0.45593999997E+02  0.45594000000E+02  0.51100000000E-03 0.  1.
    9900012    2    1    2    0    0  0.35102550691E+02 -0.17182978896E+02 -0.11212461061E+02  0.50528891404E+02  0.30000095912E+02 0.  0.
         12    1    1    2    0    0 -0.35102550691E+02  0.17182978896E+02  0.11212461061E+02  0.40659108596E+02  0.00000000000E+00 0. -1.
         11    1    3    3    0    0  0.88464429820E+00 -0.69913037055E+01 -0.97246572610E+01  0.12009574603E+02  0.51100000000E-03 0. -1.
        -11    1    3    3    0    0  0.20885262428E+02 -0.37842466727E+01 -0.75566903125E+01  0.22530385667E+02  0.51100000000E-03 0.  1.
         12    1    3    3    0    0  0.13332643965E+02 -0.64074285183E+01  0.60688865128E+01  0.15988931134E+02  0.00000000000E+00 0. -1.
</event>
<event>
 7    1  0.5642630E-013  0.5052887E+02  0.7816164E-02  0.1300439E+00
        -11   -1    0    0    0    0  0.00000000000E+00  0.00000000000E+00  0.45593999997E+02  0.45594000000E+02  0.51100000000E-03 0. -1.
         11   -1    0    0    0    0 -0.00000000000E+00 -0.00000000000E+00 -0.45593999997E+02  0.45594000000E+02  0.51100000000E-03 0.  1.
    9900012    2    1    2    0    0  0.38650296593E+02  0.85558905054E+01 -0.92798873014E+01  0.50528868216E+02  0.30000025430E+02 0.  0.
         12    1    1    2    0    0 -0.38650296593E+02 -0.85558905054E+01  0.92798873014E+01  0.40659131784E+02  0.00000000000E+00 0. -1.
         11    1    3    3    0    0  0.60069189061E+01 -0.40176218324E+01  0.72036707564E+00  0.72624574985E+01  0.51100000000E-03 0. -1.
        -11    1    3    3    0    0  0.14973560585E+02 -0.41805699806E+01 -0.10756508305E+02  0.18904686010E+02  0.51100000000E-03 0.  1.
        -12    1    3    3    0    0  0.17669817102E+02  0.16754082318E+02  0.75625392790E+00  0.24361724708E+02  0.00000000000E+00 0.  1.
</event>
<event>
 7    1  0.5642630E-013  0.5052886E+02  0.7816164E-02  0.1300439E+00
        -11   -1    0    0    0    0  0.00000000000E+00  0.00000000000E+00  0.45593999997E+02  0.45594000000E+02  0.51100000000E-03 0.  1.
         11   -1    0    0    0    0 -0.00000000000E+00 -0.00000000000E+00 -0.45593999997E+02  0.45594000000E+02  0.51100000000E-03 0. -1.
    9900012    2    1    2    0    0  0.10213213597E+02  0.11230675831E+02  0.37719065405E+02  0.50528859495E+02  0.29999998920E+02 0.  0.
         12    1    1    2    0    0 -0.10213213597E+02 -0.11230675831E+02 -0.37719065405E+02  0.40659140505E+02  0.00000000000E+00 0. -1.
         11    1    3    3    0    0  0.40778833372E+01  0.32021510134E+01  0.89272158456E-01  0.51856410794E+01  0.51100000000E-03 0. -1.
        -11    1    3    3    0    0  0.16663880956E+01  0.14475737463E+02  0.13116312861E+02  0.19605139319E+02  0.51100000000E-03 0.  1.
        -12    1    3    3    0    0  0.44689421637E+01 -0.64472126454E+01  0.24513480386E+02  0.25738079096E+02  0.00000000000E+00 0.  1.
</event>
<event>
 7    1  0.5642630E-013  0.5052885E+02  0.7816164E-02  0.1300439E+00
        -11   -1    0    0    0    0  0.00000000000E+00  0.00000000000E+00  0.45593999997E+02  0.45594000000E+02  0.51100000000E-03 0.  1.
         11   -1    0    0    0    0 -0.00000000000E+00 -0.00000000000E+00 -0.45593999997E+02  0.45594000000E+02  0.51100000000E-03 0. -1.
    9900012    2    1    2    0    0 -0.37288381450E+02 -0.11565697664E+02  0.11356824901E+02  0.50528853115E+02  0.29999979528E+02 0.  0.
         12    1    1    2    0    0  0.37288381450E+02  0.11565697664E+02 -0.11356824901E+02  0.40659146885E+02  0.00000000000E+00 0. -1.
         11    1    3    3    0    0 -0.26971402741E+02 -0.84281733205E+01  0.73226926404E+01  0.29190966053E+02  0.51100000000E-03 0.  1.
        -11    1    3    3    0    0 -0.13923449774E+02  0.22838245339E+01  0.45004192272E+01  0.14809864334E+02  0.51100000000E-03 0. -1.
         12    1    3    3    0    0  0.36064710655E+01 -0.54213488772E+01 -0.46628696635E+00  0.65280227274E+01  0.00000000000E+00 0. -1.
</event>
<event>
 7    1  0.5642630E-013  0.5052886E+02  0.7816164E-02  0.1300439E+00
        -11   -1    0    0    0    0  0.00000000000E+00  0.00000000000E+00  0.45593999997E+02  0.45594000000E+02  0.51100000000E-03 0.  1.
         11   -1    0    0    0    0 -0.00000000000E+00 -0.00000000000E+00 -0.45593999997E+02  0.45594000000E+02  0.51100000000E-03 0. -1.
    9900012    2    1    2    0    0  0.36614075598E+02  0.15730730159E+02  0.80696297741E+01  0.50528864152E+02  0.30000013077E+02 0.  0.
         12    1    1    2    0    0 -0.36614075598E+02 -0.15730730159E+02 -0.80696297741E+01  0.40659135848E+02  0.00000000000E+00 0. -1.
         11    1    3    3    0    0 -0.17406136925E+01 -0.21712019561E+01 -0.59342049549E+00  0.28453474491E+01  0.51100000000E-03 0. -1.
        -11    1    3    3    0    0  0.32903012654E+01 -0.15023564758E+01  0.66349479215E+01  0.75568307894E+01  0.51100000000E-03 0.  1.
        -12    1    3    3    0    0  0.35064388025E+02  0.19404288591E+02  0.20281023481E+01  0.40126685914E+02  0.00000000000E+00 0.  1.
</event>
<event>
 7    1  0.5642630E-013  0.5052886E+02  0.7816164E-02  0.1300439E+00
        -11   -1    0    0    0    0  0.00000000000E+00  0.00000000000E+00  0.45593999997E+02  0.45594000000E+02  0.51100000000E-03 0.  1.
         11   -1    0    0    0    0 -0.00000000000E+00 -0.00000000000E+00 -0.45593999997E+02  0.45594000000E+02  0.51100000000E-03 0. -1.
    9900012    2    1    2    0    0  0.66434730951E+01  0.12323612507E+02  0.38172742650E+02  0.50528862756E+02  0.30000008834E+02 0.  0.
         12    1    1    2    0    0 -0.66434730951E+01 -0.12323612507E+02 -0.38172742650E+02  0.40659137244E+02  0.00000000000E+00 0. -1.
         11    1    3    3    0    0  0.13627705634E+02  0.14005764760E+02  0.25047780159E+02  0.31768964392E+02  0.51100000000E-03 0. -1.
        -11    1    3    3    0    0  0.27906862186E+01  0.13263611232E+01  0.39927173840E+01  0.50486588089E+01  0.51100000000E-03 0.  1.
        -12    1    3    3    0    0 -0.97749187575E+01 -0.30085133770E+01  0.91322451069E+01  0.13711239555E+02  0.00000000000E+00 0.  1.
</event>
<event>
 7    1  0.5642630E-013  0.5052886E+02  0.7816164E-02  0.1300439E+00
        -11   -1    0    0    0    0  0.00000000000E+00  0.00000000000E+00  0.45593999997E+02  0.45594000000E+02  0.51100000000E-03 0.  1.
         11   -1    0    0    0    0 -0.00000000000E+00 -0.00000000000E+00 -0.45593999997E+02  0.45594000000E+02  0.51100000000E-03 0. -1.
    9900012    2    1    2    0    0  0.83913158258E+01 -0.37335848878E+02  0.13739943282E+02  0.50528857927E+02  0.29999994155E+02 0.  0.
         12    1    1    2    0    0 -0.83913158258E+01  0.37335848878E+02 -0.13739943282E+02  0.40659142073E+02  0.00000000000E+00 0. -1.
         11    1    3    3    0    0  0.60792874805E+01 -0.14510293253E+01  0.32771866752E+01  0.70571364687E+01  0.51100000000E-03 0. -1.
        -11    1    3    3    0    0  0.78846772504E+01 -0.21414959425E+02 -0.28980518532E+01  0.23003637263E+02  0.51100000000E-03 0.  1.
        -12    1    3    3    0    0 -0.55726489050E+01 -0.14469860127E+02  0.13360808460E+02  0.20468084195E+02  0.00000000000E+00 0.  1.
</event>
<event>
 7    1  0.5642630E-013  0.5052886E+02  0.7816164E-02  0.1300439E+00
        -11   -1    0    0    0    0  0.00000000000E+00  0.00000000000E+00  0.45593999997E+02  0.45594000000E+02  0.51100000000E-03 0.  1.
         11   -1    0    0    0    0 -0.00000000000E+00 -0.00000000000E+00 -0.45593999997E+02  0.45594000000E+02  0.51100000000E-03 0. -1.
    9900012    2    1    2    0    0  0.14512184473E+01 -0.16508022762E+02  0.37128764488E+02  0.50528855851E+02  0.29999987845E+02 0.  0.
         12    1    1    2    0    0 -0.14512184473E+01  0.16508022762E+02 -0.37128764488E+02  0.40659144149E+02  0.00000000000E+00 0. -1.
         11    1    3    3    0    0 -0.36947074863E+00 -0.62845133598E+01 -0.22024971839E+01  0.66695285373E+01  0.51100000000E-03 0. -1.
        -11    1    3    3    0    0 -0.58427814585E+01 -0.10185965776E+02  0.24125644331E+02  0.26831673608E+02  0.51100000000E-03 0.  1.
         12    1    3    3    0    0  0.76634706545E+01 -0.37543626556E-01  0.15205617341E+02  0.17027653705E+02  0.00000000000E+00 0. -1.
</event>
<event>
 7    1  0.5642630E-013  0.5052884E+02  0.7816164E-02  0.1300439E+00
        -11   -1    0    0    0    0  0.00000000000E+00  0.00000000000E+00  0.45593999997E+02  0.45594000000E+02  0.51100000000E-03 0. -1.
         11   -1    0    0    0    0 -0.00000000000E+00 -0.00000000000E+00 -0.45593999997E+02  0.45594000000E+02  0.51100000000E-03 0.  1.
    9900012    2    1    2    0    0 -0.39917815218E+02  0.37827869712E+01 -0.67398762784E+01  0.50528838901E+02  0.29999936322E+02 0.  0.
         12    1    1    2    0    0  0.39917815218E+02 -0.37827869712E+01  0.67398762784E+01  0.40659161099E+02  0.00000000000E+00 0. -1.
         11    1    3    3    0    0 -0.62325526541E+01  0.91332496395E+01 -0.76798808078E+01  0.13462597485E+02  0.51100000000E-03 0.  1.
        -11    1    3    3    0    0  0.13868976668E+01 -0.77517843244E-02  0.77567670626E+00  0.15890940319E+01  0.51100000000E-03 0. -1.
         12    1    3    3    0    0 -0.35072160231E+02 -0.53427108840E+01  0.16432782317E+00  0.35477147384E+02  0.00000000000E+00 0. -1.
</event>
<event>
 7    1  0.5642630E-013  0.5052886E+02  0.7816164E-02  0.1300439E+00
        -11   -1    0    0    0    0  0.00000000000E+00  0.00000000000E+00  0.45593999997E+02  0.45594000000E+02  0.51100000000E-03 0. -1.
         11   -1    0    0    0    0 -0.00000000000E+00 -0.00000000000E+00 -0.45593999997E+02  0.45594000000E+02  0.51100000000E-03 0.  1.
    9900012    2    1    2    0    0 -0.22443609265E+02  0.63068436436E+01 -0.33311766450E+02  0.50528860097E+02  0.30000000752E+02 0.  0.
         12    1    1    2    0    0  0.22443609265E+02 -0.63068436436E+01  0.33311766450E+02  0.40659139903E+02  0.00000000000E+00 0. -1.
         11    1    3    3    0    0 -0.64230754711E+01  0.24554692762E+01 -0.49913278461E+01  0.84969748619E+01  0.51100000000E-03 0. -1.
        -11    1    3    3    0    0 -0.11051846965E+02  0.12770244203E+02 -0.26846077934E+02  0.31716468262E+02  0.51100000000E-03 0.  1.
         12    1    3    3    0    0 -0.49686868292E+01 -0.89188698353E+01 -0.14743606698E+01  0.10315416973E+02  0.00000000000E+00 0. -1.
</event>
<event>
 7    1  0.5642630E-013  0.5052886E+02  0.7816164E-02  0.1300439E+00
        -11   -1    0    0    0    0  0.00000000000E+00  0.00000000000E+00  0.45593999997E+02  0.45594000000E+02  0.51100000000E-03 0.  1.
         11   -1    0    0    0    0 -0.00000000000E+00 -0.00000000000E+00 -0.45593999997E+02  0.45594000000E+02  0.51100000000E-03 0. -1.
    9900012    2    1    2    0    0 -0.24200065923E+02  0.65278120228E+01  0.32014222520E+02  0.50528856329E+02  0.29999989298E+02 0.  0.
         12    1    1    2    0    0  0.24200065923E+02 -0.65278120228E+01 -0.32014222520E+02  0.40659143671E+02  0.00000000000E+00 0. -1.
         11    1    3    3    0    0 -0.96946938078E+01  0.24599548955E+01  0.18550293153E+02  0.21074910259E+02  0.51100000000E-03 0. -1.
        -11    1    3    3    0    0 -0.58401236222E+01  0.15432028187E+01  0.18260030109E+02  0.19233232144E+02  0.51100000000E-03 0.  1.
         12    1    3    3    0    0 -0.86652484933E+01  0.25246543086E+01 -0.47961007421E+01  0.10220713926E+02  0.00000000000E+00 0. -1.
</event>
<event>
 7    1  0.5642630E-013  0.5052888E+02  0.7816164E-02  0.1300439E+00
        -11   -1    0    0    0    0  0.00000000000E+00  0.00000000000E+00  0.45593999997E+02  0.45594000000E+02  0.51100000000E-03 0.  1.
         11   -1    0    0    0    0 -0.00000000000E+00 -0.00000000000E+00 -0.45593999997E+02  0.45594000000E+02  0.51100000000E-03 0. -1.
    9900012    2    1    2    0    0 -0.28142475023E+02 -0.19708279799E+02  0.21742789580E+02  0.50528879353E+02  0.30000059280E+02 0.  0.
         12    1    1    2    0    0  0.28142475023E+02  0.19708279799E+02 -0.21742789580E+02  0.40659120647E+02  0.00000000000E+00 0. -1.
         11    1    3    3    0    0 -0.65039156065E+01 -0.10571796153E+02 -0.20340984493E+01  0.12577811768E+02  0.51100000000E-03 0. -1.
        -11    1    3    3    0    0 -0.17628296273E+02 -0.13396110803E+02  0.12963923094E+02  0.25656888283E+02  0.51100000000E-03 0.  1.
         12    1    3    3    0    0 -0.40102631432E+01  0.42596271562E+01  0.10812964936E+02  0.12294179301E+02  0.00000000000E+00 0. -1.
</event>
<event>
 7    1  0.5642630E-013  0.5052886E+02  0.7816164E-02  0.1300439E+00
        -11   -1    0    0    0    0  0.00000000000E+00  0.00000000000E+00  0.45593999997E+02  0.45594000000E+02  0.51100000000E-03 0. -1.
         11   -1    0    0    0    0 -0.00000000000E+00 -0.00000000000E+00 -0.45593999997E+02  0.45594000000E+02  0.51100000000E-03 0.  1.
    9900012    2    1    2    0    0 -0.18128381831E+02  0.35014149953E+02  0.99265533066E+01  0.50528863446E+02  0.30000010931E+02 0.  0.
         12    1    1    2    0    0  0.18128381831E+02 -0.35014149953E+02 -0.99265533066E+01  0.40659136554E+02  0.00000000000E+00 0. -1.
         11    1    3    3    0    0 -0.14665372661E+01  0.49776678689E+01  0.63521473651E+00  0.52279448150E+01  0.51100000000E-03 0. -1.
        -11    1    3    3    0    0 -0.19760465684E+02  0.23520915055E+02  0.16694921075E+02  0.34963264136E+02  0.51100000000E-03 0.  1.
         12    1    3    3    0    0  0.30986211188E+01  0.65155670288E+01 -0.74035825050E+01  0.10337654495E+02  0.00000000000E+00 0. -1.
</event>
<event>
 7    1  0.5642630E-013  0.5052886E+02  0.7816164E-02  0.1300439E+00
        -11   -1    0    0    0    0  0.00000000000E+00  0.00000000000E+00  0.45593999997E+02  0.45594000000E+02  0.51100000000E-03 0.  1.
         11   -1    0    0    0    0 -0.00000000000E+00 -0.00000000000E+00 -0.45593999997E+02  0.45594000000E+02  0.51100000000E-03 0. -1.
    9900012    2    1    2    0    0 -0.26943004431E+02  0.25885837202E+01  0.30340396553E+02  0.50528856915E+02  0.29999991079E+02 0.  0.
         12    1    1    2    0    0  0.26943004431E+02 -0.25885837202E+01 -0.30340396553E+02  0.40659143085E+02  0.00000000000E+00 0. -1.
         11    1    3    3    0    0 -0.10016962666E+02  0.89257122464E+01  0.15549275058E+02  0.20537473926E+02  0.51100000000E-03 0. -1.
        -11    1    3    3    0    0 -0.19005183873E-01 -0.19608315017E+01  0.12175447365E+02  0.12332345283E+02  0.51100000000E-03 0.  1.
         12    1    3    3    0    0 -0.16907036580E+02 -0.43762970245E+01  0.26156741303E+01  0.17659037707E+02  0.00000000000E+00 0. -1.
</event>
<event>
 7    1  0.5642630E-013  0.5052886E+02  0.7816164E-02  0.1300439E+00
        -11   -1    0    0    0    0  0.00000000000E+00  0.00000000000E+00  0.45593999997E+02  0.45594000000E+02  0.51100000000E-03 0.  1.
         11   -1    0    0    0    0 -0.00000000000E+00 -0.00000000000E+00 -0.45593999997E+02  0.45594000000E+02  0.51100000000E-03 0. -1.
    9900012    2    1    2    0    0  0.23409608821E+02  0.23912692741E+02  0.23094138000E+02  0.50528857495E+02  0.29999992841E+02 0.  0.
         12    1    1    2    0    0 -0.23409608821E+02 -0.23912692741E+02 -0.23094138000E+02  0.40659142505E+02  0.00000000000E+00 0. -1.
         11    1    3    3    0    0  0.59850342824E+01 -0.15212670264E+01  0.22301493486E+00  0.61793708943E+01  0.51100000000E-03 0. -1.
        -11    1    3    3    0    0  0.17850132044E+02  0.66376344085E+01  0.13488410658E+02  0.23337151216E+02  0.51100000000E-03 0.  1.
         12    1    3    3    0    0 -0.42555750509E+00  0.18796325359E+02  0.93827124072E+01  0.21012335385E+02  0.00000000000E+00 0. -1.
</event>
<event>
 7    1  0.5642630E-013  0.5052886E+02  0.7816164E-02  0.1300439E+00
        -11   -1    0    0    0    0  0.00000000000E+00  0.00000000000E+00  0.45593999997E+02  0.45594000000E+02  0.51100000000E-03 0. -1.
         11   -1    0    0    0    0 -0.00000000000E+00 -0.00000000000E+00 -0.45593999997E+02  0.45594000000E+02  0.51100000000E-03 0.  1.
    9900012    2    1    2    0    0  0.19321081045E+02 -0.30854528784E+02  0.18106900485E+02  0.50528856325E+02  0.29999989285E+02 0.  0.
         12    1    1    2    0    0 -0.19321081045E+02  0.30854528784E+02 -0.18106900485E+02  0.40659143675E+02  0.00000000000E+00 0. -1.
         11    1    3    3    0    0 -0.49656009143E+01 -0.44882145825E+01 -0.19987039758E+00  0.66963580412E+01  0.51100000000E-03 0. -1.
        -11    1    3    3    0    0  0.10473938813E+00 -0.95701755871E+01  0.86138347052E+00  0.96094335344E+01  0.51100000000E-03 0.  1.
        -12    1    3    3    0    0  0.24181942571E+02 -0.16796138614E+02  0.17445387413E+02  0.34223064749E+02  0.00000000000E+00 0.  1.
</event>
<event>
 7    1  0.5642630E-013  0.5052886E+02  0.7816164E-02  0.1300439E+00
        -11   -1    0    0    0    0  0.00000000000E+00  0.00000000000E+00  0.45593999997E+02  0.45594000000E+02  0.51100000000E-03 0. -1.
         11   -1    0    0    0    0 -0.00000000000E+00 -0.00000000000E+00 -0.45593999997E+02  0.45594000000E+02  0.51100000000E-03 0.  1.
    9900012    2    1    2    0    0  0.28295570889E+02 -0.16421419195E+01 -0.29151839541E+02  0.50528859446E+02  0.29999998771E+02 0.  0.
         12    1    1    2    0    0 -0.28295570889E+02  0.16421419195E+01  0.29151839541E+02  0.40659140554E+02  0.00000000000E+00 0. -1.
         11    1    3    3    0    0  0.50389149596E+01 -0.16149070734E+01 -0.13542194070E+02  0.14539243767E+02  0.51100000000E-03 0. -1.
        -11    1    3    3    0    0  0.17893670199E+02  0.59614251033E+01 -0.19439133000E+02  0.27085086569E+02  0.51100000000E-03 0.  1.
        -12    1    3    3    0    0  0.53629857306E+01 -0.59886599494E+01  0.38294875285E+01  0.89045291098E+01  0.00000000000E+00 0.  1.
</event>
<event>
 7    1  0.5642630E-013  0.5052885E+02  0.7816164E-02  0.1300439E+00
        -11   -1    0    0    0    0  0.00000000000E+00  0.00000000000E+00  0.45593999997E+02  0.45594000000E+02  0.51100000000E-03 0.  1.
         11   -1    0    0    0    0 -0.00000000000E+00 -0.00000000000E+00 -0.45593999997E+02  0.45594000000E+02  0.51100000000E-03 0. -1.
    9900012    2    1    2    0    0  0.12521294453E+02 -0.58173030887E+01  0.38243208284E+02  0.50528845928E+02  0.29999957683E+02 0.  0.
         12    1    1    2    0    0 -0.12521294453E+02  0.58173030887E+01 -0.38243208284E+02  0.40659154072E+02  0.00000000000E+00 0. -1.
         11    1    3    3    0    0  0.27305483806E+01  0.73671364180E+01  0.60323278419E+01  0.99055324397E+01  0.51100000000E-03 0. -1.
        -11    1    3    3    0    0  0.50552994849E+01 -0.46155892448E+01  0.29751481804E+02  0.30528845159E+02  0.51100000000E-03 0.  1.
         12    1    3    3    0    0  0.47354465871E+01 -0.85688502618E+01  0.24593986378E+01  0.10094468329E+02  0.00000000000E+00 0. -1.
</event>
<event>
 7    1  0.5642630E-013  0.5052887E+02  0.7816164E-02  0.1300439E+00
        -11   -1    0    0    0    0  0.00000000000E+00  0.00000000000E+00  0.45593999997E+02  0.45594000000E+02  0.51100000000E-03 0.  1.
         11   -1    0    0    0    0 -0.00000000000E+00 -0.00000000000E+00 -0.45593999997E+02  0.45594000000E+02  0.51100000000E-03 0. -1.
    9900012    2    1    2    0    0 -0.39953173971E+02  0.31011195981E+01 -0.68769304695E+01  0.50528865407E+02  0.30000016892E+02 0.  0.
         12    1    1    2    0    0  0.39953173971E+02 -0.31011195981E+01  0.68769304695E+01  0.40659134593E+02  0.00000000000E+00 0. -1.
         11    1    3    3    0    0 -0.69186828284E+01 -0.62620271231E+01 -0.62964256701E+01  0.11257270195E+02  0.51100000000E-03 0. -1.
        -11    1    3    3    0    0 -0.15317143089E+01 -0.32336307128E+01 -0.37656641496E+01  0.51944916074E+01  0.51100000000E-03 0.  1.
        -12    1    3    3    0    0 -0.31502776834E+02  0.12596777434E+02  0.31851593502E+01  0.34077103604E+02  0.00000000000E+00 0.  1.
</event>
<event>
 7    1  0.5642630E-013  0.5052885E+02  0.7816164E-02  0.1300439E+00
        -11   -1    0    0    0    0  0.00000000000E+00  0.00000000000E+00  0.45593999997E+02  0.45594000000E+02  0.51100000000E-03 0.  1.
         11   -1    0    0    0    0 -0.00000000000E+00 -0.00000000000E+00 -0.45593999997E+02  0.45594000000E+02  0.51100000000E-03 0. -1.
    9900012    2    1    2    0    0 -0.11031632801E+01 -0.37163613891E+02  0.16456463298E+02  0.50528851572E+02  0.29999974838E+02 0.  0.
         12    1    1    2    0    0  0.11031632801E+01  0.37163613891E+02 -0.16456463298E+02  0.40659148428E+02  0.00000000000E+00 0. -1.
         11    1    3    3    0    0 -0.57862116189E+00  0.32683328487E+01 -0.13520803953E+01  0.35839815450E+01  0.51100000000E-03 0. -1.
        -11    1    3    3    0    0 -0.47770381477E+01 -0.11374144148E+02  0.11588942386E+02  0.16926158290E+02  0.51100000000E-03 0.  1.
         12    1    3    3    0    0  0.42524960295E+01 -0.29057802592E+02  0.62196013069E+01  0.30018711737E+02  0.00000000000E+00 0. -1.
</event>
<event>
 7    1  0.5642630E-013  0.5052885E+02  0.7816164E-02  0.1300439E+00
        -11   -1    0    0    0    0  0.00000000000E+00  0.00000000000E+00  0.45593999997E+02  0.45594000000E+02  0.51100000000E-03 0.  1.
         11   -1    0    0    0    0 -0.00000000000E+00 -0.00000000000E+00 -0.45593999997E+02  0.45594000000E+02  0.51100000000E-03 0. -1.
    9900012    2    1    2    0    0  0.22434438295E+02 -0.24880976224E+02 -0.23039077528E+02  0.50528854746E+02  0.29999984486E+02 0.  0.
         12    1    1    2    0    0 -0.22434438295E+02  0.24880976224E+02  0.23039077528E+02  0.40659145254E+02  0.00000000000E+00 0. -1.
         11    1    3    3    0    0  0.98229430570E+01 -0.11024195870E+02  0.21643192152E+01  0.14923383759E+02  0.51100000000E-03 0. -1.
        -11    1    3    3    0    0 -0.75103636967E-01 -0.56517757364E+00  0.23883689351E+01  0.24554780955E+01  0.51100000000E-03 0.  1.
         12    1    3    3    0    0  0.12686598874E+02 -0.13291602781E+02 -0.27591765678E+02  0.33149992892E+02  0.00000000000E+00 0. -1.
</event>
<event>
 7    1  0.5642630E-013  0.5052887E+02  0.7816164E-02  0.1300439E+00
        -11   -1    0    0    0    0  0.00000000000E+00  0.00000000000E+00  0.45593999997E+02  0.45594000000E+02  0.51100000000E-03 0.  1.
         11   -1    0    0    0    0 -0.00000000000E+00 -0.00000000000E+00 -0.45593999997E+02  0.45594000000E+02  0.51100000000E-03 0. -1.
    9900012    2    1    2    0    0  0.45831162813E+01  0.30889483301E+02 -0.26038428559E+02  0.50528869472E+02  0.30000029248E+02 0.  0.
         12    1    1    2    0    0 -0.45831162813E+01 -0.30889483301E+02  0.26038428559E+02  0.40659130528E+02  0.00000000000E+00 0. -1.
         11    1    3    3    0    0 -0.30878899159E+01 -0.31415086306E+01  0.82452304791E+00  0.44815152712E+01  0.51100000000E-03 0. -1.
        -11    1    3    3    0    0 -0.86926767927E-01  0.61215920005E+01  0.57347934481E+00  0.61490099776E+01  0.51100000000E-03 0.  1.
         12    1    3    3    0    0  0.77579329651E+01  0.27909399931E+02 -0.27436430952E+02  0.39898344223E+02  0.00000000000E+00 0. -1.
</event>
<event>
 7    1  0.5642630E-013  0.5052885E+02  0.7816164E-02  0.1300439E+00
        -11   -1    0    0    0    0  0.00000000000E+00  0.00000000000E+00  0.45593999997E+02  0.45594000000E+02  0.51100000000E-03 0. -1.
         11   -1    0    0    0    0 -0.00000000000E+00 -0.00000000000E+00 -0.45593999997E+02  0.45594000000E+02  0.51100000000E-03 0.  1.
    9900012    2    1    2    0    0 -0.37007186265E+02 -0.13768434678E+02  0.96986949620E+01  0.50528852042E+02  0.29999976266E+02 0.  0.
         12    1    1    2    0    0  0.37007186265E+02  0.13768434678E+02 -0.96986949620E+01  0.40659147958E+02  0.00000000000E+00 0. -1.
         11    1    3    3    0    0  0.40995183811E+01 -0.37443420349E+01 -0.24307224130E+01  0.60609042181E+01  0.51100000000E-03 0. -1.
        -11    1    3    3    0    0 -0.77517711398E+01 -0.45270087718E+01  0.25427127061E+01  0.93300135258E+01  0.51100000000E-03 0.  1.
        -12    1    3    3    0    0 -0.33354933506E+02 -0.54970838710E+01  0.95867046689E+01  0.35137934298E+02  0.00000000000E+00 0.  1.
</event>
<event>
 7    1  0.5642630E-013  0.5052888E+02  0.7816164E-02  0.1300439E+00
        -11   -1    0    0    0    0  0.00000000000E+00  0.00000000000E+00  0.45593999997E+02  0.45594000000E+02  0.51100000000E-03 0.  1.
         11   -1    0    0    0    0 -0.00000000000E+00 -0.00000000000E+00 -0.45593999997E+02  0.45594000000E+02  0.51100000000E-03 0. -1.
    9900012    2    1    2    0    0  0.28222026556E+02 -0.87022283829E+01  0.27945534101E+02  0.50528875096E+02  0.30000046341E+02 0.  0.
         12    1    1    2    0    0 -0.28222026556E+02  0.87022283829E+01 -0.27945534101E+02  0.40659124904E+02  0.00000000000E+00 0. -1.
         11    1    3    3    0    0  0.57084061220E+01 -0.41545767689E+01 -0.56077983341E+00  0.70824348119E+01  0.51100000000E-03 0. -1.
        -11    1    3    3    0    0  0.44901359797E+01  0.42212169831E+01 -0.23968057465E+01  0.66124633823E+01  0.51100000000E-03 0.  1.
         12    1    3    3    0    0  0.18023484455E+02 -0.87688685971E+01  0.30903119681E+02  0.36833976902E+02  0.00000000000E+00 0. -1.
</event>
<event>
 7    1  0.5642630E-013  0.5052881E+02  0.7816164E-02  0.1300439E+00
        -11   -1    0    0    0    0  0.00000000000E+00  0.00000000000E+00  0.45593999997E+02  0.45594000000E+02  0.51100000000E-03 0. -1.
         11   -1    0    0    0    0 -0.00000000000E+00 -0.00000000000E+00 -0.45593999997E+02  0.45594000000E+02  0.51100000000E-03 0.  1.
    9900012    2    1    2    0    0  0.37281171328E+02  0.15707175185E+02 -0.40704424058E+01  0.50528811749E+02  0.29999853792E+02 0.  0.
         12    1    1    2    0    0 -0.37281171328E+02 -0.15707175185E+02  0.40704424058E+01  0.40659188251E+02  0.00000000000E+00 0. -1.
         11    1    3    3    0    0  0.12266327033E+02 -0.15635067902E+01  0.25707196028E+01  0.12629961675E+02  0.51100000000E-03 0. -1.
        -11    1    3    3    0    0  0.10826592695E+02  0.69070884224E+01  0.79123555103E+01  0.15084042888E+02  0.51100000000E-03 0.  1.
        -12    1    3    3    0    0  0.14188251599E+02  0.10363593553E+02 -0.14553517519E+02  0.22814807186E+02  0.00000000000E+00 0.  1.
</event>
<event>
 7    1  0.5642630E-013  0.5052886E+02  0.7816164E-02  0.1300439E+00
        -11   -1    0    0    0    0  0.00000000000E+00  0.00000000000E+00  0.45593999997E+02  0.45594000000E+02  0.51100000000E-03 0. -1.
         11   -1    0    0    0    0 -0.00000000000E+00 -0.00000000000E+00 -0.45593999997E+02  0.45594000000E+02  0.51100000000E-03 0.  1.
    9900012    2    1    2    0    0 -0.22617309257E+02 -0.30382869997E+02 -0.14781896582E+02  0.50528856700E+02  0.29999990426E+02 0.  0.
         12    1    1    2    0    0  0.22617309257E+02  0.30382869997E+02  0.14781896582E+02  0.40659143300E+02  0.00000000000E+00 0. -1.
         11    1    3    3    0    0 -0.14250112071E+02 -0.19520960940E+02 -0.13473700971E+02  0.27670819074E+02  0.51100000000E-03 0. -1.
        -11    1    3    3    0    0 -0.13621135330E+02 -0.10476394972E+02 -0.27347052383E+01  0.17400252650E+02  0.51100000000E-03 0.  1.
         12    1    3    3    0    0  0.52539381441E+01 -0.38551408524E+00  0.14265096281E+01  0.54577849766E+01  0.00000000000E+00 0. -1.
</event>
<event>
 7    1  0.5642630E-013  0.5052885E+02  0.7816164E-02  0.1300439E+00
        -11   -1    0    0    0    0  0.00000000000E+00  0.00000000000E+00  0.45593999997E+02  0.45594000000E+02  0.51100000000E-03 0.  1.
         11   -1    0    0    0    0 -0.00000000000E+00 -0.00000000000E+00 -0.45593999997E+02  0.45594000000E+02  0.51100000000E-03 0. -1.
    9900012    2    1    2    0    0  0.24387057572E+02  0.23928060332E+02  0.22042809746E+02  0.50528854537E+02  0.29999983851E+02 0.  0.
         12    1    1    2    0    0 -0.24387057572E+02 -0.23928060332E+02 -0.22042809746E+02  0.40659145463E+02  0.00000000000E+00 0. -1.
         11    1    3    3    0    0  0.32524511770E+01  0.17612438045E+02  0.76353568163E+01  0.19469850707E+02  0.51100000000E-03 0. -1.
        -11    1    3    3    0    0  0.47510029950E+01  0.92718681026E+01  0.83201488298E+01  0.13332833322E+02  0.51100000000E-03 0.  1.
         12    1    3    3    0    0  0.16383603400E+02 -0.29562458164E+01  0.60873041000E+01  0.17726170509E+02  0.00000000000E+00 0. -1.
</event>
<event>
 7    1  0.5642630E-013  0.5052885E+02  0.7816164E-02  0.1300439E+00
        -11   -1    0    0    0    0  0.00000000000E+00  0.00000000000E+00  0.45593999997E+02  0.45594000000E+02  0.51100000000E-03 0.  1.
         11   -1    0    0    0    0 -0.00000000000E+00 -0.00000000000E+00 -0.45593999997E+02  0.45594000000E+02  0.51100000000E-03 0. -1.
    9900012    2    1    2    0    0 -0.15605800659E+02  0.17602718404E+02  0.33162781966E+02  0.50528845838E+02  0.29999957410E+02 0.  0.
         12    1    1    2    0    0  0.15605800659E+02 -0.17602718404E+02 -0.33162781966E+02  0.40659154162E+02  0.00000000000E+00 0. -1.
         11    1    3    3    0    0  0.14377616803E+01  0.19135997182E+01 -0.22680824893E+01  0.32974567428E+01  0.51100000000E-03 0. -1.
        -11    1    3    3    0    0 -0.19451499038E+01  0.11908269327E+02  0.50196571346E+01  0.13068567042E+02  0.51100000000E-03 0.  1.
         12    1    3    3    0    0 -0.15098412436E+02  0.37808493586E+01  0.30411207321E+02  0.34162822054E+02  0.00000000000E+00 0. -1.
</event>
<event>
 7    1  0.5642630E-013  0.5052887E+02  0.7816164E-02  0.1300439E+00
        -11   -1    0    0    0    0  0.00000000000E+00  0.00000000000E+00  0.45593999997E+02  0.45594000000E+02  0.51100000000E-03 0. -1.
         11   -1    0    0    0    0 -0.00000000000E+00 -0.00000000000E+00 -0.45593999997E+02  0.45594000000E+02  0.51100000000E-03 0.  1.
    9900012    2    1    2    0    0 -0.88575048185E+01  0.64916567518E+01 -0.39148026142E+02  0.50528868801E+02  0.30000027208E+02 0.  0.
         12    1    1    2    0    0  0.88575048185E+01 -0.64916567518E+01  0.39148026142E+02  0.40659131199E+02  0.00000000000E+00 0. -1.
         11    1    3    3    0    0 -0.10536636435E+02  0.34780664701E+01 -0.51187874554E+01  0.12219641526E+02  0.51100000000E-03 0. -1.
        -11    1    3    3    0    0 -0.35651488784E+01  0.87099120522E+01 -0.22832684808E+02  0.24696241623E+02  0.51100000000E-03 0.  1.
        -12    1    3    3    0    0  0.52442804952E+01 -0.56963217706E+01 -0.11196553879E+02  0.13612985653E+02  0.00000000000E+00 0.  1.
</event>
<event>
 7    1  0.7025915E-013  0.5052886E+02  0.7816164E-02  0.1300439E+00
        -11   -1    0    0    0    0  0.00000000000E+00  0.00000000000E+00  0.45593999997E+02  0.45594000000E+02  0.51100000000E-03 0. -1.
         11   -1    0    0    0    0 -0.00000000000E+00 -0.00000000000E+00 -0.45593999997E+02  0.45594000000E+02  0.51100000000E-03 0.  1.
    9900012    2    1    2    0    0  0.76701241847E+01  0.38511342537E+02 -0.10545675463E+02  0.50528861052E+02  0.30000003654E+02 0.  0.
         12    1    1    2    0    0 -0.76701241847E+01 -0.38511342537E+02  0.10545675463E+02  0.40659138948E+02  0.00000000000E+00 0. -1.
         11    1    3    3    0    0 -0.65935523944E+01  0.26245053682E+01  0.81000899763E+00  0.71427639218E+01  0.51100000000E-03 0. -1.
        -11    1    3    3    0    0  0.96372439500E+01  0.70684883638E+01  0.30549269097E+00  0.11955472586E+02  0.51100000000E-03 0.  1.
        -12    1    3    3    0    0  0.46264326290E+01  0.28818348805E+02 -0.11661177152E+02  0.31430624545E+02  0.00000000000E+00 0.  1.
</event>
<event>
 7    1  0.5642630E-013  0.5052886E+02  0.7816164E-02  0.1300439E+00
        -11   -1    0    0    0    0  0.00000000000E+00  0.00000000000E+00  0.45593999997E+02  0.45594000000E+02  0.51100000000E-03 0. -1.
         11   -1    0    0    0    0 -0.00000000000E+00 -0.00000000000E+00 -0.45593999997E+02  0.45594000000E+02  0.51100000000E-03 0.  1.
    9900012    2    1    2    0    0 -0.16650842082E+02 -0.19941212809E+02 -0.31277204538E+02  0.50528855468E+02  0.29999986681E+02 0.  0.
         12    1    1    2    0    0  0.16650842082E+02  0.19941212809E+02  0.31277204538E+02  0.40659144532E+02  0.00000000000E+00 0. -1.
         11    1    3    3    0    0 -0.21494158187E+02 -0.14454788382E+02 -0.19915430505E+02  0.32673599676E+02  0.51100000000E-03 0. -1.
        -11    1    3    3    0    0 -0.21626797206E+01 -0.61594454475E+01 -0.70166064663E+01  0.95837737013E+01  0.51100000000E-03 0.  1.
        -12    1    3    3    0    0  0.70059958252E+01  0.67302102018E+00 -0.43451675667E+01  0.82714820909E+01  0.00000000000E+00 0.  1.
</event>
<event>
 7    1  0.5642630E-013  0.5052886E+02  0.7816164E-02  0.1300439E+00
        -11   -1    0    0    0    0  0.00000000000E+00  0.00000000000E+00  0.45593999997E+02  0.45594000000E+02  0.51100000000E-03 0.  1.
         11   -1    0    0    0    0 -0.00000000000E+00 -0.00000000000E+00 -0.45593999997E+02  0.45594000000E+02  0.51100000000E-03 0. -1.
    9900012    2    1    2    0    0  0.23370798592E+02  0.18048860445E+02  0.27950133398E+02  0.50528861455E+02  0.30000004880E+02 0.  0.
         12    1    1    2    0    0 -0.23370798592E+02 -0.18048860445E+02 -0.27950133398E+02  0.40659138545E+02  0.00000000000E+00 0. -1.
         11    1    3    3    0    0  0.16295569687E+02  0.90633781634E+01  0.23537951843E+02  0.30028746101E+02  0.51100000000E-03 0.  1.
        -11    1    3    3    0    0 -0.35612456831E+01  0.22108367852E+01  0.64834189171E+01  0.77204268808E+01  0.51100000000E-03 0. -1.
         12    1    3    3    0    0  0.10636474588E+02  0.67746454966E+01 -0.20712373624E+01  0.12779688473E+02  0.00000000000E+00 0. -1.
</event>
<event>
 7    1  0.5642630E-013  0.5052887E+02  0.7816164E-02  0.1300439E+00
        -11   -1    0    0    0    0  0.00000000000E+00  0.00000000000E+00  0.45593999997E+02  0.45594000000E+02  0.51100000000E-03 0.  1.
         11   -1    0    0    0    0 -0.00000000000E+00 -0.00000000000E+00 -0.45593999997E+02  0.45594000000E+02  0.51100000000E-03 0. -1.
    9900012    2    1    2    0    0  0.19389393535E+02  0.20336497139E+02  0.29387807147E+02  0.50528869334E+02  0.30000028829E+02 0.  0.
         12    1    1    2    0    0 -0.19389393535E+02 -0.20336497139E+02 -0.29387807147E+02  0.40659130666E+02  0.00000000000E+00 0. -1.
         11    1    3    3    0    0  0.28371256658E+01 -0.16188504529E+01 -0.45071244447E+01  0.55663389992E+01  0.51100000000E-03 0. -1.
        -11    1    3    3    0    0  0.46398059062E+01  0.47013512678E+01  0.22035906272E+01  0.69632115079E+01  0.51100000000E-03 0.  1.
        -12    1    3    3    0    0  0.11912461963E+02  0.17253996324E+02  0.31691340965E+02  0.37999318827E+02  0.00000000000E+00 0.  1.
</event>
<event>
 7    1  0.5642630E-013  0.5052886E+02  0.7816164E-02  0.1300439E+00
        -11   -1    0    0    0    0  0.00000000000E+00  0.00000000000E+00  0.45593999997E+02  0.45594000000E+02  0.51100000000E-03 0.  1.
         11   -1    0    0    0    0 -0.00000000000E+00 -0.00000000000E+00 -0.45593999997E+02  0.45594000000E+02  0.51100000000E-03 0. -1.
    9900012    2    1    2    0    0 -0.78659758223E+01 -0.18647336641E+02  0.35264271250E+02  0.50528861221E+02  0.30000004169E+02 0.  0.
         12    1    1    2    0    0  0.78659758223E+01  0.18647336641E+02 -0.35264271250E+02  0.40659138779E+02  0.00000000000E+00 0. -1.
         11    1    3    3    0    0  0.17027269109E+01 -0.75790210764E+01  0.95566393292E+00  0.78265019787E+01  0.51100000000E-03 0. -1.
        -11    1    3    3    0    0  0.53354869249E+00 -0.14298951503E+02  0.15394968660E+02  0.21017843576E+02  0.51100000000E-03 0.  1.
        -12    1    3    3    0    0 -0.10102251426E+02  0.32306359389E+01  0.18913638657E+02  0.21684515666E+02  0.00000000000E+00 0.  1.
</event>
<event>
 7    1  0.5642630E-013  0.5052886E+02  0.7816164E-02  0.1300439E+00
        -11   -1    0    0    0    0  0.00000000000E+00  0.00000000000E+00  0.45593999997E+02  0.45594000000E+02  0.51100000000E-03 0.  1.
         11   -1    0    0    0    0 -0.00000000000E+00 -0.00000000000E+00 -0.45593999997E+02  0.45594000000E+02  0.51100000000E-03 0. -1.
    9900012    2    1    2    0    0 -0.11286115371E+02  0.10701954062E+02  0.37566706319E+02  0.50528860258E+02  0.30000001240E+02 0.  0.
         12    1    1    2    0    0  0.11286115371E+02 -0.10701954062E+02 -0.37566706319E+02  0.40659139742E+02  0.00000000000E+00 0. -1.
         11    1    3    3    0    0 -0.62712732637E+01  0.12440818165E+02  0.12116331028E+02  0.18463702305E+02  0.51100000000E-03 0. -1.
        -11    1    3    3    0    0  0.20960371981E+01  0.54018354498E+01  0.13596683306E+01  0.59516297258E+01  0.51100000000E-03 0.  1.
        -12    1    3    3    0    0 -0.71108793052E+01 -0.71406995532E+01  0.24090706961E+02  0.26113528227E+02  0.00000000000E+00 0.  1.
</event>
<event>
 7    1  0.5642630E-013  0.5052887E+02  0.7816164E-02  0.1300439E+00
        -11   -1    0    0    0    0  0.00000000000E+00  0.00000000000E+00  0.45593999997E+02  0.45594000000E+02  0.51100000000E-03 0. -1.
         11   -1    0    0    0    0 -0.00000000000E+00 -0.00000000000E+00 -0.45593999997E+02  0.45594000000E+02  0.51100000000E-03 0.  1.
    9900012    2    1    2    0    0  0.31111853305E+02 -0.77538376225E+01  0.25001908860E+02  0.50528869899E+02  0.30000030544E+02 0.  0.
         12    1    1    2    0    0 -0.31111853305E+02  0.77538376225E+01 -0.25001908860E+02  0.40659130101E+02  0.00000000000E+00 0. -1.
         11    1    3    3    0    0  0.14918582212E+02 -0.75440001500E+01  0.14610153195E+02  0.22202085716E+02  0.51100000000E-03 0. -1.
        -11    1    3    3    0    0  0.20626301631E+02 -0.15123914131E+01  0.11374206221E+02  0.23603055188E+02  0.51100000000E-03 0.  1.
        -12    1    3    3    0    0 -0.44330305383E+01  0.13025539407E+01 -0.98245055694E+00  0.47237289951E+01  0.00000000000E+00 0.  1.
</event>
<event>
 7    1  0.5642630E-013  0.5052885E+02  0.7816164E-02  0.1300439E+00
        -11   -1    0    0    0    0  0.00000000000E+00  0.00000000000E+00  0.45593999997E+02  0.45594000000E+02  0.51100000000E-03 0.  1.
         11   -1    0    0    0    0 -0.00000000000E+00 -0.00000000000E+00 -0.45593999997E+02  0.45594000000E+02  0.51100000000E-03 0. -1.
    9900012    2    1    2    0    0  0.14130023576E+02  0.27067920854E+02  0.26848395563E+02  0.50528852814E+02  0.29999978612E+02 0.  0.
         12    1    1    2    0    0 -0.14130023576E+02 -0.27067920854E+02 -0.26848395563E+02  0.40659147186E+02  0.00000000000E+00 0. -1.
         11    1    3    3    0    0  0.47272385882E+01  0.41636229188E+01  0.16295279967E+02  0.17470509149E+02  0.51100000000E-03 0. -1.
        -11    1    3    3    0    0  0.32613918136E+01  0.24179008079E+02  0.11014688087E+02  0.26769095281E+02  0.51100000000E-03 0.  1.
         12    1    3    3    0    0  0.61413931739E+01 -0.12747101435E+01 -0.46157249097E+00  0.62892483836E+01  0.00000000000E+00 0. -1.
</event>
<event>
 7    1  0.5642630E-013  0.5052890E+02  0.7816164E-02  0.1300439E+00
        -11   -1    0    0    0    0  0.00000000000E+00  0.00000000000E+00  0.45593999997E+02  0.45594000000E+02  0.51100000000E-03 0. -1.
         11   -1    0    0    0    0 -0.00000000000E+00 -0.00000000000E+00 -0.45593999997E+02  0.45594000000E+02  0.51100000000E-03 0.  1.
    9900012    2    1    2    0    0  0.37794329491E+02  0.49625859306E+01  0.14146522807E+02  0.50528896366E+02  0.30000110995E+02 0.  0.
         12    1    1    2    0    0 -0.37794329491E+02 -0.49625859306E+01 -0.14146522807E+02  0.40659103634E+02  0.00000000000E+00 0. -1.
         11    1    3    3    0    0  0.15804333029E+02  0.33742923293E+01  0.41275042918E+01  0.16679301039E+02  0.51100000000E-03 0. -1.
        -11    1    3    3    0    0  0.26956002070E+02 -0.43371320757E+00  0.80186530122E+01  0.28126730189E+02  0.51100000000E-03 0.  1.
         12    1    3    3    0    0 -0.49660056085E+01  0.20220068089E+01  0.20003655029E+01  0.57228651377E+01  0.00000000000E+00 0. -1.
</event>
<event>
 7    1  0.5642630E-013  0.5052886E+02  0.7816164E-02  0.1300439E+00
        -11   -1    0    0    0    0  0.00000000000E+00  0.00000000000E+00  0.45593999997E+02  0.45594000000E+02  0.51100000000E-03 0. -1.
         11   -1    0    0    0    0 -0.00000000000E+00 -0.00000000000E+00 -0.45593999997E+02  0.45594000000E+02  0.51100000000E-03 0.  1.
    9900012    2    1    2    0    0 -0.25322232546E+02 -0.26855928530E+02 -0.17050211345E+02  0.50528855085E+02  0.29999985515E+02 0.  0.
         12    1    1    2    0    0  0.25322232546E+02  0.26855928530E+02  0.17050211345E+02  0.40659144915E+02  0.00000000000E+00 0. -1.
         11    1    3    3    0    0  0.40806379525E+00 -0.13479311661E+01  0.60426508628E+01  0.62046002451E+01  0.51100000000E-03 0. -1.
        -11    1    3    3    0    0  0.57225756421E-01 -0.34156541780E+01 -0.43733112500E+01  0.55493981476E+01  0.51100000000E-03 0.  1.
        -12    1    3    3    0    0 -0.25787522098E+02 -0.22092343186E+02 -0.18719550958E+02  0.38774856692E+02  0.00000000000E+00 0.  1.
</event>
<event>
 7    1  0.5642630E-013  0.5052885E+02  0.7816164E-02  0.1300439E+00
        -11   -1    0    0    0    0  0.00000000000E+00  0.00000000000E+00  0.45593999997E+02  0.45594000000E+02  0.51100000000E-03 0.  1.
         11   -1    0    0    0    0 -0.00000000000E+00 -0.00000000000E+00 -0.45593999997E+02  0.45594000000E+02  0.51100000000E-03 0. -1.
    9900012    2    1    2    0    0  0.34994002354E+02 -0.20546849487E+02 -0.25325107079E+01  0.50528845618E+02  0.29999956741E+02 0.  0.
         12    1    1    2    0    0 -0.34994002354E+02  0.20546849487E+02  0.25325107079E+01  0.40659154382E+02  0.00000000000E+00 0. -1.
         11    1    3    3    0    0  0.30922846480E+02 -0.14166086216E+02 -0.12553598398E+02  0.36255941115E+02  0.51100000000E-03 0. -1.
        -11    1    3    3    0    0  0.65743369184E+00  0.33355132036E+00 -0.80032894768E+00  0.10881186645E+01  0.51100000000E-03 0.  1.
        -12    1    3    3    0    0  0.34137221817E+01 -0.67143145912E+01  0.10821416638E+02  0.13184785839E+02  0.00000000000E+00 0.  1.
</event>
<event>
 7    1  0.5642630E-013  0.5052886E+02  0.7816164E-02  0.1300439E+00
        -11   -1    0    0    0    0  0.00000000000E+00  0.00000000000E+00  0.45593999997E+02  0.45594000000E+02  0.51100000000E-03 0. -1.
         11   -1    0    0    0    0 -0.00000000000E+00 -0.00000000000E+00 -0.45593999997E+02  0.45594000000E+02  0.51100000000E-03 0.  1.
    9900012    2    1    2    0    0  0.29408271350E+01  0.31727098140E+02 -0.25256849919E+02  0.50528859719E+02  0.29999999600E+02 0.  0.
         12    1    1    2    0    0 -0.29408271350E+01 -0.31727098140E+02  0.25256849919E+02  0.40659140281E+02  0.00000000000E+00 0. -1.
         11    1    3    3    0    0 -0.30761657450E+01  0.24860319969E+02 -0.74335969555E+01  0.26129612868E+02  0.51100000000E-03 0. -1.
        -11    1    3    3    0    0 -0.30019254214E+01  0.45535367696E+01 -0.15827177905E+01  0.56790183318E+01  0.51100000000E-03 0.  1.
        -12    1    3    3    0    0  0.90189183014E+01  0.23132414011E+01 -0.16240535173E+02  0.18720228519E+02  0.00000000000E+00 0.  1.
</event>
<event>
 7    1  0.5642630E-013  0.5052892E+02  0.7816164E-02  0.1300439E+00
        -11   -1    0    0    0    0  0.00000000000E+00  0.00000000000E+00  0.45593999997E+02  0.45594000000E+02  0.51100000000E-03 0. -1.
         11   -1    0    0    0    0 -0.00000000000E+00 -0.00000000000E+00 -0.45593999997E+02  0.45594000000E+02  0.51100000000E-03 0.  1.
    9900012    2    1    2    0    0  0.26439221623E+02  0.30830775602E+02  0.18950858639E+01  0.50528923342E+02  0.30000192990E+02 0.  0.
         12    1    1    2    0    0 -0.26439221623E+02 -0.30830775602E+02 -0.18950858639E+01  0.40659076658E+02  0.00000000000E+00 0. -1.
         11    1    3    3    0    0 -0.98054002291E+00  0.39353488471E+00  0.11133499071E+01  0.15348865491E+01  0.51100000000E-03 0. -1.
        -11    1    3    3    0    0  0.31981355150E+01 -0.27699427288E+01 -0.59941257008E+01  0.73369064783E+01  0.51100000000E-03 0.  1.
         12    1    3    3    0    0  0.24221626131E+02  0.33207183446E+02  0.67758616577E+01  0.41657130315E+02  0.00000000000E+00 0. -1.
</event>
<event>
 7    1  0.5642630E-013  0.5052887E+02  0.7816164E-02  0.1300439E+00
        -11   -1    0    0    0    0  0.00000000000E+00  0.00000000000E+00  0.45593999997E+02  0.45594000000E+02  0.51100000000E-03 0. -1.
         11   -1    0    0    0    0 -0.00000000000E+00 -0.00000000000E+00 -0.45593999997E+02  0.45594000000E+02  0.51100000000E-03 0.  1.
    9900012    2    1    2    0    0 -0.47890708680E+01 -0.18290956920E+01 -0.40334653659E+02  0.50528867242E+02  0.30000022469E+02 0.  0.
         12    1    1    2    0    0  0.47890708680E+01  0.18290956920E+01  0.40334653659E+02  0.40659132758E+02  0.00000000000E+00 0. -1.
         11    1    3    3    0    0 -0.33678623676E+01 -0.15317716272E+01 -0.91517983504E+01  0.98713846320E+01  0.51100000000E-03 0. -1.
        -11    1    3    3    0    0 -0.42387906269E+01  0.10048613290E+02 -0.27050065644E+02  0.29165870922E+02  0.51100000000E-03 0.  1.
         12    1    3    3    0    0  0.28175821266E+01 -0.10345937355E+02 -0.41327896649E+01  0.11491611688E+02  0.00000000000E+00 0. -1.
</event>
<event>
 7    1  0.5642630E-013  0.5052886E+02  0.7816164E-02  0.1300439E+00
        -11   -1    0    0    0    0  0.00000000000E+00  0.00000000000E+00  0.45593999997E+02  0.45594000000E+02  0.51100000000E-03 0.  1.
         11   -1    0    0    0    0 -0.00000000000E+00 -0.00000000000E+00 -0.45593999997E+02  0.45594000000E+02  0.51100000000E-03 0. -1.
    9900012    2    1    2    0    0 -0.33181930066E+02 -0.10505852480E+01  0.23473843638E+02  0.50528861453E+02  0.30000004871E+02 0.  0.
         12    1    1    2    0    0  0.33181930066E+02  0.10505852480E+01 -0.23473843638E+02  0.40659138547E+02  0.00000000000E+00 0. -1.
         11    1    3    3    0    0 -0.12836034299E+02  0.44051142871E+01  0.94013134386E+01  0.16509194500E+02  0.51100000000E-03 0. -1.
        -11    1    3    3    0    0 -0.89903256228E+01  0.39245288087E+01  0.16398237308E+02  0.19108376913E+02  0.51100000000E-03 0.  1.
         12    1    3    3    0    0 -0.11355570144E+02 -0.93802283438E+01 -0.23257071088E+01  0.14911290039E+02  0.00000000000E+00 0. -1.
</event>
<event>
 7    1  0.5642630E-013  0.5052886E+02  0.7816164E-02  0.1300439E+00
        -11   -1    0    0    0    0  0.00000000000E+00  0.00000000000E+00  0.45593999997E+02  0.45594000000E+02  0.51100000000E-03 0. -1.
         11   -1    0    0    0    0 -0.00000000000E+00 -0.00000000000E+00 -0.45593999997E+02  0.45594000000E+02  0.51100000000E-03 0.  1.
    9900012    2    1    2    0    0 -0.24460303995E+01  0.31510304339E+01 -0.40462987055E+02  0.50528863524E+02  0.30000011168E+02 0.  0.
         12    1    1    2    0    0  0.24460303995E+01 -0.31510304339E+01  0.40462987055E+02  0.40659136476E+02  0.00000000000E+00 0. -1.
         11    1    3    3    0    0 -0.12653519910E+02 -0.31891409630E+01 -0.18637998157E+02  0.22752080383E+02  0.51100000000E-03 0. -1.
        -11    1    3    3    0    0 -0.22210259366E+01 -0.64851730296E+00 -0.95980214789E+00  0.25049453742E+01  0.51100000000E-03 0.  1.
         12    1    3    3    0    0  0.12428515447E+02  0.69886886999E+01 -0.20865186751E+02  0.25271837767E+02  0.00000000000E+00 0. -1.
</event>
<event>
 7    1  0.5642630E-013  0.5052889E+02  0.7816164E-02  0.1300439E+00
        -11   -1    0    0    0    0  0.00000000000E+00  0.00000000000E+00  0.45593999997E+02  0.45594000000E+02  0.51100000000E-03 0.  1.
         11   -1    0    0    0    0 -0.00000000000E+00 -0.00000000000E+00 -0.45593999997E+02  0.45594000000E+02  0.51100000000E-03 0. -1.
    9900012    2    1    2    0    0  0.55127612278E+01 -0.29827648051E+02  0.27075522009E+02  0.50528892574E+02  0.30000099467E+02 0.  0.
         12    1    1    2    0    0 -0.55127612278E+01  0.29827648051E+02 -0.27075522009E+02  0.40659107426E+02  0.00000000000E+00 0. -1.
         11    1    3    3    0    0  0.58429188989E+00 -0.20850985013E+01  0.47934902644E+01  0.52599032262E+01  0.51100000000E-03 0. -1.
        -11    1    3    3    0    0  0.12846187785E+02 -0.27478763216E+02  0.21757453037E+02  0.37329528947E+02  0.51100000000E-03 0.  1.
         12    1    3    3    0    0 -0.79177184467E+01 -0.26378633364E+00  0.52457870810E+00  0.79394604005E+01  0.00000000000E+00 0. -1.
</event>
<event>
 7    1  0.5642630E-013  0.5052887E+02  0.7816164E-02  0.1300439E+00
        -11   -1    0    0    0    0  0.00000000000E+00  0.00000000000E+00  0.45593999997E+02  0.45594000000E+02  0.51100000000E-03 0.  1.
         11   -1    0    0    0    0 -0.00000000000E+00 -0.00000000000E+00 -0.45593999997E+02  0.45594000000E+02  0.51100000000E-03 0. -1.
    9900012    2    1    2    0    0 -0.24453729492E+02 -0.27107878007E+02  0.17898135861E+02  0.50528865683E+02  0.30000017731E+02 0.  0.
         12    1    1    2    0    0  0.24453729492E+02  0.27107878007E+02 -0.17898135861E+02  0.40659134317E+02  0.00000000000E+00 0. -1.
         11    1    3    3    0    0  0.46815710576E+00  0.27152233522E+01  0.23104125130E+00  0.27649573684E+01  0.51100000000E-03 0. -1.
        -11    1    3    3    0    0 -0.20408409324E+02 -0.28423932610E+02  0.22016257183E+02  0.41341730694E+02  0.51100000000E-03 0.  1.
         12    1    3    3    0    0 -0.45134772746E+01 -0.13991687486E+01 -0.43491625742E+01  0.64221776207E+01  0.00000000000E+00 0. -1.
</event>
<event>
 7    1  0.5642630E-013  0.5052884E+02  0.7816164E-02  0.1300439E+00
        -11   -1    0    0    0    0  0.00000000000E+00  0.00000000000E+00  0.45593999997E+02  0.45594000000E+02  0.51100000000E-03 0.  1.
         11   -1    0    0    0    0 -0.00000000000E+00 -0.00000000000E+00 -0.45593999997E+02  0.45594000000E+02  0.51100000000E-03 0. -1.
    9900012    2    1    2    0    0  0.27788297751E+02  0.27472742688E+02  0.11235029322E+02  0.50528844001E+02  0.29999951826E+02 0.  0.
         12    1    1    2    0    0 -0.27788297751E+02 -0.27472742688E+02 -0.11235029322E+02  0.40659155999E+02  0.00000000000E+00 0. -1.
         11    1    3    3    0    0  0.86414814343E+01  0.20510036700E+02  0.14026373308E+01  0.22300318351E+02  0.51100000000E-03 0. -1.
        -11    1    3    3    0    0  0.44578312650E+01  0.10146556690E+02  0.64487182193E+01  0.12822279017E+02  0.51100000000E-03 0.  1.
         12    1    3    3    0    0  0.14688985051E+02 -0.31838507026E+01  0.33836737719E+01  0.15406246633E+02  0.00000000000E+00 0. -1.
</event>
<event>
 7    1  0.5642630E-013  0.5052886E+02  0.7816164E-02  0.1300439E+00
        -11   -1    0    0    0    0  0.00000000000E+00  0.00000000000E+00  0.45593999997E+02  0.45594000000E+02  0.51100000000E-03 0.  1.
         11   -1    0    0    0    0 -0.00000000000E+00 -0.00000000000E+00 -0.45593999997E+02  0.45594000000E+02  0.51100000000E-03 0. -1.
    9900012    2    1    2    0    0  0.10676178957E+02  0.22446293495E+02  0.32176833308E+02  0.50528862153E+02  0.30000006999E+02 0.  0.
         12    1    1    2    0    0 -0.10676178957E+02 -0.22446293495E+02 -0.32176833308E+02  0.40659137847E+02  0.00000000000E+00 0. -1.
         11    1    3    3    0    0 -0.35503004508E+01  0.86061754170E+00 -0.30800595601E+01  0.47782908030E+01  0.51100000000E-03 0. -1.
        -11    1    3    3    0    0 -0.57311274073E+00 -0.15659403824E+01  0.17410235650E+01  0.24107656066E+01  0.51100000000E-03 0.  1.
        -12    1    3    3    0    0  0.14799592148E+02  0.23151616336E+02  0.33515869303E+02  0.43339805743E+02  0.00000000000E+00 0.  1.
</event>
<event>
 7    1  0.5642630E-013  0.5052886E+02  0.7816164E-02  0.1300439E+00
        -11   -1    0    0    0    0  0.00000000000E+00  0.00000000000E+00  0.45593999997E+02  0.45594000000E+02  0.51100000000E-03 0.  1.
         11   -1    0    0    0    0 -0.00000000000E+00 -0.00000000000E+00 -0.45593999997E+02  0.45594000000E+02  0.51100000000E-03 0. -1.
    9900012    2    1    2    0    0 -0.31127307369E+02 -0.24859533175E+02  0.81400339881E+01  0.50528858260E+02  0.29999995167E+02 0.  0.
         12    1    1    2    0    0  0.31127307369E+02  0.24859533175E+02 -0.81400339881E+01  0.40659141740E+02  0.00000000000E+00 0. -1.
         11    1    3    3    0    0 -0.14551950930E+02 -0.13175496009E+02 -0.42620672882E+01  0.20087762165E+02  0.51100000000E-03 0. -1.
        -11    1    3    3    0    0 -0.53941783870E+01 -0.13512499436E+02  0.13472459661E+01  0.14611634865E+02  0.51100000000E-03 0.  1.
        -12    1    3    3    0    0 -0.11181178052E+02  0.18284622704E+01  0.11054855310E+02  0.15829461230E+02  0.00000000000E+00 0.  1.
</event>
<event>
 7    1  0.5642630E-013  0.5052888E+02  0.7816164E-02  0.1300439E+00
        -11   -1    0    0    0    0  0.00000000000E+00  0.00000000000E+00  0.45593999997E+02  0.45594000000E+02  0.51100000000E-03 0.  1.
         11   -1    0    0    0    0 -0.00000000000E+00 -0.00000000000E+00 -0.45593999997E+02  0.45594000000E+02  0.51100000000E-03 0. -1.
    9900012    2    1    2    0    0 -0.33956015709E+02  0.46715402509E+01  0.21870757199E+02  0.50528876650E+02  0.30000051065E+02 0.  0.
         12    1    1    2    0    0  0.33956015709E+02 -0.46715402509E+01 -0.21870757199E+02  0.40659123350E+02  0.00000000000E+00 0. -1.
         11    1    3    3    0    0 -0.40955552068E-01 -0.12768929109E+01  0.25507752592E+01  0.28528209806E+01  0.51100000000E-03 0. -1.
        -11    1    3    3    0    0  0.18172458242E+01  0.41713038453E+01 -0.30536336184E+01  0.54796748710E+01  0.51100000000E-03 0.  1.
        -12    1    3    3    0    0 -0.35732305981E+02  0.17771293165E+01  0.22373615558E+02  0.42196380798E+02  0.00000000000E+00 0.  1.
</event>
<event>
 7    1  0.5642630E-013  0.5052886E+02  0.7816164E-02  0.1300439E+00
        -11   -1    0    0    0    0  0.00000000000E+00  0.00000000000E+00  0.45593999997E+02  0.45594000000E+02  0.51100000000E-03 0. -1.
         11   -1    0    0    0    0 -0.00000000000E+00 -0.00000000000E+00 -0.45593999997E+02  0.45594000000E+02  0.51100000000E-03 0.  1.
    9900012    2    1    2    0    0  0.16649012483E+02 -0.26290121420E+02 -0.26168796711E+02  0.50528855614E+02  0.29999987123E+02 0.  0.
         12    1    1    2    0    0 -0.16649012483E+02  0.26290121420E+02  0.26168796711E+02  0.40659144386E+02  0.00000000000E+00 0. -1.
         11    1    3    3    0    0  0.13900476655E+02 -0.70251711741E+01 -0.31441826025E+01  0.15889058052E+02  0.51100000000E-03 0. -1.
        -11    1    3    3    0    0  0.96339068371E+01 -0.78627203649E+01 -0.12820377124E+02  0.17860475983E+02  0.51100000000E-03 0.  1.
         12    1    3    3    0    0 -0.68853710098E+01 -0.11402229881E+02 -0.10204236985E+02  0.16779321579E+02  0.00000000000E+00 0. -1.
</event>
<event>
 7    1  0.5642630E-013  0.5052886E+02  0.7816164E-02  0.1300439E+00
        -11   -1    0    0    0    0  0.00000000000E+00  0.00000000000E+00  0.45593999997E+02  0.45594000000E+02  0.51100000000E-03 0. -1.
         11   -1    0    0    0    0 -0.00000000000E+00 -0.00000000000E+00 -0.45593999997E+02  0.45594000000E+02  0.51100000000E-03 0.  1.
    9900012    2    1    2    0    0 -0.25059342663E+02  0.74187779086E+00 -0.32010071968E+02  0.50528859025E+02  0.29999997494E+02 0.  0.
         12    1    1    2    0    0  0.25059342663E+02 -0.74187779086E+00  0.32010071968E+02  0.40659140975E+02  0.00000000000E+00 0. -1.
         11    1    3    3    0    0 -0.33093836171E+01 -0.10281345101E+02 -0.10696834079E+02  0.15201326804E+02  0.51100000000E-03 0. -1.
        -11    1    3    3    0    0 -0.16204885534E+02  0.68142616401E+01 -0.22191620722E+02  0.28310784295E+02  0.51100000000E-03 0.  1.
         12    1    3    3    0    0 -0.55450735123E+01  0.42089612515E+01  0.87838283276E+00  0.70167479272E+01  0.00000000000E+00 0. -1.
</event>
<event>
 7    1  0.5642630E-013  0.5052887E+02  0.7816164E-02  0.1300439E+00
        -11   -1    0    0    0    0  0.00000000000E+00  0.00000000000E+00  0.45593999997E+02  0.45594000000E+02  0.51100000000E-03 0. -1.
         11   -1    0    0    0    0 -0.00000000000E+00 -0.00000000000E+00 -0.45593999997E+02  0.45594000000E+02  0.51100000000E-03 0.  1.
    9900012    2    1    2    0    0  0.23564083455E+01 -0.40055377892E+02  0.65710873869E+01  0.50528866367E+02  0.30000019809E+02 0.  0.
         12    1    1    2    0    0 -0.23564083455E+01  0.40055377892E+02 -0.65710873869E+01  0.40659133633E+02  0.00000000000E+00 0. -1.
         11    1    3    3    0    0  0.13793813658E+01 -0.64953599277E+00  0.80872832939E+01  0.82297473410E+01  0.51100000000E-03 0. -1.
        -11    1    3    3    0    0  0.18557695652E-01 -0.91509444594E+00  0.33659235112E+01  0.34881490188E+01  0.51100000000E-03 0.  1.
        -12    1    3    3    0    0  0.95846928403E+00 -0.38490747453E+02 -0.48821194182E+01  0.38810970007E+02  0.00000000000E+00 0.  1.
</event>
<event>
 7    1  0.5642630E-013  0.5052887E+02  0.7816164E-02  0.1300439E+00
        -11   -1    0    0    0    0  0.00000000000E+00  0.00000000000E+00  0.45593999997E+02  0.45594000000E+02  0.51100000000E-03 0.  1.
         11   -1    0    0    0    0 -0.00000000000E+00 -0.00000000000E+00 -0.45593999997E+02  0.45594000000E+02  0.51100000000E-03 0. -1.
    9900012    2    1    2    0    0 -0.30831758000E+02  0.90694002135E+00  0.26490473608E+02  0.50528867771E+02  0.30000024078E+02 0.  0.
         12    1    1    2    0    0  0.30831758000E+02 -0.90694002135E+00 -0.26490473608E+02  0.40659132229E+02  0.00000000000E+00 0. -1.
         11    1    3    3    0    0 -0.12168924830E+02  0.91510544784E+01  0.12467490253E+02  0.19678994971E+02  0.51100000000E-03 0. -1.
        -11    1    3    3    0    0 -0.15921643171E+02  0.26287011895E+01  0.97269452831E+01  0.18842034285E+02  0.51100000000E-03 0.  1.
         12    1    3    3    0    0 -0.27411899993E+01 -0.10872815647E+02  0.42960380715E+01  0.12007838515E+02  0.00000000000E+00 0. -1.
</event>
<event>
 7    1  0.5642630E-013  0.5052886E+02  0.7816164E-02  0.1300439E+00
        -11   -1    0    0    0    0  0.00000000000E+00  0.00000000000E+00  0.45593999997E+02  0.45594000000E+02  0.51100000000E-03 0.  1.
         11   -1    0    0    0    0 -0.00000000000E+00 -0.00000000000E+00 -0.45593999997E+02  0.45594000000E+02  0.51100000000E-03 0. -1.
    9900012    2    1    2    0    0  0.28811474492E+02 -0.24659244238E+02 -0.14662412428E+02  0.50528859244E+02  0.29999998158E+02 0.  0.
         12    1    1    2    0    0 -0.28811474492E+02  0.24659244238E+02  0.14662412428E+02  0.40659140756E+02  0.00000000000E+00 0. -1.
         11    1    3    3    0    0  0.10402768405E+02 -0.73740007936E+01 -0.40811621128E+01  0.13388404036E+02  0.51100000000E-03 0. -1.
        -11    1    3    3    0    0  0.20610762432E+02 -0.12453221582E+02  0.13110248294E+01  0.24116489010E+02  0.51100000000E-03 0.  1.
         12    1    3    3    0    0 -0.22020563442E+01 -0.48320218629E+01 -0.11892275144E+02  0.13023966198E+02  0.00000000000E+00 0. -1.
</event>
<event>
 7    1  0.5642630E-013  0.5052885E+02  0.7816164E-02  0.1300439E+00
        -11   -1    0    0    0    0  0.00000000000E+00  0.00000000000E+00  0.45593999997E+02  0.45594000000E+02  0.51100000000E-03 0.  1.
         11   -1    0    0    0    0 -0.00000000000E+00 -0.00000000000E+00 -0.45593999997E+02  0.45594000000E+02  0.51100000000E-03 0. -1.
    9900012    2    1    2    0    0 -0.24802641631E+02 -0.24128558152E+02  0.21349667183E+02  0.50528848027E+02  0.29999964061E+02 0.  0.
         12    1    1    2    0    0  0.24802641631E+02  0.24128558152E+02 -0.21349667183E+02  0.40659151973E+02  0.00000000000E+00 0. -1.
         11    1    3    3    0    0 -0.31655873616E+01 -0.90194156461E+01 -0.33486439522E+01  0.10128386768E+02  0.51100000000E-03 0. -1.
        -11    1    3    3    0    0 -0.15578890318E+02 -0.17685013340E+02  0.24228588730E+02  0.33800680947E+02  0.51100000000E-03 0.  1.
         12    1    3    3    0    0 -0.60581639515E+01  0.25758708346E+01  0.46972240525E+00  0.65997803113E+01  0.00000000000E+00 0. -1.
</event>
<event>
 7    1  0.5642630E-013  0.5052886E+02  0.7816164E-02  0.1300439E+00
        -11   -1    0    0    0    0  0.00000000000E+00  0.00000000000E+00  0.45593999997E+02  0.45594000000E+02  0.51100000000E-03 0. -1.
         11   -1    0    0    0    0 -0.00000000000E+00 -0.00000000000E+00 -0.45593999997E+02  0.45594000000E+02  0.51100000000E-03 0.  1.
    9900012    2    1    2    0    0 -0.88743950631E+01 -0.37571701764E+02 -0.12758454216E+02  0.50528858160E+02  0.29999994863E+02 0.  0.
         12    1    1    2    0    0  0.88743950631E+01  0.37571701764E+02  0.12758454216E+02  0.40659141840E+02  0.00000000000E+00 0. -1.
         11    1    3    3    0    0  0.47989665125E+01 -0.61842699389E+01  0.28314813041E+01  0.83242153324E+01  0.51100000000E-03 0. -1.
        -11    1    3    3    0    0  0.24600373232E+01 -0.15431806444E+02 -0.19963348598E+01  0.15753659476E+02  0.51100000000E-03 0.  1.
        -12    1    3    3    0    0 -0.16133398899E+02 -0.15955625381E+02 -0.13593600660E+02  0.26450983351E+02  0.00000000000E+00 0.  1.
</event>
<event>
 7    1  0.5642630E-013  0.5052886E+02  0.7816164E-02  0.1300439E+00
        -11   -1    0    0    0    0  0.00000000000E+00  0.00000000000E+00  0.45593999997E+02  0.45594000000E+02  0.51100000000E-03 0. -1.
         11   -1    0    0    0    0 -0.00000000000E+00 -0.00000000000E+00 -0.45593999997E+02  0.45594000000E+02  0.51100000000E-03 0.  1.
    9900012    2    1    2    0    0  0.36778528609E+02 -0.13997204268E+02 -0.10226630321E+02  0.50528857587E+02  0.29999993123E+02 0.  0.
         12    1    1    2    0    0 -0.36778528609E+02  0.13997204268E+02  0.10226630321E+02  0.40659142413E+02  0.00000000000E+00 0. -1.
         11    1    3    3    0    0  0.15869485958E+01 -0.74857960846E+01  0.35444506674E+01  0.84331891750E+01  0.51100000000E-03 0. -1.
        -11    1    3    3    0    0  0.16835524363E+00 -0.35734277921E+01  0.13646841257E+01  0.38288500489E+01  0.51100000000E-03 0.  1.
        -12    1    3    3    0    0  0.35023224770E+02 -0.29379803918E+01 -0.15135765114E+02  0.38266818364E+02  0.00000000000E+00 0.  1.
</event>
<event>
 7    1  0.5642630E-013  0.5052889E+02  0.7816164E-02  0.1300439E+00
        -11   -1    0    0    0    0  0.00000000000E+00  0.00000000000E+00  0.45593999997E+02  0.45594000000E+02  0.51100000000E-03 0. -1.
         11   -1    0    0    0    0 -0.00000000000E+00 -0.00000000000E+00 -0.45593999997E+02  0.45594000000E+02  0.51100000000E-03 0.  1.
    9900012    2    1    2    0    0 -0.79066685360E+01 -0.32283075223E+02 -0.23419034456E+02  0.50528886285E+02  0.30000080353E+02 0.  0.
         12    1    1    2    0    0  0.79066685360E+01  0.32283075223E+02  0.23419034456E+02  0.40659113715E+02  0.00000000000E+00 0. -1.
         11    1    3    3    0    0 -0.42654339943E+01 -0.22248645909E+01 -0.14378231497E+02  0.15161711343E+02  0.51100000000E-03 0. -1.
        -11    1    3    3    0    0  0.52399633173E+01 -0.46124614676E+01 -0.13289482349E+00  0.69820969380E+01  0.51100000000E-03 0.  1.
         12    1    3    3    0    0 -0.88811978590E+01 -0.25445749165E+02 -0.89079081360E+01  0.28385078004E+02  0.00000000000E+00 0. -1.
</event>
<event>
 7    1  0.5642630E-013  0.5052887E+02  0.7816164E-02  0.1300439E+00
        -11   -1    0    0    0    0  0.00000000000E+00  0.00000000000E+00  0.45593999997E+02  0.45594000000E+02  0.51100000000E-03 0. -1.
         11   -1    0    0    0    0 -0.00000000000E+00 -0.00000000000E+00 -0.45593999997E+02  0.45594000000E+02  0.51100000000E-03 0.  1.
    9900012    2    1    2    0    0 -0.18101150387E+02  0.31342017574E+02 -0.18525429036E+02  0.50528865332E+02  0.30000016664E+02 0.  0.
         12    1    1    2    0    0  0.18101150387E+02 -0.31342017574E+02  0.18525429036E+02  0.40659134668E+02  0.00000000000E+00 0. -1.
         11    1    3    3    0    0 -0.11250367460E+02  0.81513992631E+01 -0.64486164227E+01  0.15316681493E+02  0.51100000000E-03 0.  1.
        -11    1    3    3    0    0 -0.78292540678E+01 -0.15683265749E+01 -0.91876241560E+00  0.80374742389E+01  0.51100000000E-03 0. -1.
        -12    1    3    3    0    0  0.97847114121E+00  0.24758944886E+02 -0.11158050198E+02  0.27174709600E+02  0.00000000000E+00 0.  1.
</event>
<event>
 7    1  0.5642630E-013  0.5052886E+02  0.7816164E-02  0.1300439E+00
        -11   -1    0    0    0    0  0.00000000000E+00  0.00000000000E+00  0.45593999997E+02  0.45594000000E+02  0.51100000000E-03 0. -1.
         11   -1    0    0    0    0 -0.00000000000E+00 -0.00000000000E+00 -0.45593999997E+02  0.45594000000E+02  0.51100000000E-03 0.  1.
    9900012    2    1    2    0    0  0.38830179247E+02  0.89537600737E+01 -0.80754792499E+01  0.50528855826E+02  0.29999987770E+02 0.  0.
         12    1    1    2    0    0 -0.38830179247E+02 -0.89537600737E+01  0.80754792499E+01  0.40659144174E+02  0.00000000000E+00 0. -1.
         11    1    3    3    0    0  0.12159302067E+02 -0.65215521659E+01 -0.99919269618E+01  0.17035782168E+02  0.51100000000E-03 0. -1.
        -11    1    3    3    0    0  0.10257981666E+02  0.28872980412E+01 -0.48799715221E+01  0.11720784963E+02  0.51100000000E-03 0.  1.
         12    1    3    3    0    0  0.16412895514E+02  0.12588014198E+02  0.67964192339E+01  0.21772288695E+02  0.00000000000E+00 0. -1.
</event>
<event>
 7    1  0.5642630E-013  0.5052886E+02  0.7816164E-02  0.1300439E+00
        -11   -1    0    0    0    0  0.00000000000E+00  0.00000000000E+00  0.45593999997E+02  0.45594000000E+02  0.51100000000E-03 0.  1.
         11   -1    0    0    0    0 -0.00000000000E+00 -0.00000000000E+00 -0.45593999997E+02  0.45594000000E+02  0.51100000000E-03 0. -1.
    9900012    2    1    2    0    0  0.37952863618E+02  0.14449510114E+02  0.19893368011E+01  0.50528860065E+02  0.30000000654E+02 0.  0.
         12    1    1    2    0    0 -0.37952863618E+02 -0.14449510114E+02 -0.19893368011E+01  0.40659139935E+02  0.00000000000E+00 0. -1.
         11    1    3    3    0    0  0.18591497450E+01  0.12171868462E+02  0.59977042483E+01  0.13696104415E+02  0.51100000000E-03 0. -1.
        -11    1    3    3    0    0  0.15261185300E+02  0.34581736227E+01 -0.37333188184E+00  0.15652543516E+02  0.51100000000E-03 0.  1.
         12    1    3    3    0    0  0.20832528573E+02 -0.11805319709E+01 -0.36350355653E+01  0.21180212134E+02  0.00000000000E+00 0. -1.
</event>
<event>
 7    1  0.5642630E-013  0.5052887E+02  0.7816164E-02  0.1300439E+00
        -11   -1    0    0    0    0  0.00000000000E+00  0.00000000000E+00  0.45593999997E+02  0.45594000000E+02  0.51100000000E-03 0. -1.
         11   -1    0    0    0    0 -0.00000000000E+00 -0.00000000000E+00 -0.45593999997E+02  0.45594000000E+02  0.51100000000E-03 0.  1.
    9900012    2    1    2    0    0  0.30373300406E+02 -0.20725634722E+02 -0.17351537623E+02  0.50528866093E+02  0.30000018977E+02 0.  0.
         12    1    1    2    0    0 -0.30373300406E+02  0.20725634722E+02  0.17351537623E+02  0.40659133907E+02  0.00000000000E+00 0. -1.
         11    1    3    3    0    0  0.15168152663E+02  0.53685888339E+00 -0.40381778531E+01  0.15705666281E+02  0.51100000000E-03 0. -1.
        -11    1    3    3    0    0  0.13329671680E+02 -0.65295069377E+01  0.51763723968E-01  0.14843088887E+02  0.51100000000E-03 0.  1.
        -12    1    3    3    0    0  0.18754760623E+01 -0.14732986667E+02 -0.13365123494E+02  0.19980110926E+02  0.00000000000E+00 0.  1.
</event>
<event>
 7    1  0.5642630E-013  0.5052887E+02  0.7816164E-02  0.1300439E+00
        -11   -1    0    0    0    0  0.00000000000E+00  0.00000000000E+00  0.45593999997E+02  0.45594000000E+02  0.51100000000E-03 0.  1.
         11   -1    0    0    0    0 -0.00000000000E+00 -0.00000000000E+00 -0.45593999997E+02  0.45594000000E+02  0.51100000000E-03 0. -1.
    9900012    2    1    2    0    0 -0.33809813887E+02 -0.44084584158E+01  0.22150088989E+02  0.50528874790E+02  0.30000045410E+02 0.  0.
         12    1    1    2    0    0  0.33809813887E+02  0.44084584158E+01 -0.22150088989E+02  0.40659125210E+02  0.00000000000E+00 0. -1.
         11    1    3    3    0    0 -0.64394017079E+00 -0.77503343253E+01  0.35875675853E+01  0.85646355753E+01  0.51100000000E-03 0. -1.
        -11    1    3    3    0    0 -0.14661048827E+01 -0.47009491599E+01  0.21575650299E+01  0.53761950905E+01  0.51100000000E-03 0.  1.
        -12    1    3    3    0    0 -0.31699768833E+02  0.80428250694E+01  0.16404956374E+02  0.36588044124E+02  0.00000000000E+00 0.  1.
</event>
<event>
 7    1  0.5642630E-013  0.5052887E+02  0.7816164E-02  0.1300439E+00
        -11   -1    0    0    0    0  0.00000000000E+00  0.00000000000E+00  0.45593999997E+02  0.45594000000E+02  0.51100000000E-03 0. -1.
         11   -1    0    0    0    0 -0.00000000000E+00 -0.00000000000E+00 -0.45593999997E+02  0.45594000000E+02  0.51100000000E-03 0.  1.
    9900012    2    1    2    0    0 -0.11019175298E+02 -0.37609882050E+02  0.10827723062E+02  0.50528867708E+02  0.30000023885E+02 0.  0.
         12    1    1    2    0    0  0.11019175298E+02  0.37609882050E+02 -0.10827723062E+02  0.40659132292E+02  0.00000000000E+00 0. -1.
         11    1    3    3    0    0 -0.68017168579E+01  0.41072966652E-01  0.27704266277E+01  0.73444062499E+01  0.51100000000E-03 0. -1.
        -11    1    3    3    0    0 -0.40307239287E+01 -0.22185200614E+01  0.61763037800E+01  0.77016423765E+01  0.51100000000E-03 0.  1.
        -12    1    3    3    0    0 -0.18673451194E+00 -0.35432434955E+02  0.18809926541E+01  0.35482819081E+02  0.00000000000E+00 0.  1.
</event>
<event>
 7    1  0.5642630E-013  0.5052886E+02  0.7816164E-02  0.1300439E+00
        -11   -1    0    0    0    0  0.00000000000E+00  0.00000000000E+00  0.45593999997E+02  0.45594000000E+02  0.51100000000E-03 0.  1.
         11   -1    0    0    0    0 -0.00000000000E+00 -0.00000000000E+00 -0.45593999997E+02  0.45594000000E+02  0.51100000000E-03 0. -1.
    9900012    2    1    2    0    0  0.19010978767E+02 -0.35109902622E+02 -0.76839241208E+01  0.50528864917E+02  0.30000015402E+02 0.  0.
         12    1    1    2    0    0 -0.19010978767E+02  0.35109902622E+02  0.76839241208E+01  0.40659135083E+02  0.00000000000E+00 0. -1.
         11    1    3    3    0    0 -0.18421292442E+01  0.19355751834E+01  0.19579800600E+01  0.33126390717E+01  0.51100000000E-03 0.  1.
        -11    1    3    3    0    0 -0.28038665453E+01 -0.42680364076E+01 -0.38175476421E+01  0.63758507387E+01  0.51100000000E-03 0. -1.
         12    1    3    3    0    0  0.23656974557E+02 -0.32777441398E+02 -0.58243565386E+01  0.40840375107E+02  0.00000000000E+00 0. -1.
</event>
<event>
 7    1  0.5642630E-013  0.5052886E+02  0.7816164E-02  0.1300439E+00
        -11   -1    0    0    0    0  0.00000000000E+00  0.00000000000E+00  0.45593999997E+02  0.45594000000E+02  0.51100000000E-03 0. -1.
         11   -1    0    0    0    0 -0.00000000000E+00 -0.00000000000E+00 -0.45593999997E+02  0.45594000000E+02  0.51100000000E-03 0.  1.
    9900012    2    1    2    0    0  0.88260273361E+01  0.39656804629E+02  0.16138788614E+01  0.50528861828E+02  0.30000006013E+02 0.  0.
         12    1    1    2    0    0 -0.88260273361E+01 -0.39656804629E+02 -0.16138788614E+01  0.40659138172E+02  0.00000000000E+00 0. -1.
         11    1    3    3    0    0  0.50791688997E+01  0.61220192746E+01  0.13786624523E+01  0.80732761088E+01  0.51100000000E-03 0. -1.
        -11    1    3    3    0    0  0.66469439433E+01  0.31666703651E+02 -0.81680269375E+01  0.33371824167E+02  0.51100000000E-03 0.  1.
         12    1    3    3    0    0 -0.29000855069E+01  0.18680817029E+01  0.84032433467E+01  0.90837615523E+01  0.00000000000E+00 0. -1.
</event>
<event>
 7    1  0.5642630E-013  0.5052885E+02  0.7816164E-02  0.1300439E+00
        -11   -1    0    0    0    0  0.00000000000E+00  0.00000000000E+00  0.45593999997E+02  0.45594000000E+02  0.51100000000E-03 0.  1.
         11   -1    0    0    0    0 -0.00000000000E+00 -0.00000000000E+00 -0.45593999997E+02  0.45594000000E+02  0.51100000000E-03 0. -1.
    9900012    2    1    2    0    0 -0.34728015174E+00 -0.78053275963E+00  0.40650172085E+02  0.50528851885E+02  0.29999975789E+02 0.  0.
         12    1    1    2    0    0  0.34728015174E+00  0.78053275963E+00 -0.40650172085E+02  0.40659148115E+02  0.00000000000E+00 0. -1.
         11    1    3    3    0    0  0.20141855991E+01  0.57634608406E+01  0.79752173792E+01  0.10043829797E+02  0.51100000000E-03 0. -1.
        -11    1    3    3    0    0  0.95528570724E+01  0.11658215625E+01  0.14936799326E+02  0.17768629450E+02  0.51100000000E-03 0.  1.
         12    1    3    3    0    0 -0.11914322823E+02 -0.77098151627E+01  0.17738155380E+02  0.22716392638E+02  0.00000000000E+00 0. -1.
</event>
<event>
 7    1  0.5642630E-013  0.5052886E+02  0.7816164E-02  0.1300439E+00
        -11   -1    0    0    0    0  0.00000000000E+00  0.00000000000E+00  0.45593999997E+02  0.45594000000E+02  0.51100000000E-03 0. -1.
         11   -1    0    0    0    0 -0.00000000000E+00 -0.00000000000E+00 -0.45593999997E+02  0.45594000000E+02  0.51100000000E-03 0.  1.
    9900012    2    1    2    0    0  0.96434167752E+01  0.30940570533E+02 -0.24553026685E+02  0.50528861896E+02  0.30000006218E+02 0.  0.
         12    1    1    2    0    0 -0.96434167752E+01 -0.30940570533E+02  0.24553026685E+02  0.40659138104E+02  0.00000000000E+00 0. -1.
         11    1    3    3    0    0 -0.10954849988E+01 -0.12338144877E+01  0.11449088686E+01  0.20082833842E+01  0.51100000000E-03 0. -1.
        -11    1    3    3    0    0 -0.63733635060E+00  0.53600623902E+01  0.41549867311E+01  0.68117825455E+01  0.51100000000E-03 0.  1.
        -12    1    3    3    0    0  0.11376238125E+02  0.26814322630E+02 -0.29852922285E+02  0.41708795966E+02  0.00000000000E+00 0.  1.
</event>
<event>
 7    1  0.5642630E-013  0.5052886E+02  0.7816164E-02  0.1300439E+00
        -11   -1    0    0    0    0  0.00000000000E+00  0.00000000000E+00  0.45593999997E+02  0.45594000000E+02  0.51100000000E-03 0.  1.
         11   -1    0    0    0    0 -0.00000000000E+00 -0.00000000000E+00 -0.45593999997E+02  0.45594000000E+02  0.51100000000E-03 0. -1.
    9900012    2    1    2    0    0  0.19263312000E+02 -0.34726919151E+02  0.87253299466E+01  0.50528862213E+02  0.30000007182E+02 0.  0.
         12    1    1    2    0    0 -0.19263312000E+02  0.34726919151E+02 -0.87253299466E+01  0.40659137787E+02  0.00000000000E+00 0. -1.
         11    1    3    3    0    0  0.21397354872E+02 -0.30964430294E+02  0.14721026196E+02  0.40414741760E+02  0.51100000000E-03 0.  1.
        -11    1    3    3    0    0  0.20879854528E+01 -0.20295360569E+01 -0.47346057975E+00  0.29500618703E+01  0.51100000000E-03 0. -1.
        -12    1    3    3    0    0 -0.42220283249E+01 -0.17329527996E+01 -0.55222356700E+01  0.71640585828E+01  0.00000000000E+00 0.  1.
</event>
<event>
 7    1  0.5642630E-013  0.5052886E+02  0.7816164E-02  0.1300439E+00
        -11   -1    0    0    0    0  0.00000000000E+00  0.00000000000E+00  0.45593999997E+02  0.45594000000E+02  0.51100000000E-03 0. -1.
         11   -1    0    0    0    0 -0.00000000000E+00 -0.00000000000E+00 -0.45593999997E+02  0.45594000000E+02  0.51100000000E-03 0.  1.
    9900012    2    1    2    0    0 -0.27712708834E+02  0.29645343820E+02 -0.25149481669E+01  0.50528860739E+02  0.30000002704E+02 0.  0.
         12    1    1    2    0    0  0.27712708834E+02 -0.29645343820E+02  0.25149481669E+01  0.40659139261E+02  0.00000000000E+00 0. -1.
         11    1    3    3    0    0 -0.10363465614E+01 -0.17386145329E+01 -0.19011615219E+01  0.27769065672E+01  0.51100000000E-03 0.  1.
        -11    1    3    3    0    0 -0.14919647880E+02  0.88521453621E+00 -0.17362336414E+01  0.15046395089E+02  0.51100000000E-03 0. -1.
        -12    1    3    3    0    0 -0.11756714392E+02  0.30498743817E+02  0.11224469964E+01  0.32705559084E+02  0.00000000000E+00 0.  1.
</event>
<event>
 7    1  0.5642630E-013  0.5052886E+02  0.7816164E-02  0.1300439E+00
        -11   -1    0    0    0    0  0.00000000000E+00  0.00000000000E+00  0.45593999997E+02  0.45594000000E+02  0.51100000000E-03 0.  1.
         11   -1    0    0    0    0 -0.00000000000E+00 -0.00000000000E+00 -0.45593999997E+02  0.45594000000E+02  0.51100000000E-03 0. -1.
    9900012    2    1    2    0    0  0.38592240048E+01  0.39404469751E+02  0.92498549846E+01  0.50528860025E+02  0.30000000533E+02 0.  0.
         12    1    1    2    0    0 -0.38592240048E+01 -0.39404469751E+02 -0.92498549846E+01  0.40659139975E+02  0.00000000000E+00 0. -1.
         11    1    3    3    0    0  0.10160754601E+01  0.17352677299E+02  0.15455233316E+02  0.23259665860E+02  0.51100000000E-03 0. -1.
        -11    1    3    3    0    0  0.95071392217E+00  0.11590111022E+02  0.42276712043E+01  0.12373671021E+02  0.51100000000E-03 0.  1.
         12    1    3    3    0    0  0.18924346226E+01  0.10461681429E+02 -0.10433049536E+02  0.14895523144E+02  0.00000000000E+00 0. -1.
</event>
<event>
 7    1  0.5642630E-013  0.5052886E+02  0.7816164E-02  0.1300439E+00
        -11   -1    0    0    0    0  0.00000000000E+00  0.00000000000E+00  0.45593999997E+02  0.45594000000E+02  0.51100000000E-03 0.  1.
         11   -1    0    0    0    0 -0.00000000000E+00 -0.00000000000E+00 -0.45593999997E+02  0.45594000000E+02  0.51100000000E-03 0. -1.
    9900012    2    1    2    0    0 -0.65580775312E+01  0.19815593429E+02  0.34892681870E+02  0.50528863610E+02  0.30000011430E+02 0.  0.
         12    1    1    2    0    0  0.65580775312E+01 -0.19815593429E+02 -0.34892681870E+02  0.40659136390E+02  0.00000000000E+00 0. -1.
         11    1    3    3    0    0 -0.67865715357E+01  0.18251620305E+02  0.18297650222E+02  0.26720464084E+02  0.51100000000E-03 0. -1.
        -11    1    3    3    0    0 -0.35095602728E+01  0.84925257272E+01  0.85302996399E+01  0.12538182434E+02  0.51100000000E-03 0.  1.
         12    1    3    3    0    0  0.37380542774E+01 -0.69285526027E+01  0.80647320082E+01  0.11270217093E+02  0.00000000000E+00 0. -1.
</event>
<event>
 7    1  0.5642630E-013  0.5052886E+02  0.7816164E-02  0.1300439E+00
        -11   -1    0    0    0    0  0.00000000000E+00  0.00000000000E+00  0.45593999997E+02  0.45594000000E+02  0.51100000000E-03 0.  1.
         11   -1    0    0    0    0 -0.00000000000E+00 -0.00000000000E+00 -0.45593999997E+02  0.45594000000E+02  0.51100000000E-03 0. -1.
    9900012    2    1    2    0    0  0.39348560905E+02  0.92320375677E+01 -0.44301030002E+01  0.50528861106E+02  0.30000003819E+02 0.  0.
         12    1    1    2    0    0 -0.39348560905E+02 -0.92320375677E+01  0.44301030002E+01  0.40659138894E+02  0.00000000000E+00 0. -1.
         11    1    3    3    0    0  0.79413032788E+01 -0.25390583253E+01  0.58067710274E+01  0.10160202014E+02  0.51100000000E-03 0. -1.
        -11    1    3    3    0    0  0.85852011486E+01 -0.49340358429E+01  0.96390489549E+00  0.99488442228E+01  0.51100000000E-03 0.  1.
        -12    1    3    3    0    0  0.22822056478E+02  0.16705131736E+02 -0.11200778923E+02  0.30419814869E+02  0.00000000000E+00 0.  1.
</event>
<event>
 7    1  0.5642630E-013  0.5052886E+02  0.7816164E-02  0.1300439E+00
        -11   -1    0    0    0    0  0.00000000000E+00  0.00000000000E+00  0.45593999997E+02  0.45594000000E+02  0.51100000000E-03 0.  1.
         11   -1    0    0    0    0 -0.00000000000E+00 -0.00000000000E+00 -0.45593999997E+02  0.45594000000E+02  0.51100000000E-03 0. -1.
    9900012    2    1    2    0    0 -0.28615262048E+02  0.27025729211E+02  0.10195210488E+02  0.50528861072E+02  0.30000003714E+02 0.  0.
         12    1    1    2    0    0  0.28615262048E+02 -0.27025729211E+02 -0.10195210488E+02  0.40659138928E+02  0.00000000000E+00 0. -1.
         11    1    3    3    0    0 -0.77300990663E+01  0.18287024356E+02 -0.60479232676E+01  0.20754446933E+02  0.51100000000E-03 0. -1.
        -11    1    3    3    0    0 -0.46553295203E+01  0.70498924158E+01  0.38498356810E+01  0.92840891340E+01  0.51100000000E-03 0.  1.
         12    1    3    3    0    0 -0.16229833461E+02  0.16888124393E+01  0.12393298075E+02  0.20490325005E+02  0.00000000000E+00 0. -1.
</event>
<event>
 7    1  0.5642630E-013  0.5052886E+02  0.7816164E-02  0.1300439E+00
        -11   -1    0    0    0    0  0.00000000000E+00  0.00000000000E+00  0.45593999997E+02  0.45594000000E+02  0.51100000000E-03 0.  1.
         11   -1    0    0    0    0 -0.00000000000E+00 -0.00000000000E+00 -0.45593999997E+02  0.45594000000E+02  0.51100000000E-03 0. -1.
    9900012    2    1    2    0    0  0.43205572623E+01  0.82981759771E+01  0.39568152669E+02  0.50528860250E+02  0.30000001215E+02 0.  0.
         12    1    1    2    0    0 -0.43205572623E+01 -0.82981759771E+01 -0.39568152669E+02  0.40659139750E+02  0.00000000000E+00 0. -1.
         11    1    3    3    0    0  0.88464735082E-01 -0.33778953734E+01  0.21795901205E+00  0.33860758342E+01  0.51100000000E-03 0. -1.
        -11    1    3    3    0    0 -0.54906161068E+01  0.37659828679E+00  0.49437655177E+00  0.55256764236E+01  0.51100000000E-03 0.  1.
        -12    1    3    3    0    0  0.97227086340E+01  0.11299473064E+02  0.38855817105E+02  0.41617107992E+02  0.00000000000E+00 0.  1.
</event>
<event>
 7    1  0.5642630E-013  0.5052886E+02  0.7816164E-02  0.1300439E+00
        -11   -1    0    0    0    0  0.00000000000E+00  0.00000000000E+00  0.45593999997E+02  0.45594000000E+02  0.51100000000E-03 0.  1.
         11   -1    0    0    0    0 -0.00000000000E+00 -0.00000000000E+00 -0.45593999997E+02  0.45594000000E+02  0.51100000000E-03 0. -1.
    9900012    2    1    2    0    0 -0.37165108641E+01 -0.61924014633E+01  0.40012589333E+02  0.50528860880E+02  0.30000003130E+02 0.  0.
         12    1    1    2    0    0  0.37165108641E+01  0.61924014633E+01 -0.40012589333E+02  0.40659139120E+02  0.00000000000E+00 0. -1.
         11    1    3    3    0    0 -0.28932538440E+01  0.27617897669E+01  0.89964462103E+01  0.98455291985E+01  0.51100000000E-03 0.  1.
        -11    1    3    3    0    0 -0.10211412955E+02 -0.17366532629E+01  0.38535409014E+01  0.11051637744E+02  0.51100000000E-03 0. -1.
        -12    1    3    3    0    0  0.93881559349E+01 -0.72175379673E+01  0.27162602221E+02  0.29631693937E+02  0.00000000000E+00 0.  1.
</event>
<event>
 7    1  0.5642630E-013  0.5052887E+02  0.7816164E-02  0.1300439E+00
        -11   -1    0    0    0    0  0.00000000000E+00  0.00000000000E+00  0.45593999997E+02  0.45594000000E+02  0.51100000000E-03 0.  1.
         11   -1    0    0    0    0 -0.00000000000E+00 -0.00000000000E+00 -0.45593999997E+02  0.45594000000E+02  0.51100000000E-03 0. -1.
    9900012    2    1    2    0    0  0.21375437578E+02 -0.28148740494E+02  0.20097369403E+02  0.50528865972E+02  0.30000018608E+02 0.  0.
         12    1    1    2    0    0 -0.21375437578E+02  0.28148740494E+02 -0.20097369403E+02  0.40659134028E+02  0.00000000000E+00 0. -1.
         11    1    3    3    0    0 -0.99948892507E+00 -0.26718339796E+01  0.55411195311E+00  0.29059792228E+01  0.51100000000E-03 0. -1.
        -11    1    3    3    0    0  0.22375585750E+01 -0.68112968673E+01  0.18838105492E+02  0.20156255907E+02  0.51100000000E-03 0.  1.
         12    1    3    3    0    0  0.20137367928E+02 -0.18665609647E+02  0.70515195811E+00  0.27466630842E+02  0.00000000000E+00 0. -1.
</event>
<event>
 7    1  0.5642630E-013  0.5052887E+02  0.7816164E-02  0.1300439E+00
        -11   -1    0    0    0    0  0.00000000000E+00  0.00000000000E+00  0.45593999997E+02  0.45594000000E+02  0.51100000000E-03 0.  1.
         11   -1    0    0    0    0 -0.00000000000E+00 -0.00000000000E+00 -0.45593999997E+02  0.45594000000E+02  0.51100000000E-03 0. -1.
    9900012    2    1    2    0    0  0.31049315172E+01 -0.40333128705E+02 -0.40942899727E+01  0.50528867185E+02  0.30000022296E+02 0.  0.
         12    1    1    2    0    0 -0.31049315172E+01  0.40333128705E+02  0.40942899727E+01  0.40659132815E+02  0.00000000000E+00 0. -1.
         11    1    3    3    0    0  0.48570881649E+00  0.34233416899E+01  0.21390258883E+01  0.40657857042E+01  0.51100000000E-03 0. -1.
        -11    1    3    3    0    0 -0.55644426516E+01 -0.16268458784E+02 -0.41662032253E+00  0.17198818157E+02  0.51100000000E-03 0.  1.
        -12    1    3    3    0    0  0.81836653523E+01 -0.27488011611E+02 -0.58166955385E+01  0.29264263324E+02  0.00000000000E+00 0.  1.
</event>
<event>
 7    1  0.5642630E-013  0.5052886E+02  0.7816164E-02  0.1300439E+00
        -11   -1    0    0    0    0  0.00000000000E+00  0.00000000000E+00  0.45593999997E+02  0.45594000000E+02  0.51100000000E-03 0.  1.
         11   -1    0    0    0    0 -0.00000000000E+00 -0.00000000000E+00 -0.45593999997E+02  0.45594000000E+02  0.51100000000E-03 0. -1.
    9900012    2    1    2    0    0  0.16461713054E+02  0.12448334000E+01  0.37156804161E+02  0.50528859548E+02  0.29999999082E+02 0.  0.
         12    1    1    2    0    0 -0.16461713054E+02 -0.12448334000E+01 -0.37156804161E+02  0.40659140452E+02  0.00000000000E+00 0. -1.
         11    1    3    3    0    0  0.77557153168E+01 -0.91270967745E+01  0.49194437629E+01  0.12948202300E+02  0.51100000000E-03 0.  1.
        -11    1    3    3    0    0 -0.36002079052E+01  0.26074278173E+01  0.10720416723E+02  0.11605494895E+02  0.51100000000E-03 0. -1.
        -12    1    3    3    0    0  0.12306205642E+02  0.77645023572E+01  0.21516943675E+02  0.25975162353E+02  0.00000000000E+00 0.  1.
</event>
<event>
 7    1  0.5642630E-013  0.5052886E+02  0.7816164E-02  0.1300439E+00
        -11   -1    0    0    0    0  0.00000000000E+00  0.00000000000E+00  0.45593999997E+02  0.45594000000E+02  0.51100000000E-03 0.  1.
         11   -1    0    0    0    0 -0.00000000000E+00 -0.00000000000E+00 -0.45593999997E+02  0.45594000000E+02  0.51100000000E-03 0. -1.
    9900012    2    1    2    0    0  0.36888728716E+02 -0.11032687505E+02  0.13063949646E+02  0.50528864738E+02  0.30000014859E+02 0.  0.
         12    1    1    2    0    0 -0.36888728716E+02  0.11032687505E+02 -0.13063949646E+02  0.40659135262E+02  0.00000000000E+00 0. -1.
         11    1    3    3    0    0  0.70224304200E+01  0.49117145572E+01 -0.61337532056E+00  0.85916062782E+01  0.51100000000E-03 0. -1.
        -11    1    3    3    0    0  0.27505131207E+02 -0.69473619862E+01  0.42358463089E+01  0.28683452992E+02  0.51100000000E-03 0.  1.
        -12    1    3    3    0    0  0.23611670883E+01 -0.89970400763E+01  0.94414786579E+01  0.13253805469E+02  0.00000000000E+00 0.  1.
</event>
<event>
 7    1  0.5642630E-013  0.5052892E+02  0.7816164E-02  0.1300439E+00
        -11   -1    0    0    0    0  0.00000000000E+00  0.00000000000E+00  0.45593999997E+02  0.45594000000E+02  0.51100000000E-03 0. -1.
         11   -1    0    0    0    0 -0.00000000000E+00 -0.00000000000E+00 -0.45593999997E+02  0.45594000000E+02  0.51100000000E-03 0.  1.
    9900012    2    1    2    0    0 -0.17014985662E+02 -0.80981706368E+00 -0.36918770113E+02  0.50528915807E+02  0.30000170086E+02 0.  0.
         12    1    1    2    0    0  0.17014985662E+02  0.80981706368E+00  0.36918770113E+02  0.40659084193E+02  0.00000000000E+00 0. -1.
         11    1    3    3    0    0 -0.49883215349E+01 -0.87084529794E+01 -0.26154499323E+02  0.28013895483E+02  0.51100000000E-03 0. -1.
        -11    1    3    3    0    0 -0.22267415185E+01 -0.13917653174E+01 -0.84064323577E+01  0.88070138943E+01  0.51100000000E-03 0.  1.
         12    1    3    3    0    0 -0.97999226083E+01  0.92904012331E+01 -0.23578384326E+01  0.13708006430E+02  0.00000000000E+00 0. -1.
</event>
<event>
 7    1  0.5642630E-013  0.5052885E+02  0.7816164E-02  0.1300439E+00
        -11   -1    0    0    0    0  0.00000000000E+00  0.00000000000E+00  0.45593999997E+02  0.45594000000E+02  0.51100000000E-03 0.  1.
         11   -1    0    0    0    0 -0.00000000000E+00 -0.00000000000E+00 -0.45593999997E+02  0.45594000000E+02  0.51100000000E-03 0. -1.
    9900012    2    1    2    0    0 -0.36960854266E+02  0.11938385533E+02  0.12022339088E+02  0.50528850546E+02  0.29999971719E+02 0.  0.
         12    1    1    2    0    0  0.36960854266E+02 -0.11938385533E+02 -0.12022339088E+02  0.40659149454E+02  0.00000000000E+00 0. -1.
         11    1    3    3    0    0 -0.15782612178E+02 -0.48056893915E+01  0.54179843433E+01  0.17364908646E+02  0.51100000000E-03 0. -1.
        -11    1    3    3    0    0 -0.13474456799E+02  0.16233991907E+01  0.86148441625E+01  0.16075196769E+02  0.51100000000E-03 0.  1.
        -12    1    3    3    0    0 -0.77037852889E+01  0.15120675734E+02 -0.20104894179E+01  0.17088745130E+02  0.00000000000E+00 0.  1.
</event>
<event>
 7    1  0.5642630E-013  0.5052884E+02  0.7816164E-02  0.1300439E+00
        -11   -1    0    0    0    0  0.00000000000E+00  0.00000000000E+00  0.45593999997E+02  0.45594000000E+02  0.51100000000E-03 0.  1.
         11   -1    0    0    0    0 -0.00000000000E+00 -0.00000000000E+00 -0.45593999997E+02  0.45594000000E+02  0.51100000000E-03 0. -1.
    9900012    2    1    2    0    0 -0.19538841891E+02  0.13116823030E+02  0.33156446294E+02  0.50528839658E+02  0.29999938625E+02 0.  0.
         12    1    1    2    0    0  0.19538841891E+02 -0.13116823030E+02 -0.33156446294E+02  0.40659160342E+02  0.00000000000E+00 0. -1.
         11    1    3    3    0    0 -0.13109402909E+02  0.85966614590E+01  0.74295963534E+01  0.17348139240E+02  0.51100000000E-03 0. -1.
        -11    1    3    3    0    0 -0.87870652795E+01  0.70055929660E+01  0.52225112936E+01  0.12392153707E+02  0.51100000000E-03 0.  1.
         12    1    3    3    0    0  0.23576262972E+01 -0.24854313953E+01  0.20504338647E+02  0.20788546710E+02  0.00000000000E+00 0. -1.
</event>
<event>
 7    1  0.5642630E-013  0.5052886E+02  0.7816164E-02  0.1300439E+00
        -11   -1    0    0    0    0  0.00000000000E+00  0.00000000000E+00  0.45593999997E+02  0.45594000000E+02  0.51100000000E-03 0. -1.
         11   -1    0    0    0    0 -0.00000000000E+00 -0.00000000000E+00 -0.45593999997E+02  0.45594000000E+02  0.51100000000E-03 0.  1.
    9900012    2    1    2    0    0 -0.30055456595E+02 -0.10818423338E+02 -0.25155454922E+02  0.50528859982E+02  0.30000000401E+02 0.  0.
         12    1    1    2    0    0  0.30055456595E+02  0.10818423338E+02  0.25155454922E+02  0.40659140018E+02  0.00000000000E+00 0. -1.
         11    1    3    3    0    0  0.18106550377E+01 -0.47077460492E+01 -0.15038111089E+01  0.52633442450E+01  0.51100000000E-03 0. -1.
        -11    1    3    3    0    0  0.11672191913E+00 -0.65727548858E+01 -0.33216108745E+01  0.73653126110E+01  0.51100000000E-03 0.  1.
         12    1    3    3    0    0 -0.31982833552E+02  0.46207759659E+00 -0.20330032938E+02  0.37900203126E+02  0.00000000000E+00 0. -1.
</event>
<event>
 7    1  0.5642630E-013  0.5052886E+02  0.7816164E-02  0.1300439E+00
        -11   -1    0    0    0    0  0.00000000000E+00  0.00000000000E+00  0.45593999997E+02  0.45594000000E+02  0.51100000000E-03 0. -1.
         11   -1    0    0    0    0 -0.00000000000E+00 -0.00000000000E+00 -0.45593999997E+02  0.45594000000E+02  0.51100000000E-03 0.  1.
    9900012    2    1    2    0    0  0.27308169631E+02  0.21316970624E+02 -0.21284186079E+02  0.50528856597E+02  0.29999990113E+02 0.  0.
         12    1    1    2    0    0 -0.27308169631E+02 -0.21316970624E+02  0.21284186079E+02  0.40659143403E+02  0.00000000000E+00 0. -1.
         11    1    3    3    0    0  0.32224797210E+01  0.11610722249E+02 -0.12280367548E+02  0.17204670123E+02  0.51100000000E-03 0. -1.
        -11    1    3    3    0    0  0.61846973541E+01  0.12476908856E+02 -0.47894725606E+01  0.14726261699E+02  0.51100000000E-03 0.  1.
        -12    1    3    3    0    0  0.17900992556E+02 -0.27706604801E+01 -0.42143459709E+01  0.18597924775E+02  0.00000000000E+00 0.  1.
</event>
<event>
 7    1  0.5642630E-013  0.5052886E+02  0.7816164E-02  0.1300439E+00
        -11   -1    0    0    0    0  0.00000000000E+00  0.00000000000E+00  0.45593999997E+02  0.45594000000E+02  0.51100000000E-03 0.  1.
         11   -1    0    0    0    0 -0.00000000000E+00 -0.00000000000E+00 -0.45593999997E+02  0.45594000000E+02  0.51100000000E-03 0. -1.
    9900012    2    1    2    0    0 -0.30326581862E+02 -0.24296938078E+02  0.11963391826E+02  0.50528861896E+02  0.30000006218E+02 0.  0.
         12    1    1    2    0    0  0.30326581862E+02  0.24296938078E+02 -0.11963391826E+02  0.40659138104E+02  0.00000000000E+00 0. -1.
         11    1    3    3    0    0 -0.36153070095E+00 -0.52580655493E+01  0.14888052008E+00  0.52725822364E+01  0.51100000000E-03 0. -1.
        -11    1    3    3    0    0 -0.13439941430E+02 -0.22999575926E+02  0.61002266298E+01  0.27328104282E+02  0.51100000000E-03 0.  1.
        -12    1    3    3    0    0 -0.16525109731E+02  0.39607033973E+01  0.57142846758E+01  0.17928175378E+02  0.00000000000E+00 0.  1.
</event>
<event>
 7    1  0.5642630E-013  0.5052884E+02  0.7816164E-02  0.1300439E+00
        -11   -1    0    0    0    0  0.00000000000E+00  0.00000000000E+00  0.45593999997E+02  0.45594000000E+02  0.51100000000E-03 0. -1.
         11   -1    0    0    0    0 -0.00000000000E+00 -0.00000000000E+00 -0.45593999997E+02  0.45594000000E+02  0.51100000000E-03 0.  1.
    9900012    2    1    2    0    0 -0.12046487694E+02  0.37538318140E+02 -0.99460494214E+01  0.50528842438E+02  0.29999947075E+02 0.  0.
         12    1    1    2    0    0  0.12046487694E+02 -0.37538318140E+02  0.99460494214E+01  0.40659157562E+02  0.00000000000E+00 0. -1.
         11    1    3    3    0    0 -0.68073194824E+01 -0.22844097495E+00  0.42305269802E+01  0.80180510478E+01  0.51100000000E-03 0. -1.
        -11    1    3    3    0    0 -0.27401756097E+01  0.11468770973E+01 -0.28024624792E+01  0.40838322268E+01  0.51100000000E-03 0.  1.
        -12    1    3    3    0    0 -0.24989926020E+01  0.36619882018E+02 -0.11374113922E+02  0.38426959163E+02  0.00000000000E+00 0.  1.
</event>
<event>
 7    1  0.5642630E-013  0.5052887E+02  0.7816164E-02  0.1300439E+00
        -11   -1    0    0    0    0  0.00000000000E+00  0.00000000000E+00  0.45593999997E+02  0.45594000000E+02  0.51100000000E-03 0.  1.
         11   -1    0    0    0    0 -0.00000000000E+00 -0.00000000000E+00 -0.45593999997E+02  0.45594000000E+02  0.51100000000E-03 0. -1.
    9900012    2    1    2    0    0  0.11679230397E+02  0.19254643704E+02  0.33852901045E+02  0.50528872660E+02  0.30000038939E+02 0.  0.
         12    1    1    2    0    0 -0.11679230397E+02 -0.19254643704E+02 -0.33852901045E+02  0.40659127340E+02  0.00000000000E+00 0. -1.
         11    1    3    3    0    0  0.48179655041E+01  0.32804921792E+01 -0.33124695413E+01  0.67042430788E+01  0.51100000000E-03 0. -1.
        -11    1    3    3    0    0  0.76924158876E+01  0.49118470497E+00  0.12958403121E+02  0.15077623695E+02  0.51100000000E-03 0.  1.
        -12    1    3    3    0    0 -0.83115099495E+00  0.15482966820E+02  0.24206967466E+02  0.28747005886E+02  0.00000000000E+00 0.  1.
</event>
<event>
 7    1  0.5642630E-013  0.5052886E+02  0.7816164E-02  0.1300439E+00
        -11   -1    0    0    0    0  0.00000000000E+00  0.00000000000E+00  0.45593999997E+02  0.45594000000E+02  0.51100000000E-03 0. -1.
         11   -1    0    0    0    0 -0.00000000000E+00 -0.00000000000E+00 -0.45593999997E+02  0.45594000000E+02  0.51100000000E-03 0.  1.
    9900012    2    1    2    0    0  0.14234059307E+02  0.33416934694E+01 -0.37939296802E+02  0.50528860788E+02  0.30000002852E+02 0.  0.
         12    1    1    2    0    0 -0.14234059307E+02 -0.33416934694E+01  0.37939296802E+02  0.40659139212E+02  0.00000000000E+00 0. -1.
         11    1    3    3    0    0 -0.11397400813E+01 -0.42201686445E+01  0.11469886048E+01  0.45193377791E+01  0.51100000000E-03 0. -1.
        -11    1    3    3    0    0  0.60121388197E+01 -0.54230991580E+01 -0.10665116386E+02  0.13390314614E+02  0.51100000000E-03 0.  1.
        -12    1    3    3    0    0  0.93616605689E+01  0.12984961272E+02 -0.28421169021E+02  0.32619208396E+02  0.00000000000E+00 0.  1.
</event>
<event>
 7    1  0.5642630E-013  0.5052886E+02  0.7816164E-02  0.1300439E+00
        -11   -1    0    0    0    0  0.00000000000E+00  0.00000000000E+00  0.45593999997E+02  0.45594000000E+02  0.51100000000E-03 0. -1.
         11   -1    0    0    0    0 -0.00000000000E+00 -0.00000000000E+00 -0.45593999997E+02  0.45594000000E+02  0.51100000000E-03 0.  1.
    9900012    2    1    2    0    0 -0.25485534375E+02 -0.29379728503E+02 -0.11852624065E+02  0.50528860726E+02  0.30000002661E+02 0.  0.
         12    1    1    2    0    0  0.25485534375E+02  0.29379728503E+02  0.11852624065E+02  0.40659139274E+02  0.00000000000E+00 0. -1.
         11    1    3    3    0    0 -0.24231024978E+02 -0.14888230464E+02  0.44960317692E-01  0.28439479593E+02  0.51100000000E-03 0. -1.
        -11    1    3    3    0    0  0.25297841959E+01  0.35898902520E+00  0.20265387107E+00  0.25631523659E+01  0.51100000000E-03 0.  1.
        -12    1    3    3    0    0 -0.37842935927E+01 -0.14850487064E+02 -0.12100238253E+02  0.19526228766E+02  0.00000000000E+00 0.  1.
</event>
<event>
 7    1  0.5642630E-013  0.5052884E+02  0.7816164E-02  0.1300439E+00
        -11   -1    0    0    0    0  0.00000000000E+00  0.00000000000E+00  0.45593999997E+02  0.45594000000E+02  0.51100000000E-03 0.  1.
         11   -1    0    0    0    0 -0.00000000000E+00 -0.00000000000E+00 -0.45593999997E+02  0.45594000000E+02  0.51100000000E-03 0. -1.
    9900012    2    1    2    0    0  0.15508586039E+02  0.42068127404E+01  0.37349077528E+02  0.50528842279E+02  0.29999946592E+02 0.  0.
         12    1    1    2    0    0 -0.15508586039E+02 -0.42068127404E+01 -0.37349077528E+02  0.40659157721E+02  0.00000000000E+00 0. -1.
         11    1    3    3    0    0  0.57358319869E+00  0.38603644889E+01 -0.13045117195E+00  0.39049237435E+01  0.51100000000E-03 0. -1.
        -11    1    3    3    0    0  0.17018607418E+02 -0.43064320515E+01  0.13601285535E+02  0.22207506027E+02  0.51100000000E-03 0.  1.
         12    1    3    3    0    0 -0.20836045779E+01  0.46528803029E+01  0.23878243165E+02  0.24416412508E+02  0.00000000000E+00 0. -1.
</event>
<event>
 7    1  0.5642630E-013  0.5052883E+02  0.7816164E-02  0.1300439E+00
        -11   -1    0    0    0    0  0.00000000000E+00  0.00000000000E+00  0.45593999997E+02  0.45594000000E+02  0.51100000000E-03 0.  1.
         11   -1    0    0    0    0 -0.00000000000E+00 -0.00000000000E+00 -0.45593999997E+02  0.45594000000E+02  0.51100000000E-03 0. -1.
    9900012    2    1    2    0    0  0.18008973971E+02 -0.26169777195E+02  0.25376906039E+02  0.50528834464E+02  0.29999922838E+02 0.  0.
         12    1    1    2    0    0 -0.18008973971E+02  0.26169777195E+02 -0.25376906039E+02  0.40659165536E+02  0.00000000000E+00 0. -1.
         11    1    3    3    0    0  0.11054845151E+02 -0.18260069071E+02  0.28013459218E+01  0.21528754330E+02  0.51100000000E-03 0. -1.
        -11    1    3    3    0    0  0.26137182149E+01 -0.10163466194E+02  0.68509602042E+01  0.12532486743E+02  0.51100000000E-03 0.  1.
         12    1    3    3    0    0  0.43404106051E+01  0.22537580700E+01  0.15724599913E+02  0.16467593391E+02  0.00000000000E+00 0. -1.
</event>
<event>
 7    1  0.5642630E-013  0.5052886E+02  0.7816164E-02  0.1300439E+00
        -11   -1    0    0    0    0  0.00000000000E+00  0.00000000000E+00  0.45593999997E+02  0.45594000000E+02  0.51100000000E-03 0. -1.
         11   -1    0    0    0    0 -0.00000000000E+00 -0.00000000000E+00 -0.45593999997E+02  0.45594000000E+02  0.51100000000E-03 0.  1.
    9900012    2    1    2    0    0 -0.17106377387E+01  0.35346064224E+02 -0.20022365360E+02  0.50528860164E+02  0.30000000954E+02 0.  0.
         12    1    1    2    0    0  0.17106377387E+01 -0.35346064224E+02  0.20022365360E+02  0.40659139836E+02  0.00000000000E+00 0. -1.
         11    1    3    3    0    0 -0.65178972650E+01 -0.19997768041E+01  0.14233131285E+01  0.69647622031E+01  0.51100000000E-03 0. -1.
        -11    1    3    3    0    0  0.45340787217E+01  0.19167130433E+02 -0.10115178598E+02  0.22141671057E+02  0.51100000000E-03 0.  1.
        -12    1    3    3    0    0  0.27318080454E+00  0.18178710595E+02 -0.11330499891E+02  0.21422426904E+02  0.00000000000E+00 0.  1.
</event>
<event>
 7    1  0.5642630E-013  0.5052886E+02  0.7816164E-02  0.1300439E+00
        -11   -1    0    0    0    0  0.00000000000E+00  0.00000000000E+00  0.45593999997E+02  0.45594000000E+02  0.51100000000E-03 0.  1.
         11   -1    0    0    0    0 -0.00000000000E+00 -0.00000000000E+00 -0.45593999997E+02  0.45594000000E+02  0.51100000000E-03 0. -1.
    9900012    2    1    2    0    0  0.23313179971E+02 -0.32057688661E+02  0.90535077416E+01  0.50528858776E+02  0.29999996735E+02 0.  0.
         12    1    1    2    0    0 -0.23313179971E+02  0.32057688661E+02 -0.90535077416E+01  0.40659141224E+02  0.00000000000E+00 0. -1.
         11    1    3    3    0    0  0.48029430666E+00 -0.44263090182E+01  0.11921852742E+02  0.12726093950E+02  0.51100000000E-03 0.  1.
        -11    1    3    3    0    0  0.10644775088E+02 -0.47806624091E+01 -0.23290101580E+01  0.11899170489E+02  0.51100000000E-03 0. -1.
        -12    1    3    3    0    0  0.12188110577E+02 -0.22850717234E+02 -0.53933484256E+00  0.25903594338E+02  0.00000000000E+00 0.  1.
</event>
<event>
 7    1  0.5642630E-013  0.5052886E+02  0.7816164E-02  0.1300439E+00
        -11   -1    0    0    0    0  0.00000000000E+00  0.00000000000E+00  0.45593999997E+02  0.45594000000E+02  0.51100000000E-03 0. -1.
         11   -1    0    0    0    0 -0.00000000000E+00 -0.00000000000E+00 -0.45593999997E+02  0.45594000000E+02  0.51100000000E-03 0.  1.
    9900012    2    1    2    0    0  0.72789915385E+01  0.39438519551E+02  0.66921493748E+01  0.50528863198E+02  0.30000010178E+02 0.  0.
         12    1    1    2    0    0 -0.72789915385E+01 -0.39438519551E+02 -0.66921493748E+01  0.40659136802E+02  0.00000000000E+00 0. -1.
         11    1    3    3    0    0 -0.36282367259E+01  0.61713406811E+00  0.92749628889E+00  0.37954190578E+01  0.51100000000E-03 0. -1.
        -11    1    3    3    0    0  0.12178950021E+01  0.47670809064E+01 -0.74616008280E+01  0.89377746549E+01  0.51100000000E-03 0.  1.
         12    1    3    3    0    0  0.96893332623E+01  0.34054304577E+02  0.13226253914E+02  0.37795669486E+02  0.00000000000E+00 0. -1.
</event>
<event>
 7    1  0.5642630E-013  0.5052886E+02  0.7816164E-02  0.1300439E+00
        -11   -1    0    0    0    0  0.00000000000E+00  0.00000000000E+00  0.45593999997E+02  0.45594000000E+02  0.51100000000E-03 0.  1.
         11   -1    0    0    0    0 -0.00000000000E+00 -0.00000000000E+00 -0.45593999997E+02  0.45594000000E+02  0.51100000000E-03 0. -1.
    9900012    2    1    2    0    0  0.25251309273E+02 -0.61199998999E+01  0.31274317489E+02  0.50528856463E+02  0.29999989704E+02 0.  0.
         12    1    1    2    0    0 -0.25251309273E+02  0.61199998999E+01 -0.31274317489E+02  0.40659143537E+02  0.00000000000E+00 0. -1.
         11    1    3    3    0    0 -0.28925061259E+01  0.19621469521E+01 -0.16153035241E+01  0.38504308962E+01  0.51100000000E-03 0. -1.
        -11    1    3    3    0    0  0.36327003212E+00 -0.28880511521E+01 -0.47871298450E+00  0.29499103302E+01  0.51100000000E-03 0.  1.
        -12    1    3    3    0    0  0.27780545367E+02 -0.51940956999E+01  0.33368333997E+02  0.43728515236E+02  0.00000000000E+00 0.  1.
</event>
<event>
 7    1  0.5642630E-013  0.5052885E+02  0.7816164E-02  0.1300439E+00
        -11   -1    0    0    0    0  0.00000000000E+00  0.00000000000E+00  0.45593999997E+02  0.45594000000E+02  0.51100000000E-03 0. -1.
         11   -1    0    0    0    0 -0.00000000000E+00 -0.00000000000E+00 -0.45593999997E+02  0.45594000000E+02  0.51100000000E-03 0.  1.
    9900012    2    1    2    0    0 -0.14300486231E+02 -0.36399820277E+02 -0.11122749776E+02  0.50528851150E+02  0.29999973555E+02 0.  0.
         12    1    1    2    0    0  0.14300486231E+02  0.36399820277E+02  0.11122749776E+02  0.40659148850E+02  0.00000000000E+00 0. -1.
         11    1    3    3    0    0  0.14292903358E+01 -0.14330424040E+02 -0.14717041534E+02  0.20591144596E+02  0.51100000000E-03 0. -1.
        -11    1    3    3    0    0 -0.35249564126E+01 -0.14602103805E+02  0.42610639946E+01  0.15614205708E+02  0.51100000000E-03 0.  1.
        -12    1    3    3    0    0 -0.12204820154E+02 -0.74672924320E+01 -0.66677223713E+00  0.14323500846E+02  0.00000000000E+00 0.  1.
</event>
<event>
 7    1  0.5642630E-013  0.5052885E+02  0.7816164E-02  0.1300439E+00
        -11   -1    0    0    0    0  0.00000000000E+00  0.00000000000E+00  0.45593999997E+02  0.45594000000E+02  0.51100000000E-03 0. -1.
         11   -1    0    0    0    0 -0.00000000000E+00 -0.00000000000E+00 -0.45593999997E+02  0.45594000000E+02  0.51100000000E-03 0.  1.
    9900012    2    1    2    0    0  0.19940881762E+02 -0.17297689260E+02 -0.30924388156E+02  0.50528848484E+02  0.29999965452E+02 0.  0.
         12    1    1    2    0    0 -0.19940881762E+02  0.17297689260E+02  0.30924388156E+02  0.40659151516E+02  0.00000000000E+00 0. -1.
         11    1    3    3    0    0 -0.44347339042E+01  0.21990053959E+01 -0.45214332661E+00  0.49706059371E+01  0.51100000000E-03 0. -1.
        -11    1    3    3    0    0  0.13783235364E+02 -0.66013003767E+01 -0.22149094921E+02  0.26909796540E+02  0.51100000000E-03 0.  1.
        -12    1    3    3    0    0  0.10592380302E+02 -0.12895394279E+02 -0.83231499084E+01  0.18648446007E+02  0.00000000000E+00 0.  1.
</event>
<event>
 7    1  0.5642630E-013  0.5052887E+02  0.7816164E-02  0.1300439E+00
        -11   -1    0    0    0    0  0.00000000000E+00  0.00000000000E+00  0.45593999997E+02  0.45594000000E+02  0.51100000000E-03 0. -1.
         11   -1    0    0    0    0 -0.00000000000E+00 -0.00000000000E+00 -0.45593999997E+02  0.45594000000E+02  0.51100000000E-03 0.  1.
    9900012    2    1    2    0    0 -0.22598886246E+02 -0.26647207584E+02 -0.20793777308E+02  0.50528874255E+02  0.30000043786E+02 0.  0.
         12    1    1    2    0    0  0.22598886246E+02  0.26647207584E+02  0.20793777308E+02  0.40659125745E+02  0.00000000000E+00 0. -1.
         11    1    3    3    0    0 -0.15981447132E+02 -0.79045393148E+01 -0.30644220138E+01  0.18090856164E+02  0.51100000000E-03 0. -1.
        -11    1    3    3    0    0 -0.11033067049E+02 -0.40836245072E+01 -0.90197052645E+01  0.14824292258E+02  0.51100000000E-03 0.  1.
         12    1    3    3    0    0  0.44156279353E+01 -0.14659043762E+02 -0.87096500294E+01  0.17613725833E+02  0.00000000000E+00 0. -1.
</event>
<event>
 7    1  0.5642630E-013  0.5052886E+02  0.7816164E-02  0.1300439E+00
        -11   -1    0    0    0    0  0.00000000000E+00  0.00000000000E+00  0.45593999997E+02  0.45594000000E+02  0.51100000000E-03 0.  1.
         11   -1    0    0    0    0 -0.00000000000E+00 -0.00000000000E+00 -0.45593999997E+02  0.45594000000E+02  0.51100000000E-03 0. -1.
    9900012    2    1    2    0    0  0.18434277670E+02 -0.34004276791E+02 -0.12532044071E+02  0.50528861275E+02  0.30000004331E+02 0.  0.
         12    1    1    2    0    0 -0.18434277670E+02  0.34004276791E+02  0.12532044071E+02  0.40659138725E+02  0.00000000000E+00 0. -1.
         11    1    3    3    0    0  0.20366310376E+02 -0.21835425622E+02 -0.55423491440E+01  0.30369228583E+02  0.51100000000E-03 0.  1.
        -11    1    3    3    0    0 -0.10239901033E+01  0.27084022608E+01 -0.40321555099E+01  0.49640987959E+01  0.51100000000E-03 0. -1.
        -12    1    3    3    0    0 -0.90804260297E+00 -0.14877253429E+02 -0.29575394170E+01  0.15195533896E+02  0.00000000000E+00 0.  1.
</event>
<event>
 7    1  0.5642630E-013  0.5052887E+02  0.7816164E-02  0.1300439E+00
        -11   -1    0    0    0    0  0.00000000000E+00  0.00000000000E+00  0.45593999997E+02  0.45594000000E+02  0.51100000000E-03 0.  1.
         11   -1    0    0    0    0 -0.00000000000E+00 -0.00000000000E+00 -0.45593999997E+02  0.45594000000E+02  0.51100000000E-03 0. -1.
    9900012    2    1    2    0    0 -0.49962103499E+00  0.25646153812E+02 -0.31546635801E+02  0.50528867485E+02  0.30000023207E+02 0.  0.
         12    1    1    2    0    0  0.49962103499E+00 -0.25646153812E+02  0.31546635801E+02  0.40659132515E+02  0.00000000000E+00 0. -1.
         11    1    3    3    0    0 -0.65966821451E+01  0.13261992989E+01 -0.19120138574E+00  0.67313875342E+01  0.51100000000E-03 0. -1.
        -11    1    3    3    0    0  0.83540689776E+01  0.26215278193E+01 -0.94208565915E+01  0.12861392451E+02  0.51100000000E-03 0.  1.
        -12    1    3    3    0    0 -0.22570078675E+01  0.21698426694E+02 -0.21934577824E+02  0.30936087500E+02  0.00000000000E+00 0.  1.
</event>
<event>
 7    1  0.5642630E-013  0.5052887E+02  0.7816164E-02  0.1300439E+00
        -11   -1    0    0    0    0  0.00000000000E+00  0.00000000000E+00  0.45593999997E+02  0.45594000000E+02  0.51100000000E-03 0.  1.
         11   -1    0    0    0    0 -0.00000000000E+00 -0.00000000000E+00 -0.45593999997E+02  0.45594000000E+02  0.51100000000E-03 0. -1.
    9900012    2    1    2    0    0  0.18997652065E+01 -0.55119503028E+01  0.40238967421E+02  0.50528865687E+02  0.30000017743E+02 0.  0.
         12    1    1    2    0    0 -0.18997652065E+01  0.55119503028E+01 -0.40238967421E+02  0.40659134313E+02  0.00000000000E+00 0. -1.
         11    1    3    3    0    0  0.26016956182E+01  0.45107380634E+01  0.18571351184E+01  0.55285196097E+01  0.51100000000E-03 0. -1.
        -11    1    3    3    0    0  0.57531357209E+01  0.45065199228E+01  0.90050607967E+01  0.11597345069E+02  0.51100000000E-03 0.  1.
        -12    1    3    3    0    0 -0.64550661326E+01 -0.14529208289E+02  0.29376771506E+02  0.33403001008E+02  0.00000000000E+00 0.  1.
</event>
<event>
 7    1  0.5642630E-013  0.5052886E+02  0.7816164E-02  0.1300439E+00
        -11   -1    0    0    0    0  0.00000000000E+00  0.00000000000E+00  0.45593999997E+02  0.45594000000E+02  0.51100000000E-03 0.  1.
         11   -1    0    0    0    0 -0.00000000000E+00 -0.00000000000E+00 -0.45593999997E+02  0.45594000000E+02  0.51100000000E-03 0. -1.
    9900012    2    1    2    0    0 -0.20223130497E+02  0.35272356895E+02 -0.22638481135E+00  0.50528863043E+02  0.30000009704E+02 0.  0.
         12    1    1    2    0    0  0.20223130497E+02 -0.35272356895E+02  0.22638481135E+00  0.40659136957E+02  0.00000000000E+00 0. -1.
         11    1    3    3    0    0  0.31675339531E+01  0.50014855857E+01 -0.49557145779E+01  0.77205723005E+01  0.51100000000E-03 0.  1.
        -11    1    3    3    0    0  0.25456461439E+01  0.58946188234E-01  0.12562740289E+01  0.28393685284E+01  0.51100000000E-03 0. -1.
        -12    1    3    3    0    0 -0.25936310594E+02  0.30211925121E+02  0.34730557377E+01  0.39968922214E+02  0.00000000000E+00 0.  1.
</event>
<event>
 7    1  0.5642630E-013  0.5052885E+02  0.7816164E-02  0.1300439E+00
        -11   -1    0    0    0    0  0.00000000000E+00  0.00000000000E+00  0.45593999997E+02  0.45594000000E+02  0.51100000000E-03 0. -1.
         11   -1    0    0    0    0 -0.00000000000E+00 -0.00000000000E+00 -0.45593999997E+02  0.45594000000E+02  0.51100000000E-03 0.  1.
    9900012    2    1    2    0    0 -0.36484820569E+02  0.93284314941E+01 -0.15329862014E+02  0.50528850532E+02  0.29999971678E+02 0.  0.
         12    1    1    2    0    0  0.36484820569E+02 -0.93284314941E+01  0.15329862014E+02  0.40659149468E+02  0.00000000000E+00 0. -1.
         11    1    3    3    0    0  0.11432061812E+01  0.66700616770E+01 -0.54239538180E+00  0.67890232110E+01  0.51100000000E-03 0. -1.
        -11    1    3    3    0    0 -0.22055305573E+02 -0.45336526162E+01 -0.25321650581E+01  0.22658384102E+02  0.51100000000E-03 0.  1.
        -12    1    3    3    0    0 -0.15572721177E+02  0.71920224334E+01 -0.12255301574E+02  0.21081443219E+02  0.00000000000E+00 0.  1.
</event>
<event>
 7    1  0.5642630E-013  0.5052889E+02  0.7816164E-02  0.1300439E+00
        -11   -1    0    0    0    0  0.00000000000E+00  0.00000000000E+00  0.45593999997E+02  0.45594000000E+02  0.51100000000E-03 0.  1.
         11   -1    0    0    0    0 -0.00000000000E+00 -0.00000000000E+00 -0.45593999997E+02  0.45594000000E+02  0.51100000000E-03 0. -1.
    9900012    2    1    2    0    0 -0.39128544306E+02 -0.50425943347E+01  0.98332372436E+01  0.50528889191E+02  0.30000089183E+02 0.  0.
         12    1    1    2    0    0  0.39128544306E+02  0.50425943347E+01 -0.98332372436E+01  0.40659110809E+02  0.00000000000E+00 0. -1.
         11    1    3    3    0    0 -0.16561554855E+02 -0.48317494466E+01 -0.96862533500E+01  0.19785206751E+02  0.51100000000E-03 0. -1.
        -11    1    3    3    0    0 -0.18117843469E+01 -0.16004396315E+01  0.32477547426E+00  0.24391492172E+01  0.51100000000E-03 0.  1.
        -12    1    3    3    0    0 -0.20755205104E+02  0.13895947434E+01  0.19194715119E+02  0.28304533223E+02  0.00000000000E+00 0.  1.
</event>
<event>
 7    1  0.5642630E-013  0.5052886E+02  0.7816164E-02  0.1300439E+00
        -11   -1    0    0    0    0  0.00000000000E+00  0.00000000000E+00  0.45593999997E+02  0.45594000000E+02  0.51100000000E-03 0. -1.
         11   -1    0    0    0    0 -0.00000000000E+00 -0.00000000000E+00 -0.45593999997E+02  0.45594000000E+02  0.51100000000E-03 0.  1.
    9900012    2    1    2    0    0 -0.16448446016E+02  0.37137949196E+02  0.18404158159E+01  0.50528858627E+02  0.29999996282E+02 0.  0.
         12    1    1    2    0    0  0.16448446016E+02 -0.37137949196E+02 -0.18404158159E+01  0.40659141373E+02  0.00000000000E+00 0. -1.
         11    1    3    3    0    0 -0.27464916222E+01  0.10187578948E+02 -0.46658310772E+01  0.11536895637E+02  0.51100000000E-03 0. -1.
        -11    1    3    3    0    0 -0.11618032457E+02  0.14742514579E+02 -0.75735753574E+01  0.20240539969E+02  0.51100000000E-03 0.  1.
         12    1    3    3    0    0 -0.20839219365E+01  0.12207855670E+02  0.14079822250E+02  0.18751423020E+02  0.00000000000E+00 0. -1.
</event>
<event>
 7    1  0.5642630E-013  0.5052889E+02  0.7816164E-02  0.1300439E+00
        -11   -1    0    0    0    0  0.00000000000E+00  0.00000000000E+00  0.45593999997E+02  0.45594000000E+02  0.51100000000E-03 0. -1.
         11   -1    0    0    0    0 -0.00000000000E+00 -0.00000000000E+00 -0.45593999997E+02  0.45594000000E+02  0.51100000000E-03 0.  1.
    9900012    2    1    2    0    0 -0.15306787116E+02  0.11956819125E+02 -0.35719743479E+02  0.50528888726E+02  0.30000087771E+02 0.  0.
         12    1    1    2    0    0  0.15306787116E+02 -0.11956819125E+02  0.35719743479E+02  0.40659111274E+02  0.00000000000E+00 0. -1.
         11    1    3    3    0    0  0.18670668660E+01  0.21331561025E+01  0.34186731009E+00  0.28553751345E+01  0.51100000000E-03 0. -1.
        -11    1    3    3    0    0  0.55233692075E+01  0.15681943304E+01 -0.13298343030E+02  0.14484915204E+02  0.51100000000E-03 0.  1.
        -12    1    3    3    0    0 -0.22697223190E+02  0.82554686923E+01 -0.22763267759E+02  0.33188598388E+02  0.00000000000E+00 0.  1.
</event>
<event>
 7    1  0.5642630E-013  0.5052887E+02  0.7816164E-02  0.1300439E+00
        -11   -1    0    0    0    0  0.00000000000E+00  0.00000000000E+00  0.45593999997E+02  0.45594000000E+02  0.51100000000E-03 0.  1.
         11   -1    0    0    0    0 -0.00000000000E+00 -0.00000000000E+00 -0.45593999997E+02  0.45594000000E+02  0.51100000000E-03 0. -1.
    9900012    2    1    2    0    0 -0.24666806559E+02  0.21971177025E+02  0.23706140904E+02  0.50528867173E+02  0.30000022258E+02 0.  0.
         12    1    1    2    0    0  0.24666806559E+02 -0.21971177025E+02 -0.23706140904E+02  0.40659132827E+02  0.00000000000E+00 0. -1.
         11    1    3    3    0    0  0.84986940020E+00  0.49992991420E+01  0.54344467209E+01  0.74329322163E+01  0.51100000000E-03 0. -1.
        -11    1    3    3    0    0 -0.75681474156E+01 -0.97017944048E+00  0.15863954818E+02  0.17603498691E+02  0.51100000000E-03 0.  1.
         12    1    3    3    0    0 -0.17948528543E+02  0.17942057324E+02  0.24077393658E+01  0.25492436265E+02  0.00000000000E+00 0. -1.
</event>
<event>
 7    1  0.5642630E-013  0.5052887E+02  0.7816164E-02  0.1300439E+00
        -11   -1    0    0    0    0  0.00000000000E+00  0.00000000000E+00  0.45593999997E+02  0.45594000000E+02  0.51100000000E-03 0. -1.
         11   -1    0    0    0    0 -0.00000000000E+00 -0.00000000000E+00 -0.45593999997E+02  0.45594000000E+02  0.51100000000E-03 0.  1.
    9900012    2    1    2    0    0  0.28305418414E+01 -0.12744668145E+02 -0.38506190369E+02  0.50528865356E+02  0.30000016736E+02 0.  0.
         12    1    1    2    0    0 -0.28305418414E+01  0.12744668145E+02  0.38506190369E+02  0.40659134644E+02  0.00000000000E+00 0. -1.
         11    1    3    3    0    0  0.50369017785E+01 -0.10044930554E+02 -0.99234572258E+01  0.14991531374E+02  0.51100000000E-03 0. -1.
        -11    1    3    3    0    0  0.90610631376E+01 -0.77284061257E+00 -0.86016516983E+01  0.12517530108E+02  0.51100000000E-03 0.  1.
        -12    1    3    3    0    0 -0.11267423075E+02 -0.19268969790E+01 -0.19981081445E+02  0.23019803875E+02  0.00000000000E+00 0.  1.
</event>
<event>
 7    1  0.5642630E-013  0.5052886E+02  0.7816164E-02  0.1300439E+00
        -11   -1    0    0    0    0  0.00000000000E+00  0.00000000000E+00  0.45593999997E+02  0.45594000000E+02  0.51100000000E-03 0.  1.
         11   -1    0    0    0    0 -0.00000000000E+00 -0.00000000000E+00 -0.45593999997E+02  0.45594000000E+02  0.51100000000E-03 0. -1.
    9900012    2    1    2    0    0  0.38658865754E+02 -0.86851009357E+01 -0.91228609017E+01  0.50528862396E+02  0.30000007740E+02 0.  0.
         12    1    1    2    0    0 -0.38658865754E+02  0.86851009357E+01  0.91228609017E+01  0.40659137604E+02  0.00000000000E+00 0. -1.
         11    1    3    3    0    0  0.38427259852E+01 -0.79235537125E+01 -0.28446976483E+01  0.92542720623E+01  0.51100000000E-03 0. -1.
        -11    1    3    3    0    0  0.19388764087E+02 -0.93659836613E+01 -0.91174653057E+01  0.23383199025E+02  0.51100000000E-03 0.  1.
         12    1    3    3    0    0  0.15427375682E+02  0.86044364380E+01  0.28393020523E+01  0.17891391309E+02  0.00000000000E+00 0. -1.
</event>
<event>
 7    1  0.5642630E-013  0.5052885E+02  0.7816164E-02  0.1300439E+00
        -11   -1    0    0    0    0  0.00000000000E+00  0.00000000000E+00  0.45593999997E+02  0.45594000000E+02  0.51100000000E-03 0. -1.
         11   -1    0    0    0    0 -0.00000000000E+00 -0.00000000000E+00 -0.45593999997E+02  0.45594000000E+02  0.51100000000E-03 0.  1.
    9900012    2    1    2    0    0  0.25259340439E+02  0.82774573203E+00 -0.31850387560E+02  0.50528848138E+02  0.29999964401E+02 0.  0.
         12    1    1    2    0    0 -0.25259340439E+02 -0.82774573203E+00  0.31850387560E+02  0.40659151862E+02  0.00000000000E+00 0. -1.
         11    1    3    3    0    0 -0.10000014733E+01  0.60575865236E+01 -0.19576298239E+01  0.64441191971E+01  0.51100000000E-03 0. -1.
        -11    1    3    3    0    0  0.88720185948E+01  0.52432201903E+01 -0.17481610080E+02  0.20293121080E+02  0.51100000000E-03 0.  1.
         12    1    3    3    0    0  0.17387323318E+02 -0.10473060982E+02 -0.12411147656E+02  0.23791607861E+02  0.00000000000E+00 0. -1.
</event>
<event>
 7    1  0.5642630E-013  0.5052886E+02  0.7816164E-02  0.1300439E+00
        -11   -1    0    0    0    0  0.00000000000E+00  0.00000000000E+00  0.45593999997E+02  0.45594000000E+02  0.51100000000E-03 0.  1.
         11   -1    0    0    0    0 -0.00000000000E+00 -0.00000000000E+00 -0.45593999997E+02  0.45594000000E+02  0.51100000000E-03 0. -1.
    9900012    2    1    2    0    0  0.38197050059E+02 -0.10041546953E+02  0.96601291223E+01  0.50528863350E+02  0.30000010640E+02 0.  0.
         12    1    1    2    0    0 -0.38197050059E+02  0.10041546953E+02 -0.96601291223E+01  0.40659136650E+02  0.00000000000E+00 0. -1.
         11    1    3    3    0    0  0.10714177271E+02  0.69267585573E+01 -0.88913550110E-01  0.12758584741E+02  0.51100000000E-03 0. -1.
        -11    1    3    3    0    0  0.17400468790E+02 -0.50855449493E+01  0.12398665471E+02  0.21962831950E+02  0.51100000000E-03 0.  1.
         12    1    3    3    0    0  0.10082403998E+02 -0.11882760561E+02 -0.26496227986E+01  0.15807446659E+02  0.00000000000E+00 0. -1.
</event>
<event>
 7    1  0.5642630E-013  0.5052885E+02  0.7816164E-02  0.1300439E+00
        -11   -1    0    0    0    0  0.00000000000E+00  0.00000000000E+00  0.45593999997E+02  0.45594000000E+02  0.51100000000E-03 0.  1.
         11   -1    0    0    0    0 -0.00000000000E+00 -0.00000000000E+00 -0.45593999997E+02  0.45594000000E+02  0.51100000000E-03 0. -1.
    9900012    2    1    2    0    0  0.27484449729E+00  0.20027978360E+02  0.35383198017E+02  0.50528853936E+02  0.29999982025E+02 0.  0.
         12    1    1    2    0    0 -0.27484449729E+00 -0.20027978360E+02 -0.35383198017E+02  0.40659146064E+02  0.00000000000E+00 0. -1.
         11    1    3    3    0    0  0.10116691213E+01  0.33557897204E+01  0.18857986263E+02  0.19180939633E+02  0.51100000000E-03 0. -1.
        -11    1    3    3    0    0  0.43341260307E+01  0.19964228669E+02  0.11237687691E+02  0.23316103871E+02  0.51100000000E-03 0.  1.
         12    1    3    3    0    0 -0.50709506547E+01 -0.32920400297E+01  0.52875240632E+01  0.80318104322E+01  0.00000000000E+00 0. -1.
</event>
<event>
 7    1  0.5642630E-013  0.5052886E+02  0.7816164E-02  0.1300439E+00
        -11   -1    0    0    0    0  0.00000000000E+00  0.00000000000E+00  0.45593999997E+02  0.45594000000E+02  0.51100000000E-03 0.  1.
         11   -1    0    0    0    0 -0.00000000000E+00 -0.00000000000E+00 -0.45593999997E+02  0.45594000000E+02  0.51100000000E-03 0. -1.
    9900012    2    1    2    0    0  0.15798731291E+02 -0.98914060673E+01  0.36134831059E+02  0.50528857854E+02  0.29999993932E+02 0.  0.
         12    1    1    2    0    0 -0.15798731291E+02  0.98914060673E+01 -0.36134831059E+02  0.40659142146E+02  0.00000000000E+00 0. -1.
         11    1    3    3    0    0  0.46703613661E+01  0.45947062534E+01 -0.11162581401E+01  0.66460238746E+01  0.51100000000E-03 0. -1.
        -11    1    3    3    0    0  0.99871715851E+01 -0.25179593179E+01  0.11344726954E+02  0.15322746011E+02  0.51100000000E-03 0.  1.
        -12    1    3    3    0    0  0.11411983398E+01 -0.11968153003E+02  0.25906362245E+02  0.28560087968E+02  0.00000000000E+00 0.  1.
</event>
<event>
 7    1  0.5642630E-013  0.5052886E+02  0.7816164E-02  0.1300439E+00
        -11   -1    0    0    0    0  0.00000000000E+00  0.00000000000E+00  0.45593999997E+02  0.45594000000E+02  0.51100000000E-03 0.  1.
         11   -1    0    0    0    0 -0.00000000000E+00 -0.00000000000E+00 -0.45593999997E+02  0.45594000000E+02  0.51100000000E-03 0. -1.
    9900012    2    1    2    0    0 -0.60631687323E+01 -0.36953622364E+02  0.15837722401E+02  0.50528859923E+02  0.30000000223E+02 0.  0.
         12    1    1    2    0    0  0.60631687323E+01  0.36953622364E+02 -0.15837722401E+02  0.40659140077E+02  0.00000000000E+00 0. -1.
         11    1    3    3    0    0 -0.48541635408E+01 -0.73159757964E+01  0.22623152521E+01  0.90666684121E+01  0.51100000000E-03 0. -1.
        -11    1    3    3    0    0 -0.89099694912E+01 -0.25519493367E+02  0.17165522049E+02  0.32020106894E+02  0.51100000000E-03 0.  1.
         12    1    3    3    0    0  0.77009642996E+01 -0.41181532008E+01 -0.35901148993E+01  0.94420846173E+01  0.00000000000E+00 0. -1.
</event>
<event>
 7    1  0.5642630E-013  0.5052887E+02  0.7816164E-02  0.1300439E+00
        -11   -1    0    0    0    0  0.00000000000E+00  0.00000000000E+00  0.45593999997E+02  0.45594000000E+02  0.51100000000E-03 0.  1.
         11   -1    0    0    0    0 -0.00000000000E+00 -0.00000000000E+00 -0.45593999997E+02  0.45594000000E+02  0.51100000000E-03 0. -1.
    9900012    2    1    2    0    0  0.10228256637E+01  0.29816433490E+02  0.27624244571E+02  0.50528871056E+02  0.30000034063E+02 0.  0.
         12    1    1    2    0    0 -0.10228256637E+01 -0.29816433490E+02 -0.27624244571E+02  0.40659128944E+02  0.00000000000E+00 0. -1.
         11    1    3    3    0    0 -0.53934808921E+01  0.98058494099E+01  0.21909291497E+02  0.24602060340E+02  0.51100000000E-03 0. -1.
        -11    1    3    3    0    0 -0.13572451630E+01  0.25145770104E+01  0.61448919815E+01  0.67767919917E+01  0.51100000000E-03 0.  1.
         12    1    3    3    0    0  0.77735517188E+01  0.17496007069E+02 -0.42993890843E+00  0.19150018725E+02  0.00000000000E+00 0. -1.
</event>
<event>
 7    1  0.5642630E-013  0.5052886E+02  0.7816164E-02  0.1300439E+00
        -11   -1    0    0    0    0  0.00000000000E+00  0.00000000000E+00  0.45593999997E+02  0.45594000000E+02  0.51100000000E-03 0.  1.
         11   -1    0    0    0    0 -0.00000000000E+00 -0.00000000000E+00 -0.45593999997E+02  0.45594000000E+02  0.51100000000E-03 0. -1.
    9900012    2    1    2    0    0  0.34322602642E+02  0.71969376364E+01  0.20574946784E+02  0.50528863283E+02  0.30000010434E+02 0.  0.
         12    1    1    2    0    0 -0.34322602642E+02 -0.71969376364E+01 -0.20574946784E+02  0.40659136717E+02  0.00000000000E+00 0. -1.
         11    1    3    3    0    0  0.10402794895E+02 -0.23484279386E+01 -0.20790295188E+01  0.10865340280E+02  0.51100000000E-03 0. -1.
        -11    1    3    3    0    0  0.13608429885E+02 -0.38263827959E+01  0.44181632886E+01  0.14810494128E+02  0.51100000000E-03 0.  1.
         12    1    3    3    0    0  0.10311377862E+02  0.13371748371E+02  0.18235813014E+02  0.24853028874E+02  0.00000000000E+00 0. -1.
</event>
<event>
 7    1  0.5642630E-013  0.5052886E+02  0.7816164E-02  0.1300439E+00
        -11   -1    0    0    0    0  0.00000000000E+00  0.00000000000E+00  0.45593999997E+02  0.45594000000E+02  0.51100000000E-03 0.  1.
         11   -1    0    0    0    0 -0.00000000000E+00 -0.00000000000E+00 -0.45593999997E+02  0.45594000000E+02  0.51100000000E-03 0. -1.
    9900012    2    1    2    0    0 -0.37638062630E+02 -0.85428823379E+01  0.12789095750E+02  0.50528861209E+02  0.30000004130E+02 0.  0.
         12    1    1    2    0    0  0.37638062630E+02  0.85428823379E+01 -0.12789095750E+02  0.40659138791E+02  0.00000000000E+00 0. -1.
         11    1    3    3    0    0  0.26151866640E+01  0.69391268829E+00  0.15887948906E+01  0.31376719988E+01  0.51100000000E-03 0. -1.
        -11    1    3    3    0    0 -0.18429258113E+02 -0.19043270175E+01  0.15272848977E+02  0.24010912772E+02  0.51100000000E-03 0.  1.
        -12    1    3    3    0    0 -0.21823991181E+02 -0.73324680086E+01 -0.40725481181E+01  0.23380276438E+02  0.00000000000E+00 0.  1.
</event>
<event>
 7    1  0.5642630E-013  0.5052881E+02  0.7816164E-02  0.1300439E+00
        -11   -1    0    0    0    0  0.00000000000E+00  0.00000000000E+00  0.45593999997E+02  0.45594000000E+02  0.51100000000E-03 0.  1.
         11   -1    0    0    0    0 -0.00000000000E+00 -0.00000000000E+00 -0.45593999997E+02  0.45594000000E+02  0.51100000000E-03 0. -1.
    9900012    2    1    2    0    0  0.26794044226E+02 -0.27424848276E+02  0.13532422819E+02  0.50528811908E+02  0.29999854276E+02 0.  0.
         12    1    1    2    0    0 -0.26794044226E+02  0.27424848276E+02 -0.13532422819E+02  0.40659188092E+02  0.00000000000E+00 0. -1.
         11    1    3    3    0    0  0.17886757028E+01  0.34014210388E+01  0.65522188947E+00  0.38985050774E+01  0.51100000000E-03 0. -1.
        -11    1    3    3    0    0  0.18322400518E+02 -0.95579830435E+01  0.12853484191E+02  0.24336751153E+02  0.51100000000E-03 0.  1.
         12    1    3    3    0    0  0.66829680051E+01 -0.21268286271E+02  0.23716738516E-01  0.22293555678E+02  0.00000000000E+00 0. -1.
</event>
<event>
 7    1  0.5642630E-013  0.5052887E+02  0.7816164E-02  0.1300439E+00
        -11   -1    0    0    0    0  0.00000000000E+00  0.00000000000E+00  0.45593999997E+02  0.45594000000E+02  0.51100000000E-03 0.  1.
         11   -1    0    0    0    0 -0.00000000000E+00 -0.00000000000E+00 -0.45593999997E+02  0.45594000000E+02  0.51100000000E-03 0. -1.
    9900012    2    1    2    0    0  0.26370884529E+02  0.16697788229E+02  0.26056195756E+02  0.50528867940E+02  0.30000024591E+02 0.  0.
         12    1    1    2    0    0 -0.26370884529E+02 -0.16697788229E+02 -0.26056195756E+02  0.40659132060E+02  0.00000000000E+00 0. -1.
         11    1    3    3    0    0  0.91622588866E+00 -0.10559856626E+01 -0.75259106482E+00  0.15877560173E+01  0.51100000000E-03 0.  1.
        -11    1    3    3    0    0  0.73465579880E+00  0.12352432391E+02  0.42014911069E+00  0.12381390498E+02  0.51100000000E-03 0. -1.
         12    1    3    3    0    0  0.24720002842E+02  0.54013415006E+01  0.26388637710E+02  0.36559721425E+02  0.00000000000E+00 0. -1.
</event>
<event>
 7    1  0.5642630E-013  0.5052886E+02  0.7816164E-02  0.1300439E+00
        -11   -1    0    0    0    0  0.00000000000E+00  0.00000000000E+00  0.45593999997E+02  0.45594000000E+02  0.51100000000E-03 0.  1.
         11   -1    0    0    0    0 -0.00000000000E+00 -0.00000000000E+00 -0.45593999997E+02  0.45594000000E+02  0.51100000000E-03 0. -1.
    9900012    2    1    2    0    0 -0.16788437653E+02 -0.54626203747E+01  0.36626139967E+02  0.50528856021E+02  0.29999988363E+02 0.  0.
         12    1    1    2    0    0  0.16788437653E+02  0.54626203747E+01 -0.36626139967E+02  0.40659143979E+02  0.00000000000E+00 0. -1.
         11    1    3    3    0    0 -0.15862278825E+02  0.54233866656E+01  0.14582694844E+02  0.22218910901E+02  0.51100000000E-03 0. -1.
        -11    1    3    3    0    0 -0.52260833945E+01  0.46056312764E+00  0.41451570563E+01  0.66862839698E+01  0.51100000000E-03 0.  1.
         12    1    3    3    0    0  0.42999245666E+01 -0.11346570168E+02  0.17898288067E+02  0.21623661151E+02  0.00000000000E+00 0. -1.
</event>
<event>
 7    1  0.5642630E-013  0.5052886E+02  0.7816164E-02  0.1300439E+00
        -11   -1    0    0    0    0  0.00000000000E+00  0.00000000000E+00  0.45593999997E+02  0.45594000000E+02  0.51100000000E-03 0. -1.
         11   -1    0    0    0    0 -0.00000000000E+00 -0.00000000000E+00 -0.45593999997E+02  0.45594000000E+02  0.51100000000E-03 0.  1.
    9900012    2    1    2    0    0 -0.33507019755E+02  0.17648939971E+02 -0.14797306358E+02  0.50528859202E+02  0.29999998032E+02 0.  0.
         12    1    1    2    0    0  0.33507019755E+02 -0.17648939971E+02  0.14797306358E+02  0.40659140798E+02  0.00000000000E+00 0. -1.
         11    1    3    3    0    0 -0.18846238258E+02  0.17547975605E+01 -0.12399644263E+02  0.22627664242E+02  0.51100000000E-03 0. -1.
        -11    1    3    3    0    0 -0.43284221319E+01  0.75302877191E+00 -0.76597222471E+01  0.88302681526E+01  0.51100000000E-03 0.  1.
        -12    1    3    3    0    0 -0.10332359364E+02  0.15141113639E+02  0.52620601515E+01  0.19070926807E+02  0.00000000000E+00 0.  1.
</event>
<event>
 7    1  0.5642630E-013  0.5052886E+02  0.7816164E-02  0.1300439E+00
        -11   -1    0    0    0    0  0.00000000000E+00  0.00000000000E+00  0.45593999997E+02  0.45594000000E+02  0.51100000000E-03 0.  1.
         11   -1    0    0    0    0 -0.00000000000E+00 -0.00000000000E+00 -0.45593999997E+02  0.45594000000E+02  0.51100000000E-03 0. -1.
    9900012    2    1    2    0    0  0.21945586988E+02 -0.10160620333E+02  0.32685144588E+02  0.50528859939E+02  0.30000000269E+02 0.  0.
         12    1    1    2    0    0 -0.21945586988E+02  0.10160620333E+02 -0.32685144588E+02  0.40659140061E+02  0.00000000000E+00 0. -1.
         11    1    3    3    0    0  0.12164098458E+02 -0.68937000900E+01  0.11392031188E+01  0.14028049624E+02  0.51100000000E-03 0. -1.
        -11    1    3    3    0    0  0.53583463497E+01 -0.37488815802E+00  0.95368063183E+00  0.54554489955E+01  0.51100000000E-03 0.  1.
        -12    1    3    3    0    0  0.44231421801E+01 -0.28920320845E+01  0.30592260837E+02  0.31045361320E+02  0.00000000000E+00 0.  1.
</event>
<event>
 7    1  0.5642630E-013  0.5052887E+02  0.7816164E-02  0.1300439E+00
        -11   -1    0    0    0    0  0.00000000000E+00  0.00000000000E+00  0.45593999997E+02  0.45594000000E+02  0.51100000000E-03 0.  1.
         11   -1    0    0    0    0 -0.00000000000E+00 -0.00000000000E+00 -0.45593999997E+02  0.45594000000E+02  0.51100000000E-03 0. -1.
    9900012    2    1    2    0    0  0.31722548593E+02 -0.93086897285E+01  0.23668401451E+02  0.50528867926E+02  0.30000024549E+02 0.  0.
         12    1    1    2    0    0 -0.31722548593E+02  0.93086897285E+01 -0.23668401451E+02  0.40659132074E+02  0.00000000000E+00 0. -1.
         11    1    3    3    0    0 -0.19680344409E+00  0.39737318024E+01  0.60408438081E+01  0.72333305059E+01  0.51100000000E-03 0. -1.
        -11    1    3    3    0    0  0.57694616979E+01  0.27050149439E+01  0.97532748419E+01  0.11650328945E+02  0.51100000000E-03 0.  1.
         12    1    3    3    0    0  0.26149890340E+02 -0.15987436475E+02  0.78742828011E+01  0.31645208475E+02  0.00000000000E+00 0. -1.
</event>
<event>
 7    1  0.5642630E-013  0.5052886E+02  0.7816164E-02  0.1300439E+00
        -11   -1    0    0    0    0  0.00000000000E+00  0.00000000000E+00  0.45593999997E+02  0.45594000000E+02  0.51100000000E-03 0.  1.
         11   -1    0    0    0    0 -0.00000000000E+00 -0.00000000000E+00 -0.45593999997E+02  0.45594000000E+02  0.51100000000E-03 0. -1.
    9900012    2    1    2    0    0  0.18708404978E+02  0.70643482224E+01  0.35401361260E+02  0.50528858203E+02  0.29999994995E+02 0.  0.
         12    1    1    2    0    0 -0.18708404978E+02 -0.70643482224E+01 -0.35401361260E+02  0.40659141797E+02  0.00000000000E+00 0. -1.
         11    1    3    3    0    0  0.66390327007E+01 -0.26507541247E+01  0.62456731596E+01  0.94927175302E+01  0.51100000000E-03 0. -1.
        -11    1    3    3    0    0  0.16097513073E+02  0.21495862228E+00  0.91285331613E+01  0.18506924442E+02  0.51100000000E-03 0.  1.
         12    1    3    3    0    0 -0.40281407961E+01  0.95001437248E+01  0.20027154939E+02  0.22529216231E+02  0.00000000000E+00 0. -1.
</event>
<event>
 7    1  0.5642630E-013  0.5052885E+02  0.7816164E-02  0.1300439E+00
        -11   -1    0    0    0    0  0.00000000000E+00  0.00000000000E+00  0.45593999997E+02  0.45594000000E+02  0.51100000000E-03 0. -1.
         11   -1    0    0    0    0 -0.00000000000E+00 -0.00000000000E+00 -0.45593999997E+02  0.45594000000E+02  0.51100000000E-03 0.  1.
    9900012    2    1    2    0    0 -0.12162743312E+02  0.75944769561E+01 -0.38046791171E+02  0.50528846990E+02  0.29999960910E+02 0.  0.
         12    1    1    2    0    0  0.12162743312E+02 -0.75944769561E+01  0.38046791171E+02  0.40659153010E+02  0.00000000000E+00 0. -1.
         11    1    3    3    0    0 -0.40424080333E+01  0.82368087461E+01 -0.72952140368E+01  0.11722040314E+02  0.51100000000E-03 0. -1.
        -11    1    3    3    0    0 -0.13737336714E+02 -0.45224251392E+01 -0.27865228985E+02  0.31394867984E+02  0.51100000000E-03 0.  1.
         12    1    3    3    0    0  0.56170014348E+01  0.38800933492E+01 -0.28863481494E+01  0.74119386908E+01  0.00000000000E+00 0. -1.
</event>
<event>
 7    1  0.5642630E-013  0.5052886E+02  0.7816164E-02  0.1300439E+00
        -11   -1    0    0    0    0  0.00000000000E+00  0.00000000000E+00  0.45593999997E+02  0.45594000000E+02  0.51100000000E-03 0.  1.
         11   -1    0    0    0    0 -0.00000000000E+00 -0.00000000000E+00 -0.45593999997E+02  0.45594000000E+02  0.51100000000E-03 0. -1.
    9900012    2    1    2    0    0  0.24963231604E+02 -0.28753501955E+02  0.14256189408E+02  0.50528859045E+02  0.29999997552E+02 0.  0.
         12    1    1    2    0    0 -0.24963231604E+02  0.28753501955E+02 -0.14256189408E+02  0.40659140955E+02  0.00000000000E+00 0. -1.
         11    1    3    3    0    0 -0.50818852959E+00  0.17600707923E+01  0.41341399001E+00  0.18780351871E+01  0.51100000000E-03 0. -1.
        -11    1    3    3    0    0 -0.23785114148E+01  0.42539062042E+00  0.57596274901E+01  0.62459252970E+01  0.51100000000E-03 0.  1.
        -12    1    3    3    0    0  0.27849931549E+02 -0.30938963367E+02  0.80831479278E+01  0.42404898561E+02  0.00000000000E+00 0.  1.
</event>
<event>
 7    1  0.5642630E-013  0.5052886E+02  0.7816164E-02  0.1300439E+00
        -11   -1    0    0    0    0  0.00000000000E+00  0.00000000000E+00  0.45593999997E+02  0.45594000000E+02  0.51100000000E-03 0.  1.
         11   -1    0    0    0    0 -0.00000000000E+00 -0.00000000000E+00 -0.45593999997E+02  0.45594000000E+02  0.51100000000E-03 0. -1.
    9900012    2    1    2    0    0  0.18688810138E+02  0.34502292060E+02  0.10652981691E+02  0.50528858338E+02  0.29999995405E+02 0.  0.
         12    1    1    2    0    0 -0.18688810138E+02 -0.34502292060E+02 -0.10652981691E+02  0.40659141662E+02  0.00000000000E+00 0. -1.
         11    1    3    3    0    0 -0.11646342925E+01  0.13002603665E+02  0.43188008606E+01  0.13750495127E+02  0.51100000000E-03 0. -1.
        -11    1    3    3    0    0 -0.26463432970E+01  0.78983647116E+01  0.63709545948E+01  0.10486961460E+02  0.51100000000E-03 0.  1.
        -12    1    3    3    0    0  0.22499787727E+02  0.13601323684E+02 -0.36773764716E-01  0.26291401751E+02  0.00000000000E+00 0.  1.
</event>
<event>
 7    1  0.5642630E-013  0.5052885E+02  0.7816164E-02  0.1300439E+00
        -11   -1    0    0    0    0  0.00000000000E+00  0.00000000000E+00  0.45593999997E+02  0.45594000000E+02  0.51100000000E-03 0.  1.
         11   -1    0    0    0    0 -0.00000000000E+00 -0.00000000000E+00 -0.45593999997E+02  0.45594000000E+02  0.51100000000E-03 0. -1.
    9900012    2    1    2    0    0 -0.36788175820E+02 -0.11923327946E+02 -0.12555102385E+02  0.50528853115E+02  0.29999979529E+02 0.  0.
         12    1    1    2    0    0  0.36788175820E+02  0.11923327946E+02  0.12555102385E+02  0.40659146885E+02  0.00000000000E+00 0. -1.
         11    1    3    3    0    0  0.22978523371E+00  0.35414213035E+00 -0.13609805461E+01  0.14249513010E+01  0.51100000000E-03 0. -1.
        -11    1    3    3    0    0 -0.28974979347E+01 -0.13095807025E+02 -0.84516258902E+00  0.13439120357E+02  0.51100000000E-03 0.  1.
        -12    1    3    3    0    0 -0.34120463119E+02  0.81833694776E+00 -0.10348959250E+02  0.35664781457E+02  0.00000000000E+00 0.  1.
</event>
<event>
 7    1  0.5642630E-013  0.5052886E+02  0.7816164E-02  0.1300439E+00
        -11   -1    0    0    0    0  0.00000000000E+00  0.00000000000E+00  0.45593999997E+02  0.45594000000E+02  0.51100000000E-03 0.  1.
         11   -1    0    0    0    0 -0.00000000000E+00 -0.00000000000E+00 -0.45593999997E+02  0.45594000000E+02  0.51100000000E-03 0. -1.
    9900012    2    1    2    0    0  0.39841821593E+01 -0.14792078463E+02  0.37662797507E+02  0.50528860698E+02  0.30000002576E+02 0.  0.
         12    1    1    2    0    0 -0.39841821593E+01  0.14792078463E+02 -0.37662797507E+02  0.40659139302E+02  0.00000000000E+00 0. -1.
         11    1    3    3    0    0 -0.70133363730E+01 -0.40923022510E+01  0.23435140596E+00  0.81233457169E+01  0.51100000000E-03 0. -1.
        -11    1    3    3    0    0  0.70855829923E+01 -0.93622138438E+00  0.62283703464E+01  0.94802212134E+01  0.51100000000E-03 0.  1.
        -12    1    3    3    0    0  0.39119355400E+01 -0.97635548279E+01  0.31200075755E+02  0.32925293767E+02  0.00000000000E+00 0.  1.
</event>
<event>
 7    1  0.5642630E-013  0.5052887E+02  0.7816164E-02  0.1300439E+00
        -11   -1    0    0    0    0  0.00000000000E+00  0.00000000000E+00  0.45593999997E+02  0.45594000000E+02  0.51100000000E-03 0. -1.
         11   -1    0    0    0    0 -0.00000000000E+00 -0.00000000000E+00 -0.45593999997E+02  0.45594000000E+02  0.51100000000E-03 0.  1.
    9900012    2    1    2    0    0  0.37276445211E+02 -0.56645452394E+01 -0.15216578667E+02  0.50528871792E+02  0.30000036298E+02 0.  0.
         12    1    1    2    0    0 -0.37276445211E+02  0.56645452394E+01  0.15216578667E+02  0.40659128208E+02  0.00000000000E+00 0. -1.
         11    1    3    3    0    0 -0.21688132371E+00  0.11629440592E+00  0.36937058951E+01  0.37018948388E+01  0.51100000000E-03 0. -1.
        -11    1    3    3    0    0  0.99395765092E+01  0.36109231919E+01  0.22833554326E+01  0.10818856676E+02  0.51100000000E-03 0.  1.
        -12    1    3    3    0    0  0.27553750025E+02 -0.93917628372E+01 -0.21193639995E+02  0.36008120277E+02  0.00000000000E+00 0.  1.
</event>
<event>
 7    1  0.5642630E-013  0.5052884E+02  0.7816164E-02  0.1300439E+00
        -11   -1    0    0    0    0  0.00000000000E+00  0.00000000000E+00  0.45593999997E+02  0.45594000000E+02  0.51100000000E-03 0. -1.
         11   -1    0    0    0    0 -0.00000000000E+00 -0.00000000000E+00 -0.45593999997E+02  0.45594000000E+02  0.51100000000E-03 0.  1.
    9900012    2    1    2    0    0 -0.31936331728E+02 -0.22874444281E+02  0.10487983043E+02  0.50528840223E+02  0.29999940343E+02 0.  0.
         12    1    1    2    0    0  0.31936331728E+02  0.22874444281E+02 -0.10487983043E+02  0.40659159777E+02  0.00000000000E+00 0. -1.
         11    1    3    3    0    0 -0.63491115122E+01  0.25547785742E+01  0.33195188035E+01  0.76063996677E+01  0.51100000000E-03 0. -1.
        -11    1    3    3    0    0 -0.17036774886E+02 -0.77118261478E+01 -0.55371734829E+01  0.19503442042E+02  0.51100000000E-03 0.  1.
         12    1    3    3    0    0 -0.85504453302E+01 -0.17717396708E+02  0.12705637722E+02  0.23418998513E+02  0.00000000000E+00 0. -1.
</event>
<event>
 7    1  0.5642630E-013  0.5052890E+02  0.7816164E-02  0.1300439E+00
        -11   -1    0    0    0    0  0.00000000000E+00  0.00000000000E+00  0.45593999997E+02  0.45594000000E+02  0.51100000000E-03 0.  1.
         11   -1    0    0    0    0 -0.00000000000E+00 -0.00000000000E+00 -0.45593999997E+02  0.45594000000E+02  0.51100000000E-03 0. -1.
    9900012    2    1    2    0    0 -0.13393602404E+02  0.31100626009E+02  0.22506106134E+02  0.50528900935E+02  0.30000124881E+02 0.  0.
         12    1    1    2    0    0  0.13393602404E+02 -0.31100626009E+02 -0.22506106134E+02  0.40659099065E+02  0.00000000000E+00 0. -1.
         11    1    3    3    0    0 -0.11068159811E+02  0.26787061929E+02  0.15603526982E+02  0.32916878694E+02  0.51100000000E-03 0. -1.
        -11    1    3    3    0    0  0.44793925133E+01  0.72782100385E+01  0.21988232377E+01  0.88245182614E+01  0.51100000000E-03 0.  1.
         12    1    3    3    0    0 -0.68048351059E+01 -0.29646459592E+01  0.47037559144E+01  0.87875039792E+01  0.00000000000E+00 0. -1.
</event>
<event>
 7    1  0.5642630E-013  0.5052880E+02  0.7816164E-02  0.1300439E+00
        -11   -1    0    0    0    0  0.00000000000E+00  0.00000000000E+00  0.45593999997E+02  0.45594000000E+02  0.51100000000E-03 0. -1.
         11   -1    0    0    0    0 -0.00000000000E+00 -0.00000000000E+00 -0.45593999997E+02  0.45594000000E+02  0.51100000000E-03 0.  1.
    9900012    2    1    2    0    0  0.49220464326E+01 -0.33210253649E+02 -0.22935197022E+02  0.50528797463E+02  0.29999810367E+02 0.  0.
         12    1    1    2    0    0 -0.49220464326E+01  0.33210253649E+02  0.22935197022E+02  0.40659202537E+02  0.00000000000E+00 0. -1.
         11    1    3    3    0    0 -0.51322095160E+01 -0.13840336587E+02 -0.94297730406E+01  0.17516138593E+02  0.51100000000E-03 0. -1.
        -11    1    3    3    0    0  0.31449750531E+01  0.39893807120E+01 -0.52164803564E+01  0.72813250250E+01  0.51100000000E-03 0.  1.
         12    1    3    3    0    0  0.69092808955E+01 -0.23359297774E+02 -0.82889436247E+01  0.25731333845E+02  0.00000000000E+00 0. -1.
</event>
<event>
 7    1  0.5642630E-013  0.5052886E+02  0.7816164E-02  0.1300439E+00
        -11   -1    0    0    0    0  0.00000000000E+00  0.00000000000E+00  0.45593999997E+02  0.45594000000E+02  0.51100000000E-03 0. -1.
         11   -1    0    0    0    0 -0.00000000000E+00 -0.00000000000E+00 -0.45593999997E+02  0.45594000000E+02  0.51100000000E-03 0.  1.
    9900012    2    1    2    0    0  0.55628551682E+01 -0.30956342310E+02 -0.25766750865E+02  0.50528856662E+02  0.29999990311E+02 0.  0.
         12    1    1    2    0    0 -0.55628551682E+01  0.30956342310E+02  0.25766750865E+02  0.40659143338E+02  0.00000000000E+00 0. -1.
         11    1    3    3    0    0  0.43141572210E+01  0.23811636518E+00 -0.35392371601E+01  0.55852351667E+01  0.51100000000E-03 0. -1.
        -11    1    3    3    0    0  0.10248461281E+02 -0.87208938408E+01 -0.13889950411E+02  0.19339484758E+02  0.51100000000E-03 0.  1.
         12    1    3    3    0    0 -0.89997633338E+01 -0.22473564834E+02 -0.83375632936E+01  0.25604136738E+02  0.00000000000E+00 0. -1.
</event>
<event>
 7    1  0.5642630E-013  0.5052885E+02  0.7816164E-02  0.1300439E+00
        -11   -1    0    0    0    0  0.00000000000E+00  0.00000000000E+00  0.45593999997E+02  0.45594000000E+02  0.51100000000E-03 0.  1.
         11   -1    0    0    0    0 -0.00000000000E+00 -0.00000000000E+00 -0.45593999997E+02  0.45594000000E+02  0.51100000000E-03 0. -1.
    9900012    2    1    2    0    0 -0.31604931731E+02  0.17734299986E+02  0.18433377406E+02  0.50528849637E+02  0.29999968955E+02 0.  0.
         12    1    1    2    0    0  0.31604931731E+02 -0.17734299986E+02 -0.18433377406E+02  0.40659150363E+02  0.00000000000E+00 0. -1.
         11    1    3    3    0    0  0.57390716517E+00  0.25348339053E+01 -0.42644376503E+01  0.49940145271E+01  0.51100000000E-03 0. -1.
        -11    1    3    3    0    0 -0.87274050668E+01  0.30328233629E+00 -0.12925821721E+01  0.88278167351E+01  0.51100000000E-03 0.  1.
        -12    1    3    3    0    0 -0.23451433829E+02  0.14896183744E+02  0.23990397228E+02  0.36707018374E+02  0.00000000000E+00 0.  1.
</event>
<event>
 7    1  0.5642630E-013  0.5052886E+02  0.7816164E-02  0.1300439E+00
        -11   -1    0    0    0    0  0.00000000000E+00  0.00000000000E+00  0.45593999997E+02  0.45594000000E+02  0.51100000000E-03 0.  1.
         11   -1    0    0    0    0 -0.00000000000E+00 -0.00000000000E+00 -0.45593999997E+02  0.45594000000E+02  0.51100000000E-03 0. -1.
    9900012    2    1    2    0    0 -0.18414813132E+02  0.26466066811E+02  0.24771105777E+02  0.50528859373E+02  0.29999998549E+02 0.  0.
         12    1    1    2    0    0  0.18414813132E+02 -0.26466066811E+02 -0.24771105777E+02  0.40659140627E+02  0.00000000000E+00 0. -1.
         11    1    3    3    0    0 -0.42451733048E+00  0.13036048759E+01 -0.36611125735E+01  0.39093920465E+01  0.51100000000E-03 0. -1.
        -11    1    3    3    0    0 -0.10162081902E+02  0.47213375117E+01  0.61402771341E+00  0.11222119532E+02  0.51100000000E-03 0.  1.
        -12    1    3    3    0    0 -0.78282138992E+01  0.20441124423E+02  0.27818190638E+02  0.35397347794E+02  0.00000000000E+00 0.  1.
</event>
<event>
 7    1  0.5642630E-013  0.5052886E+02  0.7816164E-02  0.1300439E+00
        -11   -1    0    0    0    0  0.00000000000E+00  0.00000000000E+00  0.45593999997E+02  0.45594000000E+02  0.51100000000E-03 0. -1.
         11   -1    0    0    0    0 -0.00000000000E+00 -0.00000000000E+00 -0.45593999997E+02  0.45594000000E+02  0.51100000000E-03 0.  1.
    9900012    2    1    2    0    0  0.39443888424E+02 -0.71433282629E+01  0.68057214472E+01  0.50528864285E+02  0.30000013481E+02 0.  0.
         12    1    1    2    0    0 -0.39443888424E+02  0.71433282629E+01 -0.68057214472E+01  0.40659135715E+02  0.00000000000E+00 0. -1.
         11    1    3    3    0    0  0.72503240082E+01 -0.12558115558E+01  0.11935582327E+01  0.74544511805E+01  0.51100000000E-03 0. -1.
        -11    1    3    3    0    0  0.32429343673E+02  0.20831285186E+01 -0.12989764182E+01  0.32522132394E+02  0.51100000000E-03 0.  1.
         12    1    3    3    0    0 -0.23577925682E+00 -0.79706452257E+01  0.69111396328E+01  0.10552280711E+02  0.00000000000E+00 0. -1.
</event>
<event>
 7    1  0.5642630E-013  0.5052886E+02  0.7816164E-02  0.1300439E+00
        -11   -1    0    0    0    0  0.00000000000E+00  0.00000000000E+00  0.45593999997E+02  0.45594000000E+02  0.51100000000E-03 0.  1.
         11   -1    0    0    0    0 -0.00000000000E+00 -0.00000000000E+00 -0.45593999997E+02  0.45594000000E+02  0.51100000000E-03 0. -1.
    9900012    2    1    2    0    0 -0.13803836162E+02 -0.30699286032E+02  0.22807309412E+02  0.50528863041E+02  0.30000009699E+02 0.  0.
         12    1    1    2    0    0  0.13803836162E+02  0.30699286032E+02 -0.22807309412E+02  0.40659136959E+02  0.00000000000E+00 0. -1.
         11    1    3    3    0    0  0.13674646926E+01  0.43241406677E+01  0.11741171302E+01  0.46847308884E+01  0.51100000000E-03 0. -1.
        -11    1    3    3    0    0 -0.34629824152E+01 -0.16099641064E+02  0.28269015663E+01  0.16708742093E+02  0.51100000000E-03 0.  1.
        -12    1    3    3    0    0 -0.11708318439E+02 -0.18923785635E+02  0.18806290716E+02  0.29135390060E+02  0.00000000000E+00 0.  1.
</event>
<event>
 7    1  0.5642630E-013  0.5052886E+02  0.7816164E-02  0.1300439E+00
        -11   -1    0    0    0    0  0.00000000000E+00  0.00000000000E+00  0.45593999997E+02  0.45594000000E+02  0.51100000000E-03 0. -1.
         11   -1    0    0    0    0 -0.00000000000E+00 -0.00000000000E+00 -0.45593999997E+02  0.45594000000E+02  0.51100000000E-03 0.  1.
    9900012    2    1    2    0    0 -0.15975997954E+01  0.31768295258E+02 -0.25325648183E+02  0.50528863701E+02  0.30000011705E+02 0.  0.
         12    1    1    2    0    0  0.15975997954E+01 -0.31768295258E+02  0.25325648183E+02  0.40659136299E+02  0.00000000000E+00 0. -1.
         11    1    3    3    0    0  0.11306267965E+01  0.15076668682E+02 -0.73680454744E+01  0.16818809407E+02  0.51100000000E-03 0. -1.
        -11    1    3    3    0    0  0.77227667044E+01  0.16290062716E+02 -0.10474643971E+02  0.20850070395E+02  0.51100000000E-03 0.  1.
         12    1    3    3    0    0 -0.10450993296E+02  0.40156385916E+00 -0.74829587376E+01  0.12859983899E+02  0.00000000000E+00 0. -1.
</event>
<event>
 7    1  0.5642630E-013  0.5052883E+02  0.7816164E-02  0.1300439E+00
        -11   -1    0    0    0    0  0.00000000000E+00  0.00000000000E+00  0.45593999997E+02  0.45594000000E+02  0.51100000000E-03 0.  1.
         11   -1    0    0    0    0 -0.00000000000E+00 -0.00000000000E+00 -0.45593999997E+02  0.45594000000E+02  0.51100000000E-03 0. -1.
    9900012    2    1    2    0    0  0.92202839565E+01  0.34171959025E+02  0.20010784035E+02  0.50528832552E+02  0.29999917026E+02 0.  0.
         12    1    1    2    0    0 -0.92202839565E+01 -0.34171959025E+02 -0.20010784035E+02  0.40659167448E+02  0.00000000000E+00 0. -1.
         11    1    3    3    0    0 -0.14968624232E+01  0.37186562897E+01  0.61143449571E-01  0.40090822513E+01  0.51100000000E-03 0. -1.
        -11    1    3    3    0    0 -0.17911577318E+01  0.15803876952E+02  0.22000793411E+02  0.27147848602E+02  0.51100000000E-03 0.  1.
         12    1    3    3    0    0  0.12508304111E+02  0.14649425783E+02 -0.20511528260E+01  0.19371901699E+02  0.00000000000E+00 0. -1.
</event>
<event>
 7    1  0.5642630E-013  0.5052886E+02  0.7816164E-02  0.1300439E+00
        -11   -1    0    0    0    0  0.00000000000E+00  0.00000000000E+00  0.45593999997E+02  0.45594000000E+02  0.51100000000E-03 0.  1.
         11   -1    0    0    0    0 -0.00000000000E+00 -0.00000000000E+00 -0.45593999997E+02  0.45594000000E+02  0.51100000000E-03 0. -1.
    9900012    2    1    2    0    0  0.24569363725E+02 -0.31555485211E+02 -0.73323340341E+01  0.50528863227E+02  0.30000010264E+02 0.  0.
         12    1    1    2    0    0 -0.24569363725E+02  0.31555485211E+02  0.73323340341E+01  0.40659136773E+02  0.00000000000E+00 0. -1.
         11    1    3    3    0    0  0.12812028104E+02 -0.47550053576E+01 -0.10136922194E+02  0.17015150070E+02  0.51100000000E-03 0. -1.
        -11    1    3    3    0    0  0.11643854880E+01  0.92639965677E+00  0.35221558394E+01  0.38235574935E+01  0.51100000000E-03 0.  1.
         12    1    3    3    0    0  0.10592950133E+02 -0.27726879510E+02 -0.71756767967E+00  0.29690155663E+02  0.00000000000E+00 0. -1.
</event>
<event>
 7    1  0.5642630E-013  0.5052886E+02  0.7816164E-02  0.1300439E+00
        -11   -1    0    0    0    0  0.00000000000E+00  0.00000000000E+00  0.45593999997E+02  0.45594000000E+02  0.51100000000E-03 0.  1.
         11   -1    0    0    0    0 -0.00000000000E+00 -0.00000000000E+00 -0.45593999997E+02  0.45594000000E+02  0.51100000000E-03 0. -1.
    9900012    2    1    2    0    0 -0.25303002939E+02 -0.94303686285E+01  0.30397230788E+02  0.50528862654E+02  0.30000008522E+02 0.  0.
         12    1    1    2    0    0  0.25303002939E+02  0.94303686285E+01 -0.30397230788E+02  0.40659137346E+02  0.00000000000E+00 0. -1.
         11    1    3    3    0    0 -0.14495947834E+02  0.10600012755E+01  0.25537404074E+01  0.14757292998E+02  0.51100000000E-03 0. -1.
        -11    1    3    3    0    0 -0.11642017393E+02  0.10725772016E+00  0.12257409488E+02  0.16905388514E+02  0.51100000000E-03 0.  1.
        -12    1    3    3    0    0  0.83496228794E+00 -0.10597627624E+02  0.15586080892E+02  0.18866181142E+02  0.00000000000E+00 0.  1.
</event>
<event>
 7    1  0.5642630E-013  0.5052887E+02  0.7816164E-02  0.1300439E+00
        -11   -1    0    0    0    0  0.00000000000E+00  0.00000000000E+00  0.45593999997E+02  0.45594000000E+02  0.51100000000E-03 0.  1.
         11   -1    0    0    0    0 -0.00000000000E+00 -0.00000000000E+00 -0.45593999997E+02  0.45594000000E+02  0.51100000000E-03 0. -1.
    9900012    2    1    2    0    0 -0.19599922794E+02 -0.19732588294E+02 -0.29658607199E+02  0.50528868242E+02  0.30000025509E+02 0.  0.
         12    1    1    2    0    0  0.19599922794E+02  0.19732588294E+02  0.29658607199E+02  0.40659131758E+02  0.00000000000E+00 0. -1.
         11    1    3    3    0    0 -0.14788467059E+01 -0.46879538515E+01 -0.66116857432E+01  0.82388280430E+01  0.51100000000E-03 0. -1.
        -11    1    3    3    0    0 -0.10456224300E+02 -0.22460146444E+02 -0.16734084637E+02  0.29896829159E+02  0.51100000000E-03 0.  1.
         12    1    3    3    0    0 -0.76648517882E+01  0.74155120011E+01 -0.63128368188E+01  0.12393211040E+02  0.00000000000E+00 0. -1.
</event>
<event>
 7    1  0.8278365E-013  0.5052886E+02  0.7816164E-02  0.1300439E+00
        -11   -1    0    0    0    0  0.00000000000E+00  0.00000000000E+00  0.45593999997E+02  0.45594000000E+02  0.51100000000E-03 0. -1.
         11   -1    0    0    0    0 -0.00000000000E+00 -0.00000000000E+00 -0.45593999997E+02  0.45594000000E+02  0.51100000000E-03 0.  1.
    9900012    2    1    2    0    0 -0.35461521925E+02 -0.13767761977E+02 -0.14356009108E+02  0.50528858290E+02  0.29999995257E+02 0.  0.
         12    1    1    2    0    0  0.35461521925E+02  0.13767761977E+02  0.14356009108E+02  0.40659141710E+02  0.00000000000E+00 0. -1.
         11    1    3    3    0    0  0.23269012692E+01 -0.39487328009E+01 -0.36792084164E+01  0.58773748462E+01  0.51100000000E-03 0. -1.
        -11    1    3    3    0    0 -0.15711097093E+01  0.42003547665E+01 -0.16642084541E+01  0.47834042191E+01  0.51100000000E-03 0.  1.
        -12    1    3    3    0    0 -0.36217313485E+02 -0.14019383943E+02 -0.90125922377E+01  0.39868079224E+02  0.00000000000E+00 0.  1.
</event>
<event>
 7    1  0.5642630E-013  0.5052884E+02  0.7816164E-02  0.1300439E+00
        -11   -1    0    0    0    0  0.00000000000E+00  0.00000000000E+00  0.45593999997E+02  0.45594000000E+02  0.51100000000E-03 0.  1.
         11   -1    0    0    0    0 -0.00000000000E+00 -0.00000000000E+00 -0.45593999997E+02  0.45594000000E+02  0.51100000000E-03 0. -1.
    9900012    2    1    2    0    0  0.27724869723E+02  0.18798099604E+02  0.23046257806E+02  0.50528844220E+02  0.29999952492E+02 0.  0.
         12    1    1    2    0    0 -0.27724869723E+02 -0.18798099604E+02 -0.23046257806E+02  0.40659155780E+02  0.00000000000E+00 0. -1.
         11    1    3    3    0    0  0.36899548293E+01  0.12991617129E+02  0.38547599499E+01  0.14044823131E+02  0.51100000000E-03 0. -1.
        -11    1    3    3    0    0  0.80741929742E+01  0.10898419713E+02  0.12496162961E+02  0.18442403136E+02  0.51100000000E-03 0.  1.
         12    1    3    3    0    0  0.15960721919E+02 -0.50919372372E+01  0.66953348947E+01  0.18041617953E+02  0.00000000000E+00 0. -1.
</event>
<event>
 7    1  0.5642630E-013  0.5052884E+02  0.7816164E-02  0.1300439E+00
        -11   -1    0    0    0    0  0.00000000000E+00  0.00000000000E+00  0.45593999997E+02  0.45594000000E+02  0.51100000000E-03 0.  1.
         11   -1    0    0    0    0 -0.00000000000E+00 -0.00000000000E+00 -0.45593999997E+02  0.45594000000E+02  0.51100000000E-03 0. -1.
    9900012    2    1    2    0    0  0.32923427986E+02  0.21194957229E+02  0.10953952838E+02  0.50528838608E+02  0.29999935432E+02 0.  0.
         12    1    1    2    0    0 -0.32923427986E+02 -0.21194957229E+02 -0.10953952838E+02  0.40659161392E+02  0.00000000000E+00 0. -1.
         11    1    3    3    0    0  0.96003017086E+01  0.13439535664E+02 -0.29105730844E+00  0.16518826422E+02  0.51100000000E-03 0. -1.
        -11    1    3    3    0    0  0.22107065277E+02  0.13688175547E+02  0.84521481885E+01  0.27340945379E+02  0.51100000000E-03 0.  1.
         12    1    3    3    0    0  0.12160610008E+01 -0.59327539808E+01  0.27928619580E+01  0.66690668066E+01  0.00000000000E+00 0. -1.
</event>
<event>
 7    1  0.5642630E-013  0.5052886E+02  0.7816164E-02  0.1300439E+00
        -11   -1    0    0    0    0  0.00000000000E+00  0.00000000000E+00  0.45593999997E+02  0.45594000000E+02  0.51100000000E-03 0.  1.
         11   -1    0    0    0    0 -0.00000000000E+00 -0.00000000000E+00 -0.45593999997E+02  0.45594000000E+02  0.51100000000E-03 0. -1.
    9900012    2    1    2    0    0 -0.17844592433E+02 -0.14450158156E+02  0.33554870137E+02  0.50528857612E+02  0.29999993196E+02 0.  0.
         12    1    1    2    0    0  0.17844592433E+02  0.14450158156E+02 -0.33554870137E+02  0.40659142388E+02  0.00000000000E+00 0. -1.
         11    1    3    3    0    0 -0.52668080978E+01 -0.14193561539E+02  0.13687598903E+01  0.15200985514E+02  0.51100000000E-03 0. -1.
        -11    1    3    3    0    0 -0.25092324735E+00  0.13661571117E+01  0.88282348010E+00  0.16458205516E+01  0.51100000000E-03 0.  1.
        -12    1    3    3    0    0 -0.12326861088E+02 -0.16227537288E+01  0.31303286767E+02  0.33682051546E+02  0.00000000000E+00 0.  1.
</event>
<event>
 7    1  0.5642630E-013  0.5052876E+02  0.7816164E-02  0.1300439E+00
        -11   -1    0    0    0    0  0.00000000000E+00  0.00000000000E+00  0.45593999997E+02  0.45594000000E+02  0.51100000000E-03 0.  1.
         11   -1    0    0    0    0 -0.00000000000E+00 -0.00000000000E+00 -0.45593999997E+02  0.45594000000E+02  0.51100000000E-03 0. -1.
    9900012    2    1    2    0    0 -0.39588576504E+02  0.79738604718E+01  0.47261022938E+01  0.50528758943E+02  0.29999693281E+02 0.  0.
         12    1    1    2    0    0  0.39588576504E+02 -0.79738604718E+01 -0.47261022938E+01  0.40659241057E+02  0.00000000000E+00 0. -1.
         11    1    3    3    0    0  0.77512163079E-01  0.20754630302E+01  0.14459529483E+01  0.25306787855E+01  0.51100000000E-03 0. -1.
        -11    1    3    3    0    0 -0.85570209512E+01  0.74491280410E+01  0.11112420498E+02  0.15880743235E+02  0.51100000000E-03 0.  1.
         12    1    3    3    0    0 -0.31109067716E+02 -0.15507305994E+01 -0.78322711523E+01  0.32117336922E+02  0.00000000000E+00 0. -1.
</event>
<event>
 7    1  0.5642630E-013  0.5052886E+02  0.7816164E-02  0.1300439E+00
        -11   -1    0    0    0    0  0.00000000000E+00  0.00000000000E+00  0.45593999997E+02  0.45594000000E+02  0.51100000000E-03 0.  1.
         11   -1    0    0    0    0 -0.00000000000E+00 -0.00000000000E+00 -0.45593999997E+02  0.45594000000E+02  0.51100000000E-03 0. -1.
    9900012    2    1    2    0    0 -0.34913674450E+02  0.23334561070E+01  0.20706426606E+02  0.50528858546E+02  0.29999996037E+02 0.  0.
         12    1    1    2    0    0  0.34913674450E+02 -0.23334561070E+01 -0.20706426606E+02  0.40659141454E+02  0.00000000000E+00 0. -1.
         11    1    3    3    0    0 -0.26934940528E-01 -0.60486464556E+00  0.28805441186E+01  0.29434879669E+01  0.51100000000E-03 0. -1.
        -11    1    3    3    0    0 -0.25720105125E+01  0.76857222080E+01  0.11888876345E+02  0.14388569941E+02  0.51100000000E-03 0.  1.
         12    1    3    3    0    0 -0.32314728997E+02 -0.47474014554E+01  0.59370061420E+01  0.33196800638E+02  0.00000000000E+00 0. -1.
</event>
<event>
 7    1  0.5642630E-013  0.5052886E+02  0.7816164E-02  0.1300439E+00
        -11   -1    0    0    0    0  0.00000000000E+00  0.00000000000E+00  0.45593999997E+02  0.45594000000E+02  0.51100000000E-03 0. -1.
         11   -1    0    0    0    0 -0.00000000000E+00 -0.00000000000E+00 -0.45593999997E+02  0.45594000000E+02  0.51100000000E-03 0.  1.
    9900012    2    1    2    0    0 -0.38841657782E+02 -0.98125406963E+01 -0.69429787669E+01  0.50528864639E+02  0.30000014556E+02 0.  0.
         12    1    1    2    0    0  0.38841657782E+02  0.98125406963E+01  0.69429787669E+01  0.40659135361E+02  0.00000000000E+00 0. -1.
         11    1    3    3    0    0 -0.61129551244E+00 -0.37601214061E+01  0.58912357123E+01  0.70156149888E+01  0.51100000000E-03 0. -1.
        -11    1    3    3    0    0 -0.70780279581E+01 -0.26588392630E+01  0.33201292759E+01  0.82577941772E+01  0.51100000000E-03 0.  1.
        -12    1    3    3    0    0 -0.31152334311E+02 -0.33935800272E+01 -0.16154343755E+02  0.35255455473E+02  0.00000000000E+00 0.  1.
</event>
<event>
 7    1  0.5642630E-013  0.5052886E+02  0.7816164E-02  0.1300439E+00
        -11   -1    0    0    0    0  0.00000000000E+00  0.00000000000E+00  0.45593999997E+02  0.45594000000E+02  0.51100000000E-03 0. -1.
         11   -1    0    0    0    0 -0.00000000000E+00 -0.00000000000E+00 -0.45593999997E+02  0.45594000000E+02  0.51100000000E-03 0.  1.
    9900012    2    1    2    0    0  0.38542635256E+02  0.93645441690E+01 -0.89406846448E+01  0.50528864964E+02  0.30000015544E+02 0.  0.
         12    1    1    2    0    0 -0.38542635256E+02 -0.93645441690E+01  0.89406846448E+01  0.40659135036E+02  0.00000000000E+00 0. -1.
         11    1    3    3    0    0  0.31208363523E+01 -0.29726039051E+01  0.38616755082E+01  0.57869276396E+01  0.51100000000E-03 0. -1.
        -11    1    3    3    0    0  0.93376884423E+01  0.53924305391E+01  0.55242876344E+01  0.12115629851E+02  0.51100000000E-03 0.  1.
        -12    1    3    3    0    0  0.26084110461E+02  0.69447175350E+01 -0.18326647787E+02  0.32626307473E+02  0.00000000000E+00 0.  1.
</event>
<event>
 7    1  0.5642630E-013  0.5052885E+02  0.7816164E-02  0.1300439E+00
        -11   -1    0    0    0    0  0.00000000000E+00  0.00000000000E+00  0.45593999997E+02  0.45594000000E+02  0.51100000000E-03 0.  1.
         11   -1    0    0    0    0 -0.00000000000E+00 -0.00000000000E+00 -0.45593999997E+02  0.45594000000E+02  0.51100000000E-03 0. -1.
    9900012    2    1    2    0    0  0.21963206813E+01 -0.94557209163E+01  0.39483308048E+02  0.50528854694E+02  0.29999984328E+02 0.  0.
         12    1    1    2    0    0 -0.21963206813E+01  0.94557209163E+01 -0.39483308048E+02  0.40659145306E+02  0.00000000000E+00 0. -1.
         11    1    3    3    0    0  0.53308060156E+01 -0.87316460314E+01  0.11791020048E+02  0.15610486515E+02  0.51100000000E-03 0. -1.
        -11    1    3    3    0    0  0.61661062806E+01 -0.72460737126E+01  0.16009802075E+02  0.18623646627E+02  0.51100000000E-03 0.  1.
         12    1    3    3    0    0 -0.93005916150E+01  0.65219988277E+01  0.11682485925E+02  0.16294721553E+02  0.00000000000E+00 0. -1.
</event>
<event>
 7    1  0.5642630E-013  0.5052886E+02  0.7816164E-02  0.1300439E+00
        -11   -1    0    0    0    0  0.00000000000E+00  0.00000000000E+00  0.45593999997E+02  0.45594000000E+02  0.51100000000E-03 0. -1.
         11   -1    0    0    0    0 -0.00000000000E+00 -0.00000000000E+00 -0.45593999997E+02  0.45594000000E+02  0.51100000000E-03 0.  1.
    9900012    2    1    2    0    0 -0.40570788289E+02  0.30201506188E+00 -0.26619157418E+01  0.50528857475E+02  0.29999992780E+02 0.  0.
         12    1    1    2    0    0  0.40570788289E+02 -0.30201506188E+00  0.26619157418E+01  0.40659142525E+02  0.00000000000E+00 0. -1.
         11    1    3    3    0    0 -0.87508462661E+01  0.10084751094E+02 -0.84128218125E+01  0.15781479212E+02  0.51100000000E-03 0. -1.
        -11    1    3    3    0    0 -0.19863720400E+01 -0.43293987848E+00 -0.16507639459E+01  0.26188036745E+01  0.51100000000E-03 0.  1.
        -12    1    3    3    0    0 -0.29833569983E+02 -0.93497961539E+01  0.74016700166E+01  0.32128574588E+02  0.00000000000E+00 0.  1.
</event>
<event>
 7    1  0.5642630E-013  0.5052886E+02  0.7816164E-02  0.1300439E+00
        -11   -1    0    0    0    0  0.00000000000E+00  0.00000000000E+00  0.45593999997E+02  0.45594000000E+02  0.51100000000E-03 0.  1.
         11   -1    0    0    0    0 -0.00000000000E+00 -0.00000000000E+00 -0.45593999997E+02  0.45594000000E+02  0.51100000000E-03 0. -1.
    9900012    2    1    2    0    0  0.20290309074E+02  0.38195144617E+01  0.35026852240E+02  0.50528859442E+02  0.29999998759E+02 0.  0.
         12    1    1    2    0    0 -0.20290309074E+02 -0.38195144617E+01 -0.35026852240E+02  0.40659140558E+02  0.00000000000E+00 0. -1.
         11    1    3    3    0    0  0.92759577068E+01 -0.99083776270E+01  0.19335892526E+02  0.23624057200E+02  0.51100000000E-03 0. -1.
        -11    1    3    3    0    0 -0.79830449455E+00 -0.19849943857E+01  0.21594968016E+01  0.30398880694E+01  0.51100000000E-03 0.  1.
        -12    1    3    3    0    0  0.11812655862E+02  0.15712886474E+02  0.13531462913E+02  0.23864914172E+02  0.00000000000E+00 0.  1.
</event>
<event>
 7    1  0.5642630E-013  0.5052886E+02  0.7816164E-02  0.1300439E+00
        -11   -1    0    0    0    0  0.00000000000E+00  0.00000000000E+00  0.45593999997E+02  0.45594000000E+02  0.51100000000E-03 0.  1.
         11   -1    0    0    0    0 -0.00000000000E+00 -0.00000000000E+00 -0.45593999997E+02  0.45594000000E+02  0.51100000000E-03 0. -1.
    9900012    2    1    2    0    0  0.37457919051E+02 -0.14990340681E+02  0.50358410403E+01  0.50528859474E+02  0.29999998857E+02 0.  0.
         12    1    1    2    0    0 -0.37457919051E+02  0.14990340681E+02 -0.50358410403E+01  0.40659140526E+02  0.00000000000E+00 0. -1.
         11    1    3    3    0    0  0.72221002440E+01  0.18048497441E+01 -0.79433669469E+01  0.10886381090E+02  0.51100000000E-03 0. -1.
        -11    1    3    3    0    0  0.11378335201E+01 -0.31885340430E+01 -0.22785149455E+01  0.40808142668E+01  0.51100000000E-03 0.  1.
        -12    1    3    3    0    0  0.29097985287E+02 -0.13606656382E+02  0.15257722933E+02  0.35561664117E+02  0.00000000000E+00 0.  1.
</event>
<event>
 7    1  0.5642630E-013  0.5052885E+02  0.7816164E-02  0.1300439E+00
        -11   -1    0    0    0    0  0.00000000000E+00  0.00000000000E+00  0.45593999997E+02  0.45594000000E+02  0.51100000000E-03 0. -1.
         11   -1    0    0    0    0 -0.00000000000E+00 -0.00000000000E+00 -0.45593999997E+02  0.45594000000E+02  0.51100000000E-03 0.  1.
    9900012    2    1    2    0    0  0.21542093855E+02  0.17740844431E+02 -0.29569692925E+02  0.50528854553E+02  0.29999983900E+02 0.  0.
         12    1    1    2    0    0 -0.21542093855E+02 -0.17740844431E+02  0.29569692925E+02  0.40659145447E+02  0.00000000000E+00 0. -1.
         11    1    3    3    0    0  0.18909398559E+01  0.16314526505E+01  0.33558601651E+01  0.41831912458E+01  0.51100000000E-03 0. -1.
        -11    1    3    3    0    0  0.11986298726E+02 -0.13759125883E+01 -0.63807747878E+01  0.13648398432E+02  0.51100000000E-03 0.  1.
        -12    1    3    3    0    0  0.76648552729E+01  0.17485304369E+02 -0.26544778302E+02  0.32697264876E+02  0.00000000000E+00 0.  1.
</event>
<event>
 7    1  0.5642630E-013  0.5052887E+02  0.7816164E-02  0.1300439E+00
        -11   -1    0    0    0    0  0.00000000000E+00  0.00000000000E+00  0.45593999997E+02  0.45594000000E+02  0.51100000000E-03 0.  1.
         11   -1    0    0    0    0 -0.00000000000E+00 -0.00000000000E+00 -0.45593999997E+02  0.45594000000E+02  0.51100000000E-03 0. -1.
    9900012    2    1    2    0    0 -0.35366468710E+02 -0.20043491283E+02  0.79743163965E+00  0.50528873730E+02  0.30000042189E+02 0.  0.
         12    1    1    2    0    0  0.35366468710E+02  0.20043491283E+02 -0.79743163965E+00  0.40659126270E+02  0.00000000000E+00 0. -1.
         11    1    3    3    0    0 -0.31117990444E+01 -0.11407368900E+00  0.26655059701E+01  0.40989301577E+01  0.51100000000E-03 0. -1.
        -11    1    3    3    0    0 -0.17883965580E+02 -0.12220110595E+02  0.12228610054E+02  0.24873806141E+02  0.51100000000E-03 0.  1.
         12    1    3    3    0    0 -0.14370704086E+02 -0.77093069987E+01 -0.14096684384E+02  0.21556137431E+02  0.00000000000E+00 0. -1.
</event>
<event>
 7    1  0.5642630E-013  0.5052886E+02  0.7816164E-02  0.1300439E+00
        -11   -1    0    0    0    0  0.00000000000E+00  0.00000000000E+00  0.45593999997E+02  0.45594000000E+02  0.51100000000E-03 0.  1.
         11   -1    0    0    0    0 -0.00000000000E+00 -0.00000000000E+00 -0.45593999997E+02  0.45594000000E+02  0.51100000000E-03 0. -1.
    9900012    2    1    2    0    0 -0.16244773767E+02 -0.37243813335E+02  0.14736837932E+01  0.50528855267E+02  0.29999986070E+02 0.  0.
         12    1    1    2    0    0  0.16244773767E+02  0.37243813335E+02 -0.14736837932E+01  0.40659144733E+02  0.00000000000E+00 0. -1.
         11    1    3    3    0    0 -0.66284865491E+01 -0.20888723158E+01 -0.61124615549E+01  0.92553988572E+01  0.51100000000E-03 0. -1.
        -11    1    3    3    0    0 -0.14891700204E+02 -0.24381651456E+02  0.50461045489E+01  0.29011908487E+02  0.51100000000E-03 0.  1.
         12    1    3    3    0    0  0.52754129864E+01 -0.10773289564E+02  0.25400407993E+01  0.12261547923E+02  0.00000000000E+00 0. -1.
</event>
<event>
 7    1  0.5642630E-013  0.5052886E+02  0.7816164E-02  0.1300439E+00
        -11   -1    0    0    0    0  0.00000000000E+00  0.00000000000E+00  0.45593999997E+02  0.45594000000E+02  0.51100000000E-03 0.  1.
         11   -1    0    0    0    0 -0.00000000000E+00 -0.00000000000E+00 -0.45593999997E+02  0.45594000000E+02  0.51100000000E-03 0. -1.
    9900012    2    1    2    0    0 -0.29692279693E+02  0.21071234827E+01  0.27696460133E+02  0.50528863922E+02  0.30000012377E+02 0.  0.
         12    1    1    2    0    0  0.29692279693E+02 -0.21071234827E+01 -0.27696460133E+02  0.40659136078E+02  0.00000000000E+00 0. -1.
         11    1    3    3    0    0  0.42758724277E+01  0.37428773871E+01  0.19818504628E+01  0.60183010618E+01  0.51100000000E-03 0. -1.
        -11    1    3    3    0    0  0.70559525290E+00  0.60078067870E+00 -0.43535312236E+00  0.10238821646E+01  0.51100000000E-03 0.  1.
        -12    1    3    3    0    0 -0.34673747374E+02 -0.22365345831E+01  0.26149962792E+02  0.43486680695E+02  0.00000000000E+00 0.  1.
</event>
<event>
 7    1  0.5642630E-013  0.5052886E+02  0.7816164E-02  0.1300439E+00
        -11   -1    0    0    0    0  0.00000000000E+00  0.00000000000E+00  0.45593999997E+02  0.45594000000E+02  0.51100000000E-03 0.  1.
         11   -1    0    0    0    0 -0.00000000000E+00 -0.00000000000E+00 -0.45593999997E+02  0.45594000000E+02  0.51100000000E-03 0. -1.
    9900012    2    1    2    0    0  0.46256860952E+01 -0.28036146788E+02  0.29081660570E+02  0.50528862281E+02  0.30000007388E+02 0.  0.
         12    1    1    2    0    0 -0.46256860952E+01  0.28036146788E+02 -0.29081660570E+02  0.40659137719E+02  0.00000000000E+00 0. -1.
         11    1    3    3    0    0 -0.11768577717E+01 -0.26682469134E+01 -0.32386972215E+01  0.43581757375E+01  0.51100000000E-03 0. -1.
        -11    1    3    3    0    0 -0.44859272881E+01 -0.21438759870E+02  0.22750506948E+02  0.31580524617E+02  0.51100000000E-03 0.  1.
         12    1    3    3    0    0  0.10288471155E+02 -0.39291400051E+01  0.95698508429E+01  0.14590161927E+02  0.00000000000E+00 0. -1.
</event>
<event>
 7    1  0.5642630E-013  0.5052886E+02  0.7816164E-02  0.1300439E+00
        -11   -1    0    0    0    0  0.00000000000E+00  0.00000000000E+00  0.45593999997E+02  0.45594000000E+02  0.51100000000E-03 0. -1.
         11   -1    0    0    0    0 -0.00000000000E+00 -0.00000000000E+00 -0.45593999997E+02  0.45594000000E+02  0.51100000000E-03 0.  1.
    9900012    2    1    2    0    0 -0.29415083594E+02 -0.28042632018E+02  0.12365554038E+01  0.50528862988E+02  0.30000009537E+02 0.  0.
         12    1    1    2    0    0  0.29415083594E+02  0.28042632018E+02 -0.12365554038E+01  0.40659137012E+02  0.00000000000E+00 0. -1.
         11    1    3    3    0    0 -0.22114168977E+02 -0.19176810090E+02  0.13319388926E+02  0.32158865595E+02  0.51100000000E-03 0. -1.
        -11    1    3    3    0    0 -0.27572344303E+01 -0.29445545588E+01  0.15366798511E+00  0.40368747026E+01  0.51100000000E-03 0.  1.
        -12    1    3    3    0    0 -0.45436801874E+01 -0.59212673686E+01 -0.12236501507E+02  0.14333122690E+02  0.00000000000E+00 0.  1.
</event>
<event>
 7    1  0.5642630E-013  0.5052886E+02  0.7816164E-02  0.1300439E+00
        -11   -1    0    0    0    0  0.00000000000E+00  0.00000000000E+00  0.45593999997E+02  0.45594000000E+02  0.51100000000E-03 0. -1.
         11   -1    0    0    0    0 -0.00000000000E+00 -0.00000000000E+00 -0.45593999997E+02  0.45594000000E+02  0.51100000000E-03 0.  1.
    9900012    2    1    2    0    0 -0.31178669821E+02  0.25110058209E+02 -0.71092499749E+01  0.50528856991E+02  0.29999991309E+02 0.  0.
         12    1    1    2    0    0  0.31178669821E+02 -0.25110058209E+02  0.71092499749E+01  0.40659143009E+02  0.00000000000E+00 0. -1.
         11    1    3    3    0    0  0.65935680510E+00 -0.63629256082E+00  0.15762291328E+01  0.18232164325E+01  0.51100000000E-03 0. -1.
        -11    1    3    3    0    0 -0.11651483398E+02  0.15215287484E+02  0.77011035161E+01  0.20653547739E+02  0.51100000000E-03 0.  1.
         12    1    3    3    0    0 -0.20186543228E+02  0.10531063286E+02 -0.16386582624E+02  0.28052092819E+02  0.00000000000E+00 0. -1.
</event>
<event>
 7    1  0.5642630E-013  0.5052886E+02  0.7816164E-02  0.1300439E+00
        -11   -1    0    0    0    0  0.00000000000E+00  0.00000000000E+00  0.45593999997E+02  0.45594000000E+02  0.51100000000E-03 0. -1.
         11   -1    0    0    0    0 -0.00000000000E+00 -0.00000000000E+00 -0.45593999997E+02  0.45594000000E+02  0.51100000000E-03 0.  1.
    9900012    2    1    2    0    0  0.11270257514E+02 -0.99711196837E+01 -0.37771994639E+02  0.50528861898E+02  0.30000006227E+02 0.  0.
         12    1    1    2    0    0 -0.11270257514E+02  0.99711196837E+01  0.37771994639E+02  0.40659138102E+02  0.00000000000E+00 0. -1.
         11    1    3    3    0    0  0.52122107277E+00 -0.24653207606E+01  0.49382752274E+00  0.25677507166E+01  0.51100000000E-03 0. -1.
        -11    1    3    3    0    0  0.90073521342E+01  0.86133440017E+01 -0.13628502978E+02  0.18467760586E+02  0.51100000000E-03 0.  1.
         12    1    3    3    0    0  0.17416843069E+01 -0.16119142925E+02 -0.24637319183E+02  0.29493350596E+02  0.00000000000E+00 0. -1.
</event>
<event>
 7    1  0.5642630E-013  0.5052886E+02  0.7816164E-02  0.1300439E+00
        -11   -1    0    0    0    0  0.00000000000E+00  0.00000000000E+00  0.45593999997E+02  0.45594000000E+02  0.51100000000E-03 0.  1.
         11   -1    0    0    0    0 -0.00000000000E+00 -0.00000000000E+00 -0.45593999997E+02  0.45594000000E+02  0.51100000000E-03 0. -1.
    9900012    2    1    2    0    0  0.12518690028E+02 -0.16765015958E+02  0.34862332163E+02  0.50528861249E+02  0.30000004253E+02 0.  0.
         12    1    1    2    0    0 -0.12518690028E+02  0.16765015958E+02 -0.34862332163E+02  0.40659138751E+02  0.00000000000E+00 0. -1.
         11    1    3    3    0    0 -0.28005990313E+00 -0.45125288527E+01 -0.15651642680E+01  0.47844633599E+01  0.51100000000E-03 0. -1.
        -11    1    3    3    0    0  0.30175424829E+01 -0.24690473892E+01 -0.23641408640E+01  0.45597061235E+01  0.51100000000E-03 0.  1.
        -12    1    3    3    0    0  0.97812074487E+01 -0.97834397165E+01  0.38791637295E+02  0.41184691766E+02  0.00000000000E+00 0.  1.
</event>
<event>
 7    1  0.5642630E-013  0.5052886E+02  0.7816164E-02  0.1300439E+00
        -11   -1    0    0    0    0  0.00000000000E+00  0.00000000000E+00  0.45593999997E+02  0.45594000000E+02  0.51100000000E-03 0. -1.
         11   -1    0    0    0    0 -0.00000000000E+00 -0.00000000000E+00 -0.45593999997E+02  0.45594000000E+02  0.51100000000E-03 0.  1.
    9900012    2    1    2    0    0 -0.35552557508E+02  0.19365733104E+02 -0.37615987457E+01  0.50528860939E+02  0.30000003311E+02 0.  0.
         12    1    1    2    0    0  0.35552557508E+02 -0.19365733104E+02  0.37615987457E+01  0.40659139061E+02  0.00000000000E+00 0. -1.
         11    1    3    3    0    0  0.49618132229E+00 -0.31166452376E+01 -0.27129075059E+00  0.31675341157E+01  0.51100000000E-03 0. -1.
        -11    1    3    3    0    0 -0.35097533668E+01 -0.24880807728E+01 -0.46421698499E+01  0.63291907700E+01  0.51100000000E-03 0.  1.
        -12    1    3    3    0    0 -0.32538985464E+02  0.24970459114E+02  0.11518618548E+01  0.41032136054E+02  0.00000000000E+00 0.  1.
</event>
<event>
 7    1  0.5642630E-013  0.5052885E+02  0.7816164E-02  0.1300439E+00
        -11   -1    0    0    0    0  0.00000000000E+00  0.00000000000E+00  0.45593999997E+02  0.45594000000E+02  0.51100000000E-03 0. -1.
         11   -1    0    0    0    0 -0.00000000000E+00 -0.00000000000E+00 -0.45593999997E+02  0.45594000000E+02  0.51100000000E-03 0.  1.
    9900012    2    1    2    0    0 -0.20604106089E+01  0.40604879614E+02 -0.40598744914E+00  0.50528851385E+02  0.29999974268E+02 0.  0.
         12    1    1    2    0    0  0.20604106089E+01 -0.40604879614E+02  0.40598744914E+00  0.40659148615E+02  0.00000000000E+00 0. -1.
         11    1    3    3    0    0  0.91911396290E+00  0.28098865978E+01  0.82769351898E+01  0.87890778564E+01  0.51100000000E-03 0. -1.
        -11    1    3    3    0    0  0.30326202566E+00 -0.14021832454E+01 -0.72913070389E+00  0.16092599399E+01  0.51100000000E-03 0.  1.
        -12    1    3    3    0    0 -0.32827865974E+01  0.39197176261E+02 -0.79537919350E+01  0.40130513588E+02  0.00000000000E+00 0.  1.
</event>
<event>
 7    1  0.5642630E-013  0.5052886E+02  0.7816164E-02  0.1300439E+00
        -11   -1    0    0    0    0  0.00000000000E+00  0.00000000000E+00  0.45593999997E+02  0.45594000000E+02  0.51100000000E-03 0.  1.
         11   -1    0    0    0    0 -0.00000000000E+00 -0.00000000000E+00 -0.45593999997E+02  0.45594000000E+02  0.51100000000E-03 0. -1.
    9900012    2    1    2    0    0 -0.25546215150E+02  0.28106391331E+02  0.14511625510E+02  0.50528860596E+02  0.30000002267E+02 0.  0.
         12    1    1    2    0    0  0.25546215150E+02 -0.28106391331E+02 -0.14511625510E+02  0.40659139404E+02  0.00000000000E+00 0. -1.
         11    1    3    3    0    0 -0.19599612965E+01  0.51869176116E+01 -0.11343026000E+01  0.56597001019E+01  0.51100000000E-03 0. -1.
        -11    1    3    3    0    0  0.40856013853E+01 -0.19339731307E+01  0.58744359686E-02  0.45202240564E+01  0.51100000000E-03 0.  1.
        -12    1    3    3    0    0 -0.27671855239E+02  0.24853446850E+02  0.15640053674E+02  0.40348936437E+02  0.00000000000E+00 0.  1.
</event>
<event>
 7    1  0.5642630E-013  0.5052887E+02  0.7816164E-02  0.1300439E+00
        -11   -1    0    0    0    0  0.00000000000E+00  0.00000000000E+00  0.45593999997E+02  0.45594000000E+02  0.51100000000E-03 0.  1.
         11   -1    0    0    0    0 -0.00000000000E+00 -0.00000000000E+00 -0.45593999997E+02  0.45594000000E+02  0.51100000000E-03 0. -1.
    9900012    2    1    2    0    0  0.72258829101E+01 -0.36352904631E+02  0.16715806457E+02  0.50528865178E+02  0.30000016195E+02 0.  0.
         12    1    1    2    0    0 -0.72258829101E+01  0.36352904631E+02 -0.16715806457E+02  0.40659134822E+02  0.00000000000E+00 0. -1.
         11    1    3    3    0    0  0.34215954119E+01 -0.12361760083E+02  0.44092249050E+01  0.13563247843E+02  0.51100000000E-03 0. -1.
        -11    1    3    3    0    0  0.71398663263E+01 -0.28423264859E+02  0.10540408572E+02  0.31144179063E+02  0.51100000000E-03 0.  1.
         12    1    3    3    0    0 -0.33355788281E+01  0.44321203105E+01  0.17661729795E+01  0.58214382723E+01  0.00000000000E+00 0. -1.
</event>
<event>
 7    1  0.5642630E-013  0.5052886E+02  0.7816164E-02  0.1300439E+00
        -11   -1    0    0    0    0  0.00000000000E+00  0.00000000000E+00  0.45593999997E+02  0.45594000000E+02  0.51100000000E-03 0.  1.
         11   -1    0    0    0    0 -0.00000000000E+00 -0.00000000000E+00 -0.45593999997E+02  0.45594000000E+02  0.51100000000E-03 0. -1.
    9900012    2    1    2    0    0 -0.27177445507E+02  0.46875932047E+01  0.29876053677E+02  0.50528860097E+02  0.30000000750E+02 0.  0.
         12    1    1    2    0    0  0.27177445507E+02 -0.46875932047E+01 -0.29876053677E+02  0.40659139903E+02  0.00000000000E+00 0. -1.
         11    1    3    3    0    0  0.10756774390E+01  0.10693905676E+01  0.65235628010E+01  0.66975779218E+01  0.51100000000E-03 0. -1.
        -11    1    3    3    0    0 -0.56321026352E+00  0.42614380862E+01  0.13925099378E+02  0.14573450289E+02  0.51100000000E-03 0.  1.
         12    1    3    3    0    0 -0.27689912683E+02 -0.64323544922E+00  0.94273914978E+01  0.29257831886E+02  0.00000000000E+00 0. -1.
</event>
<event>
 7    1  0.5642630E-013  0.5052886E+02  0.7816164E-02  0.1300439E+00
        -11   -1    0    0    0    0  0.00000000000E+00  0.00000000000E+00  0.45593999997E+02  0.45594000000E+02  0.51100000000E-03 0.  1.
         11   -1    0    0    0    0 -0.00000000000E+00 -0.00000000000E+00 -0.45593999997E+02  0.45594000000E+02  0.51100000000E-03 0. -1.
    9900012    2    1    2    0    0 -0.62025509759E+01  0.24927823615E+02  0.31516627071E+02  0.50528858215E+02  0.29999995031E+02 0.  0.
         12    1    1    2    0    0  0.62025509759E+01 -0.24927823615E+02 -0.31516627071E+02  0.40659141785E+02  0.00000000000E+00 0. -1.
         11    1    3    3    0    0  0.20069569898E+01  0.22543600114E+01  0.14980431641E+02  0.15281470735E+02  0.51100000000E-03 0. -1.
        -11    1    3    3    0    0 -0.51216118827E+01  0.93305707446E-01  0.10481894483E+02  0.11666607324E+02  0.51100000000E-03 0.  1.
        -12    1    3    3    0    0 -0.30878960830E+01  0.22580157896E+02  0.60543009469E+01  0.23580780156E+02  0.00000000000E+00 0.  1.
</event>
<event>
 7    1  0.5642630E-013  0.5052887E+02  0.7816164E-02  0.1300439E+00
        -11   -1    0    0    0    0  0.00000000000E+00  0.00000000000E+00  0.45593999997E+02  0.45594000000E+02  0.51100000000E-03 0. -1.
         11   -1    0    0    0    0 -0.00000000000E+00 -0.00000000000E+00 -0.45593999997E+02  0.45594000000E+02  0.51100000000E-03 0.  1.
    9900012    2    1    2    0    0 -0.19091319949E+02  0.21300681842E+02 -0.28895802591E+02  0.50528868778E+02  0.30000027138E+02 0.  0.
         12    1    1    2    0    0  0.19091319949E+02 -0.21300681842E+02  0.28895802591E+02  0.40659131222E+02  0.00000000000E+00 0. -1.
         11    1    3    3    0    0 -0.28834584017E+00  0.60533818186E+01 -0.43734968841E+01  0.74735567183E+01  0.51100000000E-03 0. -1.
        -11    1    3    3    0    0  0.95910724370E+00  0.15540244334E+02 -0.96142800972E+01  0.18299001686E+02  0.51100000000E-03 0.  1.
        -12    1    3    3    0    0 -0.19762081352E+02 -0.29294431027E+00 -0.14908025610E+02  0.24756310374E+02  0.00000000000E+00 0.  1.
</event>
<event>
 7    1  0.5642630E-013  0.5052886E+02  0.7816164E-02  0.1300439E+00
        -11   -1    0    0    0    0  0.00000000000E+00  0.00000000000E+00  0.45593999997E+02  0.45594000000E+02  0.51100000000E-03 0.  1.
         11   -1    0    0    0    0 -0.00000000000E+00 -0.00000000000E+00 -0.45593999997E+02  0.45594000000E+02  0.51100000000E-03 0. -1.
    9900012    2    1    2    0    0  0.24046026405E-01 -0.32267933130E+02  0.24737533618E+02  0.50528860115E+02  0.30000000805E+02 0.  0.
         12    1    1    2    0    0 -0.24046026405E-01  0.32267933130E+02 -0.24737533618E+02  0.40659139885E+02  0.00000000000E+00 0. -1.
         11    1    3    3    0    0 -0.13861549753E+02 -0.16550346299E+02  0.11841131450E+02  0.24622528676E+02  0.51100000000E-03 0. -1.
        -11    1    3    3    0    0  0.64668435636E+00 -0.55180685296E+00  0.36597156785E+01  0.37571545841E+01  0.51100000000E-03 0.  1.
         12    1    3    3    0    0  0.13238911423E+02 -0.15165779978E+02  0.92366864903E+01  0.22149176854E+02  0.00000000000E+00 0. -1.
</event>
<event>
 7    1  0.5642630E-013  0.5052886E+02  0.7816164E-02  0.1300439E+00
        -11   -1    0    0    0    0  0.00000000000E+00  0.00000000000E+00  0.45593999997E+02  0.45594000000E+02  0.51100000000E-03 0. -1.
         11   -1    0    0    0    0 -0.00000000000E+00 -0.00000000000E+00 -0.45593999997E+02  0.45594000000E+02  0.51100000000E-03 0.  1.
    9900012    2    1    2    0    0 -0.39906240009E+02 -0.65313136664E+01  0.42426186722E+01  0.50528857571E+02  0.29999993072E+02 0.  0.
         12    1    1    2    0    0  0.39906240009E+02  0.65313136664E+01 -0.42426186722E+01  0.40659142429E+02  0.00000000000E+00 0. -1.
         11    1    3    3    0    0 -0.66281063563E+01 -0.18602984091E+01 -0.80645290352E+00  0.69312964580E+01  0.51100000000E-03 0. -1.
        -11    1    3    3    0    0 -0.37129596750E+02 -0.58196811223E+01  0.82282128834E+01  0.38473096193E+02  0.51100000000E-03 0.  1.
         12    1    3    3    0    0  0.38514630970E+01  0.11486658650E+01 -0.31791413076E+01  0.51244649195E+01  0.00000000000E+00 0. -1.
</event>
<event>
 7    1  0.5642630E-013  0.5052894E+02  0.7816164E-02  0.1300439E+00
        -11   -1    0    0    0    0  0.00000000000E+00  0.00000000000E+00  0.45593999997E+02  0.45594000000E+02  0.51100000000E-03 0.  1.
         11   -1    0    0    0    0 -0.00000000000E+00 -0.00000000000E+00 -0.45593999997E+02  0.45594000000E+02  0.51100000000E-03 0. -1.
    9900012    2    1    2    0    0  0.31622279653E+02  0.84022339822E+01  0.24136969964E+02  0.50528936738E+02  0.30000233707E+02 0.  0.
         12    1    1    2    0    0 -0.31622279653E+02 -0.84022339822E+01 -0.24136969964E+02  0.40659063262E+02  0.00000000000E+00 0. -1.
         11    1    3    3    0    0  0.32216073736E+02  0.13968032086E+02  0.17374660053E+02  0.39177291120E+02  0.51100000000E-03 0. -1.
        -11    1    3    3    0    0  0.19347295403E+01 -0.47119064401E+01  0.12765951936E+01  0.52511842706E+01  0.51100000000E-03 0.  1.
        -12    1    3    3    0    0 -0.25285236235E+01 -0.85389166350E+00  0.54857147169E+01  0.61004613467E+01  0.00000000000E+00 0.  1.
</event>
<event>
 7    1  0.5642630E-013  0.5052886E+02  0.7816164E-02  0.1300439E+00
        -11   -1    0    0    0    0  0.00000000000E+00  0.00000000000E+00  0.45593999997E+02  0.45594000000E+02  0.51100000000E-03 0.  1.
         11   -1    0    0    0    0 -0.00000000000E+00 -0.00000000000E+00 -0.45593999997E+02  0.45594000000E+02  0.51100000000E-03 0. -1.
    9900012    2    1    2    0    0  0.40442343863E+02  0.39642938152E+01 -0.13664452674E+01  0.50528856191E+02  0.29999988879E+02 0.  0.
         12    1    1    2    0    0 -0.40442343863E+02 -0.39642938152E+01  0.13664452674E+01  0.40659143809E+02  0.00000000000E+00 0. -1.
         11    1    3    3    0    0  0.24198318902E+01 -0.34547104884E+01  0.66428493557E+00  0.42698812246E+01  0.51100000000E-03 0. -1.
        -11    1    3    3    0    0  0.25528126742E+02 -0.54869859107E+01  0.56619196342E+01  0.26717964061E+02  0.51100000000E-03 0.  1.
         12    1    3    3    0    0  0.12494385231E+02  0.12905990214E+02 -0.76926498371E+01  0.19541010906E+02  0.00000000000E+00 0. -1.
</event>
<event>
 7    1  0.5642630E-013  0.5052886E+02  0.7816164E-02  0.1300439E+00
        -11   -1    0    0    0    0  0.00000000000E+00  0.00000000000E+00  0.45593999997E+02  0.45594000000E+02  0.51100000000E-03 0. -1.
         11   -1    0    0    0    0 -0.00000000000E+00 -0.00000000000E+00 -0.45593999997E+02  0.45594000000E+02  0.51100000000E-03 0.  1.
    9900012    2    1    2    0    0 -0.31420689941E+02 -0.25702025088E+02 -0.23047751756E+01  0.50528857872E+02  0.29999993986E+02 0.  0.
         12    1    1    2    0    0  0.31420689941E+02  0.25702025088E+02  0.23047751756E+01  0.40659142128E+02  0.00000000000E+00 0. -1.
         11    1    3    3    0    0 -0.13696819315E+02 -0.83621962340E+00 -0.58922274247E+01  0.14933869790E+02  0.51100000000E-03 0. -1.
        -11    1    3    3    0    0 -0.17781957367E+02 -0.11786684978E+02 -0.18855905406E+01  0.21416801874E+02  0.51100000000E-03 0.  1.
         12    1    3    3    0    0  0.58086740634E-01 -0.13079120486E+02  0.54730427897E+01  0.14178186208E+02  0.00000000000E+00 0. -1.
</event>
<event>
 7    1  0.5642630E-013  0.5052887E+02  0.7816164E-02  0.1300439E+00
        -11   -1    0    0    0    0  0.00000000000E+00  0.00000000000E+00  0.45593999997E+02  0.45594000000E+02  0.51100000000E-03 0. -1.
         11   -1    0    0    0    0 -0.00000000000E+00 -0.00000000000E+00 -0.45593999997E+02  0.45594000000E+02  0.51100000000E-03 0.  1.
    9900012    2    1    2    0    0 -0.38460486739E+02 -0.30207900664E+01 -0.12838647512E+02  0.50528867166E+02  0.30000022239E+02 0.  0.
         12    1    1    2    0    0  0.38460486739E+02  0.30207900664E+01  0.12838647512E+02  0.40659132834E+02  0.00000000000E+00 0. -1.
         11    1    3    3    0    0  0.99709539549E+00  0.26810771136E+01 -0.34610232065E+00  0.28813470451E+01  0.51100000000E-03 0. -1.
        -11    1    3    3    0    0 -0.10183975810E+02  0.79155378557E+01  0.34497923876E+00  0.12903027311E+02  0.51100000000E-03 0.  1.
         12    1    3    3    0    0 -0.29273606325E+02 -0.13617405036E+02 -0.12837524430E+02  0.34744492810E+02  0.00000000000E+00 0. -1.
</event>
<event>
 7    1  0.5642630E-013  0.5052887E+02  0.7816164E-02  0.1300439E+00
        -11   -1    0    0    0    0  0.00000000000E+00  0.00000000000E+00  0.45593999997E+02  0.45594000000E+02  0.51100000000E-03 0. -1.
         11   -1    0    0    0    0 -0.00000000000E+00 -0.00000000000E+00 -0.45593999997E+02  0.45594000000E+02  0.51100000000E-03 0.  1.
    9900012    2    1    2    0    0 -0.40263660427E+02  0.53130264180E+01 -0.19427177733E+01  0.50528871221E+02  0.30000034564E+02 0.  0.
         12    1    1    2    0    0  0.40263660427E+02 -0.53130264180E+01  0.19427177733E+01  0.40659128779E+02  0.00000000000E+00 0. -1.
         11    1    3    3    0    0 -0.12761192844E+01 -0.14822731452E+00 -0.96203540137E+00  0.16049810402E+01  0.51100000000E-03 0. -1.
        -11    1    3    3    0    0 -0.39949786403E+02 -0.24546716197E+01  0.27513506628E+01  0.40119580969E+02  0.51100000000E-03 0.  1.
         12    1    3    3    0    0  0.96224526061E+00  0.79159253521E+01 -0.37320330347E+01  0.88043092116E+01  0.00000000000E+00 0. -1.
</event>
<event>
 7    1  0.5642630E-013  0.5052886E+02  0.7816164E-02  0.1300439E+00
        -11   -1    0    0    0    0  0.00000000000E+00  0.00000000000E+00  0.45593999997E+02  0.45594000000E+02  0.51100000000E-03 0.  1.
         11   -1    0    0    0    0 -0.00000000000E+00 -0.00000000000E+00 -0.45593999997E+02  0.45594000000E+02  0.51100000000E-03 0. -1.
    9900012    2    1    2    0    0  0.29570697327E+02  0.19048514769E+02  0.20393470162E+02  0.50528859815E+02  0.29999999895E+02 0.  0.
         12    1    1    2    0    0 -0.29570697327E+02 -0.19048514769E+02 -0.20393470162E+02  0.40659140185E+02  0.00000000000E+00 0. -1.
         11    1    3    3    0    0  0.14266601140E+02  0.11580089518E+02  0.11131072169E+02  0.21483369131E+02  0.51100000000E-03 0. -1.
        -11    1    3    3    0    0  0.15895002530E+02  0.37578454789E+01  0.15007365925E+02  0.22180927400E+02  0.51100000000E-03 0.  1.
         12    1    3    3    0    0 -0.59090634232E+00  0.37105797728E+01 -0.57449679319E+01  0.68645632851E+01  0.00000000000E+00 0. -1.
</event>
<event>
 7    1  0.5642630E-013  0.5052886E+02  0.7816164E-02  0.1300439E+00
        -11   -1    0    0    0    0  0.00000000000E+00  0.00000000000E+00  0.45593999997E+02  0.45594000000E+02  0.51100000000E-03 0.  1.
         11   -1    0    0    0    0 -0.00000000000E+00 -0.00000000000E+00 -0.45593999997E+02  0.45594000000E+02  0.51100000000E-03 0. -1.
    9900012    2    1    2    0    0  0.27961153961E+02 -0.84601526324E+01  0.28280129432E+02  0.50528855468E+02  0.29999986680E+02 0.  0.
         12    1    1    2    0    0 -0.27961153961E+02  0.84601526324E+01 -0.28280129432E+02  0.40659144532E+02  0.00000000000E+00 0. -1.
         11    1    3    3    0    0  0.25458385774E+02 -0.12703633978E+02  0.12707159925E+02  0.31160610329E+02  0.51100000000E-03 0.  1.
        -11    1    3    3    0    0 -0.76521471883E+00  0.66130077274E+00 -0.13938677497E+01  0.17221323535E+01  0.51100000000E-03 0. -1.
        -12    1    3    3    0    0  0.32679829059E+01  0.35821805727E+01  0.16966837257E+02  0.17646112785E+02  0.00000000000E+00 0.  1.
</event>
<event>
 7    1  0.5642630E-013  0.5052887E+02  0.7816164E-02  0.1300439E+00
        -11   -1    0    0    0    0  0.00000000000E+00  0.00000000000E+00  0.45593999997E+02  0.45594000000E+02  0.51100000000E-03 0. -1.
         11   -1    0    0    0    0 -0.00000000000E+00 -0.00000000000E+00 -0.45593999997E+02  0.45594000000E+02  0.51100000000E-03 0.  1.
    9900012    2    1    2    0    0  0.12462548195E+02 -0.11355866929E+02 -0.36998572523E+02  0.50528865849E+02  0.30000018234E+02 0.  0.
         12    1    1    2    0    0 -0.12462548195E+02  0.11355866929E+02  0.36998572523E+02  0.40659134151E+02  0.00000000000E+00 0. -1.
         11    1    3    3    0    0  0.80282479047E+01 -0.96101162540E+01 -0.10696655956E+02  0.16468926733E+02  0.51100000000E-03 0. -1.
        -11    1    3    3    0    0  0.96294572334E+00 -0.11303988366E+02 -0.15693503602E+02  0.19364748205E+02  0.51100000000E-03 0.  1.
        -12    1    3    3    0    0  0.34713545669E+01  0.95582376915E+01 -0.10608412965E+02  0.14695190911E+02  0.00000000000E+00 0.  1.
</event>
<event>
 7    1  0.5642630E-013  0.5052885E+02  0.7816164E-02  0.1300439E+00
        -11   -1    0    0    0    0  0.00000000000E+00  0.00000000000E+00  0.45593999997E+02  0.45594000000E+02  0.51100000000E-03 0. -1.
         11   -1    0    0    0    0 -0.00000000000E+00 -0.00000000000E+00 -0.45593999997E+02  0.45594000000E+02  0.51100000000E-03 0.  1.
    9900012    2    1    2    0    0 -0.82994987569E+01 -0.99697519038E+01 -0.38534255547E+02  0.50528849945E+02  0.29999969893E+02 0.  0.
         12    1    1    2    0    0  0.82994987569E+01  0.99697519038E+01  0.38534255547E+02  0.40659150055E+02  0.00000000000E+00 0. -1.
         11    1    3    3    0    0 -0.18044950809E+01 -0.78609890137E+01  0.11453912813E+01  0.81463655834E+01  0.51100000000E-03 0. -1.
        -11    1    3    3    0    0  0.16366696017E+01 -0.12298479915E+01 -0.19149594356E+00  0.20561820019E+01  0.51100000000E-03 0.  1.
        -12    1    3    3    0    0 -0.81316732777E+01 -0.87891489851E+00 -0.39488150885E+02  0.40326302360E+02  0.00000000000E+00 0.  1.
</event>
<event>
 7    1  0.5642630E-013  0.5052887E+02  0.7816164E-02  0.1300439E+00
        -11   -1    0    0    0    0  0.00000000000E+00  0.00000000000E+00  0.45593999997E+02  0.45594000000E+02  0.51100000000E-03 0. -1.
         11   -1    0    0    0    0 -0.00000000000E+00 -0.00000000000E+00 -0.45593999997E+02  0.45594000000E+02  0.51100000000E-03 0.  1.
    9900012    2    1    2    0    0 -0.18935796459E+02  0.35787141254E+02 -0.37256656852E+01  0.50528874929E+02  0.30000045836E+02 0.  0.
         12    1    1    2    0    0  0.18935796459E+02 -0.35787141254E+02  0.37256656852E+01  0.40659125071E+02  0.00000000000E+00 0. -1.
         11    1    3    3    0    0 -0.11171828180E+02  0.15131020086E+02 -0.67180172445E-01  0.18808562602E+02  0.51100000000E-03 0. -1.
        -11    1    3    3    0    0 -0.12238699798E+02  0.21550943678E+02  0.15050524193E+01  0.24829299813E+02  0.51100000000E-03 0.  1.
         12    1    3    3    0    0  0.44747315188E+01 -0.89482251002E+00 -0.51635379321E+01  0.68910125139E+01  0.00000000000E+00 0. -1.
</event>
<event>
 7    1  0.5642630E-013  0.5052888E+02  0.7816164E-02  0.1300439E+00
        -11   -1    0    0    0    0  0.00000000000E+00  0.00000000000E+00  0.45593999997E+02  0.45594000000E+02  0.51100000000E-03 0.  1.
         11   -1    0    0    0    0 -0.00000000000E+00 -0.00000000000E+00 -0.45593999997E+02  0.45594000000E+02  0.51100000000E-03 0. -1.
    9900012    2    1    2    0    0 -0.16306745551E+02 -0.71348257519E+01  0.36556098341E+02  0.50528880298E+02  0.30000062154E+02 0.  0.
         12    1    1    2    0    0  0.16306745551E+02  0.71348257519E+01 -0.36556098341E+02  0.40659119702E+02  0.00000000000E+00 0. -1.
         11    1    3    3    0    0 -0.70705181639E+01 -0.17120068200E+02  0.15057339833E+02  0.23870744551E+02  0.51100000000E-03 0. -1.
        -11    1    3    3    0    0 -0.76149329081E+01  0.57133404875E+01  0.80928725588E+01  0.12494960954E+02  0.51100000000E-03 0.  1.
        -12    1    3    3    0    0 -0.16212944792E+01  0.42719019608E+01  0.13405885949E+02  0.14163174794E+02  0.00000000000E+00 0.  1.
</event>
<event>
 7    1  0.5642630E-013  0.5052887E+02  0.7816164E-02  0.1300439E+00
        -11   -1    0    0    0    0  0.00000000000E+00  0.00000000000E+00  0.45593999997E+02  0.45594000000E+02  0.51100000000E-03 0.  1.
         11   -1    0    0    0    0 -0.00000000000E+00 -0.00000000000E+00 -0.45593999997E+02  0.45594000000E+02  0.51100000000E-03 0. -1.
    9900012    2    1    2    0    0  0.13482586339E+02 -0.32008152346E+02  0.21139138353E+02  0.50528866693E+02  0.30000020799E+02 0.  0.
         12    1    1    2    0    0 -0.13482586339E+02  0.32008152346E+02 -0.21139138353E+02  0.40659133307E+02  0.00000000000E+00 0. -1.
         11    1    3    3    0    0  0.37618770823E+00  0.29211118384E+01  0.10066303281E+01  0.31125096695E+01  0.51100000000E-03 0. -1.
        -11    1    3    3    0    0 -0.24358991708E+01 -0.18541690771E+01 -0.29016955572E+01  0.42179835354E+01  0.51100000000E-03 0.  1.
        -12    1    3    3    0    0  0.15542297801E+02 -0.33075095108E+02  0.23034203582E+02  0.43198373488E+02  0.00000000000E+00 0.  1.
</event>
<event>
 7    1  0.5642630E-013  0.5052886E+02  0.7816164E-02  0.1300439E+00
        -11   -1    0    0    0    0  0.00000000000E+00  0.00000000000E+00  0.45593999997E+02  0.45594000000E+02  0.51100000000E-03 0.  1.
         11   -1    0    0    0    0 -0.00000000000E+00 -0.00000000000E+00 -0.45593999997E+02  0.45594000000E+02  0.51100000000E-03 0. -1.
    9900012    2    1    2    0    0  0.77157504746E+01  0.49518905213E+00  0.39917259604E+02  0.50528860414E+02  0.30000001715E+02 0.  0.
         12    1    1    2    0    0 -0.77157504746E+01 -0.49518905213E+00 -0.39917259604E+02  0.40659139586E+02  0.00000000000E+00 0. -1.
         11    1    3    3    0    0 -0.21439372776E+01  0.43134041039E+01  0.20406147708E+01  0.52312551953E+01  0.51100000000E-03 0. -1.
        -11    1    3    3    0    0 -0.65631588819E+00 -0.46653226099E+00  0.33363667102E+02  0.33373382892E+02  0.51100000000E-03 0.  1.
        -12    1    3    3    0    0  0.10516003640E+02 -0.33516827908E+01  0.45129777307E+01  0.11924222327E+02  0.00000000000E+00 0.  1.
</event>
<event>
 7    1  0.5642630E-013  0.5052887E+02  0.7816164E-02  0.1300439E+00
        -11   -1    0    0    0    0  0.00000000000E+00  0.00000000000E+00  0.45593999997E+02  0.45594000000E+02  0.51100000000E-03 0. -1.
         11   -1    0    0    0    0 -0.00000000000E+00 -0.00000000000E+00 -0.45593999997E+02  0.45594000000E+02  0.51100000000E-03 0.  1.
    9900012    2    1    2    0    0 -0.30004638914E+01  0.15770874422E+02 -0.37355614204E+02  0.50528866018E+02  0.30000018750E+02 0.  0.
         12    1    1    2    0    0  0.30004638914E+01 -0.15770874422E+02  0.37355614204E+02  0.40659133982E+02  0.00000000000E+00 0. -1.
         11    1    3    3    0    0 -0.18050503504E+01  0.32362296438E+01  0.34504191735E+01  0.50632777732E+01  0.51100000000E-03 0. -1.
        -11    1    3    3    0    0 -0.33076262219E+01 -0.21817666955E+01 -0.34283707956E+01  0.52396778251E+01  0.51100000000E-03 0.  1.
        -12    1    3    3    0    0  0.21122126809E+01  0.14716411474E+02 -0.37377662581E+02  0.40225910420E+02  0.00000000000E+00 0.  1.
</event>
<event>
 7    1  0.5642630E-013  0.5052886E+02  0.7816164E-02  0.1300439E+00
        -11   -1    0    0    0    0  0.00000000000E+00  0.00000000000E+00  0.45593999997E+02  0.45594000000E+02  0.51100000000E-03 0.  1.
         11   -1    0    0    0    0 -0.00000000000E+00 -0.00000000000E+00 -0.45593999997E+02  0.45594000000E+02  0.51100000000E-03 0. -1.
    9900012    2    1    2    0    0  0.64631979023E+01  0.35328282667E+02  0.19060562914E+02  0.50528861520E+02  0.30000005077E+02 0.  0.
         12    1    1    2    0    0 -0.64631979023E+01 -0.35328282667E+02 -0.19060562914E+02  0.40659138480E+02  0.00000000000E+00 0. -1.
         11    1    3    3    0    0 -0.17464624857E+01 -0.19336868823E+01  0.60106018207E+01  0.65510770626E+01  0.51100000000E-03 0. -1.
        -11    1    3    3    0    0 -0.44281919949E+01  0.32104259610E+01  0.32321918670E+01  0.63531711547E+01  0.51100000000E-03 0.  1.
        -12    1    3    3    0    0  0.12637852383E+02  0.34051543589E+02  0.98177692259E+01  0.37624613303E+02  0.00000000000E+00 0.  1.
</event>
<event>
 7    1  0.5642630E-013  0.5052887E+02  0.7816164E-02  0.1300439E+00
        -11   -1    0    0    0    0  0.00000000000E+00  0.00000000000E+00  0.45593999997E+02  0.45594000000E+02  0.51100000000E-03 0.  1.
         11   -1    0    0    0    0 -0.00000000000E+00 -0.00000000000E+00 -0.45593999997E+02  0.45594000000E+02  0.51100000000E-03 0. -1.
    9900012    2    1    2    0    0 -0.63462420657E+01 -0.12504271455E+02  0.38164558973E+02  0.50528866283E+02  0.30000019554E+02 0.  0.
         12    1    1    2    0    0  0.63462420657E+01  0.12504271455E+02 -0.38164558973E+02  0.40659133717E+02  0.00000000000E+00 0. -1.
         11    1    3    3    0    0 -0.68902358270E+00 -0.34123825950E+00 -0.69281119509E+00  0.10349805121E+01  0.51100000000E-03 0. -1.
        -11    1    3    3    0    0  0.63314675681E+01 -0.16637402646E+02  0.24089252028E+02  0.29953008394E+02  0.51100000000E-03 0.  1.
        -12    1    3    3    0    0 -0.11988686051E+02  0.44743694502E+01  0.14768118141E+02  0.19540877376E+02  0.00000000000E+00 0.  1.
</event>
<event>
 7    1  0.5642630E-013  0.5052882E+02  0.7816164E-02  0.1300439E+00
        -11   -1    0    0    0    0  0.00000000000E+00  0.00000000000E+00  0.45593999997E+02  0.45594000000E+02  0.51100000000E-03 0. -1.
         11   -1    0    0    0    0 -0.00000000000E+00 -0.00000000000E+00 -0.45593999997E+02  0.45594000000E+02  0.51100000000E-03 0.  1.
    9900012    2    1    2    0    0 -0.24344292113E+02 -0.31159740016E+02 -0.94654679597E+01  0.50528818503E+02  0.29999874321E+02 0.  0.
         12    1    1    2    0    0  0.24344292113E+02  0.31159740016E+02  0.94654679597E+01  0.40659181497E+02  0.00000000000E+00 0. -1.
         11    1    3    3    0    0 -0.44373431081E+01 -0.13472941111E+02  0.61856861871E+01  0.15474910982E+02  0.51100000000E-03 0.  1.
        -11    1    3    3    0    0 -0.10309721324E+01 -0.47563508091E+01  0.28409002853E+01  0.56352898106E+01  0.51100000000E-03 0. -1.
        -12    1    3    3    0    0 -0.18875976873E+02 -0.12930448095E+02 -0.18492054432E+02  0.29418617710E+02  0.00000000000E+00 0.  1.
</event>
<event>
 7    1  0.5642630E-013  0.5052887E+02  0.7816164E-02  0.1300439E+00
        -11   -1    0    0    0    0  0.00000000000E+00  0.00000000000E+00  0.45593999997E+02  0.45594000000E+02  0.51100000000E-03 0.  1.
         11   -1    0    0    0    0 -0.00000000000E+00 -0.00000000000E+00 -0.45593999997E+02  0.45594000000E+02  0.51100000000E-03 0. -1.
    9900012    2    1    2    0    0  0.18387843278E+02 -0.71514048777E+01  0.35551506157E+02  0.50528868649E+02  0.30000026746E+02 0.  0.
         12    1    1    2    0    0 -0.18387843278E+02  0.71514048777E+01 -0.35551506157E+02  0.40659131351E+02  0.00000000000E+00 0. -1.
         11    1    3    3    0    0  0.34538942491E+01  0.14769526905E+01  0.50478861300E+00  0.37901961082E+01  0.51100000000E-03 0. -1.
        -11    1    3    3    0    0  0.15052588916E+02 -0.56316465319E+01  0.54205287285E+01  0.16961073306E+02  0.51100000000E-03 0.  1.
        -12    1    3    3    0    0 -0.11863988656E+00 -0.29967110364E+01  0.29626188816E+02  0.29777599235E+02  0.00000000000E+00 0.  1.
</event>
<event>
 7    1  0.5642630E-013  0.5052886E+02  0.7816164E-02  0.1300439E+00
        -11   -1    0    0    0    0  0.00000000000E+00  0.00000000000E+00  0.45593999997E+02  0.45594000000E+02  0.51100000000E-03 0.  1.
         11   -1    0    0    0    0 -0.00000000000E+00 -0.00000000000E+00 -0.45593999997E+02  0.45594000000E+02  0.51100000000E-03 0. -1.
    9900012    2    1    2    0    0  0.42378876140E+01 -0.34167230003E+01  0.40293075301E+02  0.50528860748E+02  0.30000002729E+02 0.  0.
         12    1    1    2    0    0 -0.42378876140E+01  0.34167230003E+01 -0.40293075301E+02  0.40659139252E+02  0.00000000000E+00 0. -1.
         11    1    3    3    0    0 -0.45402943457E+01  0.77671845681E+01  0.12284255915E+02  0.15226502307E+02  0.51100000000E-03 0. -1.
        -11    1    3    3    0    0  0.12338868737E+00  0.39036015334E+01  0.71123165710E+01  0.81140850973E+01  0.51100000000E-03 0.  1.
        -12    1    3    3    0    0  0.86547932723E+01 -0.15087509102E+02  0.20896502815E+02  0.27188273343E+02  0.00000000000E+00 0.  1.
</event>
<event>
 7    1  0.5642630E-013  0.5052881E+02  0.7816164E-02  0.1300439E+00
        -11   -1    0    0    0    0  0.00000000000E+00  0.00000000000E+00  0.45593999997E+02  0.45594000000E+02  0.51100000000E-03 0.  1.
         11   -1    0    0    0    0 -0.00000000000E+00 -0.00000000000E+00 -0.45593999997E+02  0.45594000000E+02  0.51100000000E-03 0. -1.
    9900012    2    1    2    0    0  0.87734651244E+01  0.35696940682E+02  0.17375975960E+02  0.50528809097E+02  0.29999845730E+02 0.  0.
         12    1    1    2    0    0 -0.87734651244E+01 -0.35696940682E+02 -0.17375975960E+02  0.40659190903E+02  0.00000000000E+00 0. -1.
         11    1    3    3    0    0  0.13753110921E+01  0.18534908213E+01  0.50042395359E+01  0.55108368165E+01  0.51100000000E-03 0. -1.
        -11    1    3    3    0    0  0.22777500422E+01  0.30189702626E+02  0.19108182735E+02  0.35801242124E+02  0.51100000000E-03 0.  1.
         12    1    3    3    0    0  0.51204039901E+01  0.36537472346E+01 -0.67364463108E+01  0.92167301563E+01  0.00000000000E+00 0. -1.
</event>
<event>
 7    1  0.5642630E-013  0.5052886E+02  0.7816164E-02  0.1300439E+00
        -11   -1    0    0    0    0  0.00000000000E+00  0.00000000000E+00  0.45593999997E+02  0.45594000000E+02  0.51100000000E-03 0. -1.
         11   -1    0    0    0    0 -0.00000000000E+00 -0.00000000000E+00 -0.45593999997E+02  0.45594000000E+02  0.51100000000E-03 0.  1.
    9900012    2    1    2    0    0  0.37782192291E+02  0.98226296004E+01 -0.11366081823E+02  0.50528856839E+02  0.29999990848E+02 0.  0.
         12    1    1    2    0    0 -0.37782192291E+02 -0.98226296004E+01  0.11366081823E+02  0.40659143161E+02  0.00000000000E+00 0. -1.
         11    1    3    3    0    0  0.12462316197E+02  0.34008452794E+01  0.42766492314E+01  0.13607527421E+02  0.51100000000E-03 0.  1.
        -11    1    3    3    0    0  0.43390544572E+01  0.83745299099E+01  0.17573901788E+01  0.95941943537E+01  0.51100000000E-03 0. -1.
        -12    1    3    3    0    0  0.20980821637E+02 -0.19527455888E+01 -0.17400121233E+02  0.27327135064E+02  0.00000000000E+00 0.  1.
</event>
<event>
 7    1  0.5642630E-013  0.5052885E+02  0.7816164E-02  0.1300439E+00
        -11   -1    0    0    0    0  0.00000000000E+00  0.00000000000E+00  0.45593999997E+02  0.45594000000E+02  0.51100000000E-03 0. -1.
         11   -1    0    0    0    0 -0.00000000000E+00 -0.00000000000E+00 -0.45593999997E+02  0.45594000000E+02  0.51100000000E-03 0.  1.
    9900012    2    1    2    0    0  0.26030323964E+01 -0.11649438979E+01 -0.40559011538E+02  0.50528852335E+02  0.29999977157E+02 0.  0.
         12    1    1    2    0    0 -0.26030323964E+01  0.11649438979E+01  0.40559011538E+02  0.40659147665E+02  0.00000000000E+00 0. -1.
         11    1    3    3    0    0  0.16708868823E+01 -0.83324648833E+01 -0.12166509339E+02  0.14840680030E+02  0.51100000000E-03 0. -1.
        -11    1    3    3    0    0  0.76177186527E+01  0.23993827999E+01 -0.25904636697E+02  0.27107874833E+02  0.51100000000E-03 0.  1.
         12    1    3    3    0    0 -0.66855731385E+01  0.47681381855E+01 -0.24878655016E+01  0.85802974716E+01  0.00000000000E+00 0. -1.
</event>
<event>
 7    1  0.5642630E-013  0.5052881E+02  0.7816164E-02  0.1300439E+00
        -11   -1    0    0    0    0  0.00000000000E+00  0.00000000000E+00  0.45593999997E+02  0.45594000000E+02  0.51100000000E-03 0. -1.
         11   -1    0    0    0    0 -0.00000000000E+00 -0.00000000000E+00 -0.45593999997E+02  0.45594000000E+02  0.51100000000E-03 0.  1.
    9900012    2    1    2    0    0 -0.21748997796E+02 -0.41008418235E+01 -0.34107686099E+02  0.50528805962E+02  0.29999836201E+02 0.  0.
         12    1    1    2    0    0  0.21748997796E+02  0.41008418235E+01  0.34107686099E+02  0.40659194038E+02  0.00000000000E+00 0. -1.
         11    1    3    3    0    0  0.33630433757E+01 -0.78627563774E+01 -0.46306504068E+01  0.97250152724E+01  0.51100000000E-03 0. -1.
        -11    1    3    3    0    0 -0.61597004227E+01  0.13589453085E+01 -0.16618586977E+02  0.17775434595E+02  0.51100000000E-03 0.  1.
        -12    1    3    3    0    0 -0.18952340749E+02  0.24029692454E+01 -0.12858448716E+02  0.23028356095E+02  0.00000000000E+00 0.  1.
</event>
<event>
 7    1  0.5642630E-013  0.5052885E+02  0.7816164E-02  0.1300439E+00
        -11   -1    0    0    0    0  0.00000000000E+00  0.00000000000E+00  0.45593999997E+02  0.45594000000E+02  0.51100000000E-03 0.  1.
         11   -1    0    0    0    0 -0.00000000000E+00 -0.00000000000E+00 -0.45593999997E+02  0.45594000000E+02  0.51100000000E-03 0. -1.
    9900012    2    1    2    0    0  0.20124885275E+02 -0.15729245652E+02  0.31634573696E+02  0.50528850612E+02  0.29999971919E+02 0.  0.
         12    1    1    2    0    0 -0.20124885275E+02  0.15729245652E+02 -0.31634573696E+02  0.40659149388E+02  0.00000000000E+00 0. -1.
         11    1    3    3    0    0  0.29585571278E+01 -0.79936686466E+01  0.19201148451E+02  0.21007996116E+02  0.51100000000E-03 0.  1.
        -11    1    3    3    0    0  0.16757090858E+02 -0.12847756282E+02  0.12200965177E+02  0.24387055727E+02  0.51100000000E-03 0. -1.
         12    1    3    3    0    0  0.40923728922E+00  0.51121792771E+01  0.23246006760E+00  0.51337987692E+01  0.00000000000E+00 0. -1.
</event>
<event>
 7    1  0.5642630E-013  0.5052886E+02  0.7816164E-02  0.1300439E+00
        -11   -1    0    0    0    0  0.00000000000E+00  0.00000000000E+00  0.45593999997E+02  0.45594000000E+02  0.51100000000E-03 0. -1.
         11   -1    0    0    0    0 -0.00000000000E+00 -0.00000000000E+00 -0.45593999997E+02  0.45594000000E+02  0.51100000000E-03 0.  1.
    9900012    2    1    2    0    0  0.30935740853E+02 -0.24961727272E+02  0.85474047216E+01  0.50528855666E+02  0.29999987281E+02 0.  0.
         12    1    1    2    0    0 -0.30935740853E+02  0.24961727272E+02 -0.85474047216E+01  0.40659144334E+02  0.00000000000E+00 0. -1.
         11    1    3    3    0    0  0.14151142038E+02 -0.19296378546E+02 -0.20166264580E-01  0.23929175767E+02  0.51100000000E-03 0. -1.
        -11    1    3    3    0    0  0.30484480306E+01  0.75389422424E+00 -0.52293779246E+01  0.60998184921E+01  0.51100000000E-03 0.  1.
        -12    1    3    3    0    0  0.13736150784E+02 -0.64192429503E+01  0.13796948911E+02  0.20499861406E+02  0.00000000000E+00 0.  1.
</event>
<event>
 7    1  0.5642630E-013  0.5052884E+02  0.7816164E-02  0.1300439E+00
        -11   -1    0    0    0    0  0.00000000000E+00  0.00000000000E+00  0.45593999997E+02  0.45594000000E+02  0.51100000000E-03 0.  1.
         11   -1    0    0    0    0 -0.00000000000E+00 -0.00000000000E+00 -0.45593999997E+02  0.45594000000E+02  0.51100000000E-03 0. -1.
    9900012    2    1    2    0    0 -0.38123463131E+02  0.51304507386E+01 -0.13169950097E+02  0.50528836809E+02  0.29999929964E+02 0.  0.
         12    1    1    2    0    0  0.38123463131E+02 -0.51304507386E+01  0.13169950097E+02  0.40659163191E+02  0.00000000000E+00 0. -1.
         11    1    3    3    0    0 -0.11559023082E+02 -0.35902114004E+01 -0.74577108348E+01  0.14216823966E+02  0.51100000000E-03 0. -1.
        -11    1    3    3    0    0 -0.24225116441E+02 -0.20759255373E+01 -0.67019198337E+01  0.25220655486E+02  0.51100000000E-03 0.  1.
        -12    1    3    3    0    0 -0.23393236078E+01  0.10796587676E+02  0.98968057186E+00  0.11091357357E+02  0.00000000000E+00 0.  1.
</event>
<event>
 7    1  0.5642630E-013  0.5052886E+02  0.7816164E-02  0.1300439E+00
        -11   -1    0    0    0    0  0.00000000000E+00  0.00000000000E+00  0.45593999997E+02  0.45594000000E+02  0.51100000000E-03 0.  1.
         11   -1    0    0    0    0 -0.00000000000E+00 -0.00000000000E+00 -0.45593999997E+02  0.45594000000E+02  0.51100000000E-03 0. -1.
    9900012    2    1    2    0    0  0.32433872058E+02  0.12298859191E+02  0.21211961514E+02  0.50528864429E+02  0.30000013919E+02 0.  0.
         12    1    1    2    0    0 -0.32433872058E+02 -0.12298859191E+02 -0.21211961514E+02  0.40659135571E+02  0.00000000000E+00 0. -1.
         11    1    3    3    0    0  0.51694357909E+00  0.62566780171E+01  0.81359474369E+01  0.10276521368E+02  0.51100000000E-03 0. -1.
        -11    1    3    3    0    0  0.11652076001E+01  0.32391898867E+01  0.83264806974E+01  0.90100133706E+01  0.51100000000E-03 0.  1.
        -12    1    3    3    0    0  0.30751720879E+02  0.28029912872E+01  0.47495333801E+01  0.31242329690E+02  0.00000000000E+00 0.  1.
</event>
<event>
 7    1  0.5642630E-013  0.5052885E+02  0.7816164E-02  0.1300439E+00
        -11   -1    0    0    0    0  0.00000000000E+00  0.00000000000E+00  0.45593999997E+02  0.45594000000E+02  0.51100000000E-03 0.  1.
         11   -1    0    0    0    0 -0.00000000000E+00 -0.00000000000E+00 -0.45593999997E+02  0.45594000000E+02  0.51100000000E-03 0. -1.
    9900012    2    1    2    0    0  0.15658034448E+02  0.69147222631E+01  0.36880600411E+02  0.50528854492E+02  0.29999983715E+02 0.  0.
         12    1    1    2    0    0 -0.15658034448E+02 -0.69147222631E+01 -0.36880600411E+02  0.40659145508E+02  0.00000000000E+00 0. -1.
         11    1    3    3    0    0 -0.48677828863E+00 -0.19802177914E+01 -0.30771427389E+01  0.36914798253E+01  0.51100000000E-03 0. -1.
        -11    1    3    3    0    0 -0.53021980079E+00 -0.96507534076E-01 -0.13167475617E+01  0.14227688300E+01  0.51100000000E-03 0.  1.
        -12    1    3    3    0    0  0.16675032537E+02  0.89914475886E+01  0.41274490711E+02  0.45414605837E+02  0.00000000000E+00 0.  1.
</event>
<event>
 7    1  0.5642630E-013  0.5052886E+02  0.7816164E-02  0.1300439E+00
        -11   -1    0    0    0    0  0.00000000000E+00  0.00000000000E+00  0.45593999997E+02  0.45594000000E+02  0.51100000000E-03 0. -1.
         11   -1    0    0    0    0 -0.00000000000E+00 -0.00000000000E+00 -0.45593999997E+02  0.45594000000E+02  0.51100000000E-03 0.  1.
    9900012    2    1    2    0    0  0.12438506692E+02 -0.33643411610E+02  0.19146019869E+02  0.50528859941E+02  0.30000000278E+02 0.  0.
         12    1    1    2    0    0 -0.12438506692E+02  0.33643411610E+02 -0.19146019869E+02  0.40659140059E+02  0.00000000000E+00 0. -1.
         11    1    3    3    0    0  0.13844771491E+02 -0.14456653246E+02  0.18547331627E+02  0.27288752838E+02  0.51100000000E-03 0.  1.
        -11    1    3    3    0    0  0.49568772480E+01 -0.49333130082E+01 -0.23040311373E+01  0.73632037206E+01  0.51100000000E-03 0. -1.
        -12    1    3    3    0    0 -0.63631420476E+01 -0.14253445356E+02  0.29027193795E+01  0.15876903383E+02  0.00000000000E+00 0.  1.
</event>
<event>
 7    1  0.5642630E-013  0.5052888E+02  0.7816164E-02  0.1300439E+00
        -11   -1    0    0    0    0  0.00000000000E+00  0.00000000000E+00  0.45593999997E+02  0.45594000000E+02  0.51100000000E-03 0. -1.
         11   -1    0    0    0    0 -0.00000000000E+00 -0.00000000000E+00 -0.45593999997E+02  0.45594000000E+02  0.51100000000E-03 0.  1.
    9900012    2    1    2    0    0  0.16315502903E+02  0.34804999489E+02 -0.13250684751E+02  0.50528877152E+02  0.30000052590E+02 0.  0.
         12    1    1    2    0    0 -0.16315502903E+02 -0.34804999489E+02  0.13250684751E+02  0.40659122848E+02  0.00000000000E+00 0. -1.
         11    1    3    3    0    0  0.12172896277E+01  0.32878017605E+01  0.26112224048E+01  0.43714891242E+01  0.51100000000E-03 0. -1.
        -11    1    3    3    0    0  0.20859021349E+02  0.16868488968E+02 -0.57108910020E+01  0.27427339791E+02  0.51100000000E-03 0.  1.
        -12    1    3    3    0    0 -0.57608080732E+01  0.14648708760E+02 -0.10151016154E+02  0.18730048237E+02  0.00000000000E+00 0.  1.
</event>
<event>
 7    1  0.5642630E-013  0.5052886E+02  0.7816164E-02  0.1300439E+00
        -11   -1    0    0    0    0  0.00000000000E+00  0.00000000000E+00  0.45593999997E+02  0.45594000000E+02  0.51100000000E-03 0.  1.
         11   -1    0    0    0    0 -0.00000000000E+00 -0.00000000000E+00 -0.45593999997E+02  0.45594000000E+02  0.51100000000E-03 0. -1.
    9900012    2    1    2    0    0 -0.89618357073E+01 -0.35998956757E+02  0.16641092998E+02  0.50528863721E+02  0.30000011765E+02 0.  0.
         12    1    1    2    0    0  0.89618357073E+01  0.35998956757E+02 -0.16641092998E+02  0.40659136279E+02  0.00000000000E+00 0. -1.
         11    1    3    3    0    0  0.37907421241E+00 -0.20449924804E+02  0.11696414920E+02  0.23561605293E+02  0.51100000000E-03 0. -1.
        -11    1    3    3    0    0 -0.71273518283E+01 -0.20097972065E+02  0.50221110291E+01  0.21907743487E+02  0.51100000000E-03 0.  1.
         12    1    3    3    0    0 -0.22135580915E+01  0.45489401127E+01 -0.77432951339E-01  0.50595149407E+01  0.00000000000E+00 0. -1.
</event>
<event>
 7    1  0.5642630E-013  0.5052886E+02  0.7816164E-02  0.1300439E+00
        -11   -1    0    0    0    0  0.00000000000E+00  0.00000000000E+00  0.45593999997E+02  0.45594000000E+02  0.51100000000E-03 0.  1.
         11   -1    0    0    0    0 -0.00000000000E+00 -0.00000000000E+00 -0.45593999997E+02  0.45594000000E+02  0.51100000000E-03 0. -1.
    9900012    2    1    2    0    0  0.25879521822E+02 -0.76994370239E+01  0.30399577671E+02  0.50528864461E+02  0.30000014015E+02 0.  0.
         12    1    1    2    0    0 -0.25879521822E+02  0.76994370239E+01 -0.30399577671E+02  0.40659135539E+02  0.00000000000E+00 0. -1.
         11    1    3    3    0    0  0.11041842610E+01 -0.86673491721E+01  0.17374474281E+02  0.19447738207E+02  0.51100000000E-03 0.  1.
        -11    1    3    3    0    0 -0.31298803374E+00  0.26288671456E+01  0.30310486592E+01  0.40244453300E+01  0.51100000000E-03 0. -1.
        -12    1    3    3    0    0  0.25088325595E+02 -0.16609549975E+01  0.99940547305E+01  0.27056680924E+02  0.00000000000E+00 0.  1.
</event>
<event>
 7    1  0.5642630E-013  0.5052889E+02  0.7816164E-02  0.1300439E+00
        -11   -1    0    0    0    0  0.00000000000E+00  0.00000000000E+00  0.45593999997E+02  0.45594000000E+02  0.51100000000E-03 0.  1.
         11   -1    0    0    0    0 -0.00000000000E+00 -0.00000000000E+00 -0.45593999997E+02  0.45594000000E+02  0.51100000000E-03 0. -1.
    9900012    2    1    2    0    0 -0.75286253264E+01 -0.39583106403E+02  0.54461456420E+01  0.50528892605E+02  0.30000099561E+02 0.  0.
         12    1    1    2    0    0  0.75286253264E+01  0.39583106403E+02 -0.54461456420E+01  0.40659107395E+02  0.00000000000E+00 0. -1.
         11    1    3    3    0    0  0.48018969897E+01 -0.28375317714E+02  0.76844787046E+00  0.28789014962E+02  0.51100000000E-03 0. -1.
        -11    1    3    3    0    0 -0.74955650332E+01 -0.13196967480E+02  0.74068893903E+00  0.15195132977E+02  0.51100000000E-03 0.  1.
         12    1    3    3    0    0 -0.48349572829E+01  0.19891787911E+01  0.39370088325E+01  0.65447446655E+01  0.00000000000E+00 0. -1.
</event>
<event>
 7    1  0.5642630E-013  0.5052885E+02  0.7816164E-02  0.1300439E+00
        -11   -1    0    0    0    0  0.00000000000E+00  0.00000000000E+00  0.45593999997E+02  0.45594000000E+02  0.51100000000E-03 0.  1.
         11   -1    0    0    0    0 -0.00000000000E+00 -0.00000000000E+00 -0.45593999997E+02  0.45594000000E+02  0.51100000000E-03 0. -1.
    9900012    2    1    2    0    0  0.33294137253E+02  0.22732206003E+02  0.52833238295E+01  0.50528852495E+02  0.29999977642E+02 0.  0.
         12    1    1    2    0    0 -0.33294137253E+02 -0.22732206003E+02 -0.52833238295E+01  0.40659147505E+02  0.00000000000E+00 0. -1.
         11    1    3    3    0    0  0.11034406600E+02  0.11993520393E+02  0.12090487770E+00  0.16297769133E+02  0.51100000000E-03 0. -1.
        -11    1    3    3    0    0  0.26030465263E+02  0.13346226066E+02  0.43175883812E+01  0.29569383519E+02  0.51100000000E-03 0.  1.
        -12    1    3    3    0    0 -0.37707346106E+01 -0.26075404559E+01  0.84483057060E+00  0.46616998429E+01  0.00000000000E+00 0.  1.
</event>
<event>
 7    1  0.5642630E-013  0.5052886E+02  0.7816164E-02  0.1300439E+00
        -11   -1    0    0    0    0  0.00000000000E+00  0.00000000000E+00  0.45593999997E+02  0.45594000000E+02  0.51100000000E-03 0.  1.
         11   -1    0    0    0    0 -0.00000000000E+00 -0.00000000000E+00 -0.45593999997E+02  0.45594000000E+02  0.51100000000E-03 0. -1.
    9900012    2    1    2    0    0 -0.26802910996E+02  0.16252339113E+02  0.25896548532E+02  0.50528858464E+02  0.29999995788E+02 0.  0.
         12    1    1    2    0    0  0.26802910996E+02 -0.16252339113E+02 -0.25896548532E+02  0.40659141536E+02  0.00000000000E+00 0. -1.
         11    1    3    3    0    0 -0.34817096890E+01 -0.24078737821E+01  0.27071294396E+00  0.42418680163E+01  0.51100000000E-03 0. -1.
        -11    1    3    3    0    0 -0.16909291441E+02 -0.17080322539E+01  0.13694196701E+02  0.21825960111E+02  0.51100000000E-03 0.  1.
        -12    1    3    3    0    0 -0.64119098665E+01  0.20368245149E+02  0.11931638887E+02  0.24461030337E+02  0.00000000000E+00 0.  1.
</event>
<event>
 7    1  0.5642630E-013  0.5052886E+02  0.7816164E-02  0.1300439E+00
        -11   -1    0    0    0    0  0.00000000000E+00  0.00000000000E+00  0.45593999997E+02  0.45594000000E+02  0.51100000000E-03 0.  1.
         11   -1    0    0    0    0 -0.00000000000E+00 -0.00000000000E+00 -0.45593999997E+02  0.45594000000E+02  0.51100000000E-03 0. -1.
    9900012    2    1    2    0    0  0.24817120163E+02  0.24050738938E+02  0.21420508529E+02  0.50528859794E+02  0.29999999830E+02 0.  0.
         12    1    1    2    0    0 -0.24817120163E+02 -0.24050738938E+02 -0.21420508529E+02  0.40659140206E+02  0.00000000000E+00 0. -1.
         11    1    3    3    0    0  0.35157322337E+01  0.69730168190E+01  0.40518500069E+01  0.87977738909E+01  0.51100000000E-03 0.  1.
        -11    1    3    3    0    0  0.17071047262E+02  0.17391119555E+02  0.53939710185E+00  0.24375451657E+02  0.51100000000E-03 0. -1.
         12    1    3    3    0    0  0.42303406670E+01 -0.31339743626E+00  0.16829261421E+02  0.17355634246E+02  0.00000000000E+00 0. -1.
</event>
<event>
 7    1  0.5642630E-013  0.5052884E+02  0.7816164E-02  0.1300439E+00
        -11   -1    0    0    0    0  0.00000000000E+00  0.00000000000E+00  0.45593999997E+02  0.45594000000E+02  0.51100000000E-03 0. -1.
         11   -1    0    0    0    0 -0.00000000000E+00 -0.00000000000E+00 -0.45593999997E+02  0.45594000000E+02  0.51100000000E-03 0.  1.
    9900012    2    1    2    0    0 -0.30293314054E+02  0.12371862004E+01 -0.27091549667E+02  0.50528836587E+02  0.29999929290E+02 0.  0.
         12    1    1    2    0    0  0.30293314054E+02 -0.12371862004E+01  0.27091549667E+02  0.40659163413E+02  0.00000000000E+00 0. -1.
         11    1    3    3    0    0 -0.15883461741E+01  0.72365582945E+01 -0.10810268921E+02  0.13105439097E+02  0.51100000000E-03 0. -1.
        -11    1    3    3    0    0 -0.25848950990E+01  0.44101588623E+01 -0.39276096404E+00  0.51269333230E+01  0.51100000000E-03 0.  1.
        -12    1    3    3    0    0 -0.26120072781E+02 -0.10409530956E+02 -0.15888519783E+02  0.32296464167E+02  0.00000000000E+00 0.  1.
</event>
<event>
 7    1  0.5642630E-013  0.5052886E+02  0.7816164E-02  0.1300439E+00
        -11   -1    0    0    0    0  0.00000000000E+00  0.00000000000E+00  0.45593999997E+02  0.45594000000E+02  0.51100000000E-03 0.  1.
         11   -1    0    0    0    0 -0.00000000000E+00 -0.00000000000E+00 -0.45593999997E+02  0.45594000000E+02  0.51100000000E-03 0. -1.
    9900012    2    1    2    0    0 -0.16515630357E+02 -0.31233022315E+02 -0.20122077642E+02  0.50528859113E+02  0.29999997761E+02 0.  0.
         12    1    1    2    0    0  0.16515630357E+02  0.31233022315E+02  0.20122077642E+02  0.40659140887E+02  0.00000000000E+00 0. -1.
         11    1    3    3    0    0 -0.65404087084E+01 -0.13177561344E+02 -0.98099551098E+01  0.17682202594E+02  0.51100000000E-03 0. -1.
        -11    1    3    3    0    0 -0.12731894624E+02 -0.15149094586E+02 -0.16303296250E+02  0.25639689475E+02  0.51100000000E-03 0.  1.
         12    1    3    3    0    0  0.27566729750E+01 -0.29063663850E+01  0.59911737187E+01  0.72069670446E+01  0.00000000000E+00 0. -1.
</event>
<event>
 7    1  0.5642630E-013  0.5052886E+02  0.7816164E-02  0.1300439E+00
        -11   -1    0    0    0    0  0.00000000000E+00  0.00000000000E+00  0.45593999997E+02  0.45594000000E+02  0.51100000000E-03 0.  1.
         11   -1    0    0    0    0 -0.00000000000E+00 -0.00000000000E+00 -0.45593999997E+02  0.45594000000E+02  0.51100000000E-03 0. -1.
    9900012    2    1    2    0    0  0.34796833744E+02  0.17671211842E+02  0.11405008040E+02  0.50528861114E+02  0.30000003843E+02 0.  0.
         12    1    1    2    0    0 -0.34796833744E+02 -0.17671211842E+02 -0.11405008040E+02  0.40659138886E+02  0.00000000000E+00 0. -1.
         11    1    3    3    0    0  0.12605553382E+01  0.71213796650E+01 -0.49993730967E+01  0.87918587179E+01  0.51100000000E-03 0. -1.
        -11    1    3    3    0    0  0.29181222389E+01  0.83573571214E+00 -0.29515361443E+01  0.42338466498E+01  0.51100000000E-03 0.  1.
        -12    1    3    3    0    0  0.30618156167E+02  0.97140964645E+01  0.19355917281E+02  0.37503155747E+02  0.00000000000E+00 0.  1.
</event>
<event>
 7    1  0.5642630E-013  0.5052888E+02  0.7816164E-02  0.1300439E+00
        -11   -1    0    0    0    0  0.00000000000E+00  0.00000000000E+00  0.45593999997E+02  0.45594000000E+02  0.51100000000E-03 0. -1.
         11   -1    0    0    0    0 -0.00000000000E+00 -0.00000000000E+00 -0.45593999997E+02  0.45594000000E+02  0.51100000000E-03 0.  1.
    9900012    2    1    2    0    0  0.47016941810E+01  0.20605452123E+02 -0.34734327209E+02  0.50528879596E+02  0.30000060020E+02 0.  0.
         12    1    1    2    0    0 -0.47016941810E+01 -0.20605452123E+02  0.34734327209E+02  0.40659120404E+02  0.00000000000E+00 0. -1.
         11    1    3    3    0    0 -0.54932581258E+01  0.13918317881E+02 -0.90152210711E+01  0.17469106122E+02  0.51100000000E-03 0. -1.
        -11    1    3    3    0    0 -0.44931156275E+01 -0.21732559490E+00 -0.64964038395E+01  0.79018087526E+01  0.51100000000E-03 0.  1.
         12    1    3    3    0    0  0.14688067934E+02  0.69044598365E+01 -0.19222702298E+02  0.25157964722E+02  0.00000000000E+00 0. -1.
</event>
<event>
 7    1  0.5642630E-013  0.5052885E+02  0.7816164E-02  0.1300439E+00
        -11   -1    0    0    0    0  0.00000000000E+00  0.00000000000E+00  0.45593999997E+02  0.45594000000E+02  0.51100000000E-03 0.  1.
         11   -1    0    0    0    0 -0.00000000000E+00 -0.00000000000E+00 -0.45593999997E+02  0.45594000000E+02  0.51100000000E-03 0. -1.
    9900012    2    1    2    0    0 -0.87316106891E+00  0.19237949710E+01  0.40604228801E+02  0.50528846125E+02  0.29999958280E+02 0.  0.
         12    1    1    2    0    0  0.87316106891E+00 -0.19237949710E+01 -0.40604228801E+02  0.40659153875E+02  0.00000000000E+00 0. -1.
         11    1    3    3    0    0 -0.39895980174E+01  0.72594930524E+01  0.51369892567E+01  0.97470913919E+01  0.51100000000E-03 0. -1.
        -11    1    3    3    0    0 -0.41379740225E+01  0.19850956511E+01  0.85601998637E+00  0.46686405123E+01  0.51100000000E-03 0.  1.
         12    1    3    3    0    0  0.72544109710E+01 -0.73207937325E+01  0.34611219558E+02  0.36113114220E+02  0.00000000000E+00 0. -1.
</event>
<event>
 7    1  0.5642630E-013  0.5052886E+02  0.7816164E-02  0.1300439E+00
        -11   -1    0    0    0    0  0.00000000000E+00  0.00000000000E+00  0.45593999997E+02  0.45594000000E+02  0.51100000000E-03 0. -1.
         11   -1    0    0    0    0 -0.00000000000E+00 -0.00000000000E+00 -0.45593999997E+02  0.45594000000E+02  0.51100000000E-03 0.  1.
    9900012    2    1    2    0    0  0.30235652104E+02  0.16846631550E+02 -0.21334520139E+02  0.50528863238E+02  0.30000010298E+02 0.  0.
         12    1    1    2    0    0 -0.30235652104E+02 -0.16846631550E+02  0.21334520139E+02  0.40659136762E+02  0.00000000000E+00 0. -1.
         11    1    3    3    0    0  0.90496021270E+00  0.79222424498E+01 -0.27175808648E+01  0.84241393885E+01  0.51100000000E-03 0. -1.
        -11    1    3    3    0    0  0.95694210995E+01  0.59100650517E+01 -0.19036040113E+02  0.22110484222E+02  0.51100000000E-03 0.  1.
        -12    1    3    3    0    0  0.19761270791E+02  0.30143240480E+01  0.41910083880E+00  0.19994239627E+02  0.00000000000E+00 0.  1.
</event>
<event>
 7    1  0.5642630E-013  0.5052886E+02  0.7816164E-02  0.1300439E+00
        -11   -1    0    0    0    0  0.00000000000E+00  0.00000000000E+00  0.45593999997E+02  0.45594000000E+02  0.51100000000E-03 0. -1.
         11   -1    0    0    0    0 -0.00000000000E+00 -0.00000000000E+00 -0.45593999997E+02  0.45594000000E+02  0.51100000000E-03 0.  1.
    9900012    2    1    2    0    0 -0.84601587021E+01  0.25590216811E+02 -0.30442274038E+02  0.50528861663E+02  0.30000005510E+02 0.  0.
         12    1    1    2    0    0  0.84601587021E+01 -0.25590216811E+02  0.30442274038E+02  0.40659138337E+02  0.00000000000E+00 0. -1.
         11    1    3    3    0    0 -0.10689874890E+02  0.76142088958E+01 -0.13271777904E+00  0.13125060630E+02  0.51100000000E-03 0. -1.
        -11    1    3    3    0    0  0.56684756077E+00 -0.74740270745E+00  0.68030229794E+00  0.11587659134E+01  0.51100000000E-03 0.  1.
        -12    1    3    3    0    0  0.16628686271E+01  0.18723410623E+02 -0.30989858557E+02  0.36245035119E+02  0.00000000000E+00 0.  1.
</event>
<event>
 7    1  0.5642630E-013  0.5052886E+02  0.7816164E-02  0.1300439E+00
        -11   -1    0    0    0    0  0.00000000000E+00  0.00000000000E+00  0.45593999997E+02  0.45594000000E+02  0.51100000000E-03 0. -1.
         11   -1    0    0    0    0 -0.00000000000E+00 -0.00000000000E+00 -0.45593999997E+02  0.45594000000E+02  0.51100000000E-03 0.  1.
    9900012    2    1    2    0    0  0.13560509621E+02  0.37059781921E+02 -0.97903387611E+01  0.50528860926E+02  0.30000003270E+02 0.  0.
         12    1    1    2    0    0 -0.13560509621E+02 -0.37059781921E+02  0.97903387611E+01  0.40659139074E+02  0.00000000000E+00 0. -1.
         11    1    3    3    0    0  0.14004233565E+02  0.21300537395E+02  0.46127161010E+01  0.25905763859E+02  0.51100000000E-03 0. -1.
        -11    1    3    3    0    0  0.28343783074E+01  0.31028450559E+01  0.10990778345E+01  0.43438830760E+01  0.51100000000E-03 0.  1.
        -12    1    3    3    0    0 -0.32781022518E+01  0.12656399470E+02 -0.15502132697E+02  0.20279213990E+02  0.00000000000E+00 0.  1.
</event>
<event>
 7    1  0.5642630E-013  0.5052886E+02  0.7816164E-02  0.1300439E+00
        -11   -1    0    0    0    0  0.00000000000E+00  0.00000000000E+00  0.45593999997E+02  0.45594000000E+02  0.51100000000E-03 0.  1.
         11   -1    0    0    0    0 -0.00000000000E+00 -0.00000000000E+00 -0.45593999997E+02  0.45594000000E+02  0.51100000000E-03 0. -1.
    9900012    2    1    2    0    0 -0.14846018099E+02  0.29179550909E+02  0.24110485185E+02  0.50528856619E+02  0.29999990178E+02 0.  0.
         12    1    1    2    0    0  0.14846018099E+02 -0.29179550909E+02 -0.24110485185E+02  0.40659143381E+02  0.00000000000E+00 0. -1.
         11    1    3    3    0    0  0.47193401493E+01  0.10099402526E+01  0.25757066714E+01  0.54705041703E+01  0.51100000000E-03 0. -1.
        -11    1    3    3    0    0  0.14877127981E+01  0.13653886030E+02  0.50520794923E+01  0.14634391021E+02  0.51100000000E-03 0.  1.
        -12    1    3    3    0    0 -0.21053071047E+02  0.14515724626E+02  0.16482699021E+02  0.30423961428E+02  0.00000000000E+00 0.  1.
</event>
<event>
 7    1  0.5642630E-013  0.5052886E+02  0.7816164E-02  0.1300439E+00
        -11   -1    0    0    0    0  0.00000000000E+00  0.00000000000E+00  0.45593999997E+02  0.45594000000E+02  0.51100000000E-03 0. -1.
         11   -1    0    0    0    0 -0.00000000000E+00 -0.00000000000E+00 -0.45593999997E+02  0.45594000000E+02  0.51100000000E-03 0.  1.
    9900012    2    1    2    0    0  0.10839507662E+02  0.37308436842E+02  0.11989634949E+02  0.50528859181E+02  0.29999997965E+02 0.  0.
         12    1    1    2    0    0 -0.10839507662E+02 -0.37308436842E+02 -0.11989634949E+02  0.40659140819E+02  0.00000000000E+00 0. -1.
         11    1    3    3    0    0  0.17823789308E+01  0.92129555851E+01  0.47381423387E+01  0.10512155742E+02  0.51100000000E-03 0. -1.
        -11    1    3    3    0    0  0.71024731847E+00  0.30577525272E+02  0.47177732790E+01  0.30947485972E+02  0.51100000000E-03 0.  1.
         12    1    3    3    0    0  0.83468814124E+01 -0.24820440148E+01  0.25337193314E+01  0.90692174665E+01  0.00000000000E+00 0. -1.
</event>
<event>
 7    1  0.5642630E-013  0.5052886E+02  0.7816164E-02  0.1300439E+00
        -11   -1    0    0    0    0  0.00000000000E+00  0.00000000000E+00  0.45593999997E+02  0.45594000000E+02  0.51100000000E-03 0.  1.
         11   -1    0    0    0    0 -0.00000000000E+00 -0.00000000000E+00 -0.45593999997E+02  0.45594000000E+02  0.51100000000E-03 0. -1.
    9900012    2    1    2    0    0  0.54320162853E+00  0.15286747914E+02  0.37672086387E+02  0.50528858069E+02  0.29999994586E+02 0.  0.
         12    1    1    2    0    0 -0.54320162853E+00 -0.15286747914E+02 -0.37672086387E+02  0.40659141931E+02  0.00000000000E+00 0. -1.
         11    1    3    3    0    0  0.88867675883E+01  0.87316080558E+01  0.11585272033E+02  0.17012764201E+02  0.51100000000E-03 0. -1.
        -11    1    3    3    0    0 -0.48823302779E+00  0.11662100213E+02  0.14646268170E+02  0.18728484307E+02  0.51100000000E-03 0.  1.
         12    1    3    3    0    0 -0.78553329319E+01 -0.51069603547E+01  0.11440546184E+02  0.14787609561E+02  0.00000000000E+00 0. -1.
</event>
<event>
 7    1  0.5642630E-013  0.5052886E+02  0.7816164E-02  0.1300439E+00
        -11   -1    0    0    0    0  0.00000000000E+00  0.00000000000E+00  0.45593999997E+02  0.45594000000E+02  0.51100000000E-03 0.  1.
         11   -1    0    0    0    0 -0.00000000000E+00 -0.00000000000E+00 -0.45593999997E+02  0.45594000000E+02  0.51100000000E-03 0. -1.
    9900012    2    1    2    0    0 -0.19208922305E+02 -0.11824487837E+02  0.33828460934E+02  0.50528856159E+02  0.29999988782E+02 0.  0.
         12    1    1    2    0    0  0.19208922305E+02  0.11824487837E+02 -0.33828460934E+02  0.40659143841E+02  0.00000000000E+00 0. -1.
         11    1    3    3    0    0 -0.44493501817E+01 -0.16752025730E+02  0.19198462385E+02  0.25865189759E+02  0.51100000000E-03 0. -1.
        -11    1    3    3    0    0 -0.75052860839E+00 -0.30333468013E+01  0.49883827710E+01  0.58862933107E+01  0.51100000000E-03 0.  1.
         12    1    3    3    0    0 -0.14009043515E+02  0.79608846945E+01  0.96416157779E+01  0.18777373089E+02  0.00000000000E+00 0. -1.
</event>
<event>
 7    1  0.5642630E-013  0.5052886E+02  0.7816164E-02  0.1300439E+00
        -11   -1    0    0    0    0  0.00000000000E+00  0.00000000000E+00  0.45593999997E+02  0.45594000000E+02  0.51100000000E-03 0.  1.
         11   -1    0    0    0    0 -0.00000000000E+00 -0.00000000000E+00 -0.45593999997E+02  0.45594000000E+02  0.51100000000E-03 0. -1.
    9900012    2    1    2    0    0  0.25232793438E+02 -0.26588052672E+02  0.17593953382E+02  0.50528860742E+02  0.30000002712E+02 0.  0.
         12    1    1    2    0    0 -0.25232793438E+02  0.26588052672E+02 -0.17593953382E+02  0.40659139258E+02  0.00000000000E+00 0. -1.
         11    1    3    3    0    0  0.11820658719E+02 -0.17831508093E+02 -0.35918785653E+01  0.21693138208E+02  0.51100000000E-03 0. -1.
        -11    1    3    3    0    0  0.20847060471E+01 -0.26044508304E+01 -0.72545849774E+00  0.34140084540E+01  0.51100000000E-03 0.  1.
         12    1    3    3    0    0  0.11327428672E+02 -0.61520937484E+01  0.21911290445E+02  0.25421714080E+02  0.00000000000E+00 0. -1.
</event>
<event>
 7    1  0.5642630E-013  0.5052886E+02  0.7816164E-02  0.1300439E+00
        -11   -1    0    0    0    0  0.00000000000E+00  0.00000000000E+00  0.45593999997E+02  0.45594000000E+02  0.51100000000E-03 0.  1.
         11   -1    0    0    0    0 -0.00000000000E+00 -0.00000000000E+00 -0.45593999997E+02  0.45594000000E+02  0.51100000000E-03 0. -1.
    9900012    2    1    2    0    0  0.51789515516E+01  0.48545014138E+01  0.40034709946E+02  0.50528859286E+02  0.29999998286E+02 0.  0.
         12    1    1    2    0    0 -0.51789515516E+01 -0.48545014138E+01 -0.40034709946E+02  0.40659140714E+02  0.00000000000E+00 0. -1.
         11    1    3    3    0    0 -0.24296241073E+01  0.33851298578E+01  0.44951920182E+01  0.61293498023E+01  0.51100000000E-03 0. -1.
        -11    1    3    3    0    0  0.98666077378E+01  0.12131736671E+02  0.22583788782E+02  0.27469191814E+02  0.51100000000E-03 0.  1.
        -12    1    3    3    0    0 -0.22580320788E+01 -0.10662365115E+02  0.12955729145E+02  0.16930317670E+02  0.00000000000E+00 0.  1.
</event>
<event>
 7    1  0.5642630E-013  0.5052887E+02  0.7816164E-02  0.1300439E+00
        -11   -1    0    0    0    0  0.00000000000E+00  0.00000000000E+00  0.45593999997E+02  0.45594000000E+02  0.51100000000E-03 0.  1.
         11   -1    0    0    0    0 -0.00000000000E+00 -0.00000000000E+00 -0.45593999997E+02  0.45594000000E+02  0.51100000000E-03 0. -1.
    9900012    2    1    2    0    0  0.96935731627E+01  0.35462538527E+02  0.17366857302E+02  0.50528871481E+02  0.30000035352E+02 0.  0.
         12    1    1    2    0    0 -0.96935731627E+01 -0.35462538527E+02 -0.17366857302E+02  0.40659128519E+02  0.00000000000E+00 0. -1.
         11    1    3    3    0    0 -0.33820796053E+01  0.10468747677E+02 -0.20432792615E+01  0.11189643907E+02  0.51100000000E-03 0. -1.
        -11    1    3    3    0    0  0.20928795934E+01  0.18444556220E+02  0.34374186487E+01  0.18878496931E+02  0.51100000000E-03 0.  1.
        -12    1    3    3    0    0  0.10982773175E+02  0.65492346306E+01  0.15972717914E+02  0.20460730642E+02  0.00000000000E+00 0.  1.
</event>
<event>
 7    1  0.5642630E-013  0.5052877E+02  0.7816164E-02  0.1300439E+00
        -11   -1    0    0    0    0  0.00000000000E+00  0.00000000000E+00  0.45593999997E+02  0.45594000000E+02  0.51100000000E-03 0. -1.
         11   -1    0    0    0    0 -0.00000000000E+00 -0.00000000000E+00 -0.45593999997E+02  0.45594000000E+02  0.51100000000E-03 0.  1.
    9900012    2    1    2    0    0  0.36194440903E+02  0.21521802927E+00 -0.18522672601E+02  0.50528766468E+02  0.29999716156E+02 0.  0.
         12    1    1    2    0    0 -0.36194440903E+02 -0.21521802927E+00  0.18522672601E+02  0.40659233532E+02  0.00000000000E+00 0. -1.
         11    1    3    3    0    0  0.37957476812E+01  0.55267318275E+01 -0.60634661273E+01  0.90398056888E+01  0.51100000000E-03 0. -1.
        -11    1    3    3    0    0  0.20066793880E+02  0.21260859553E+01 -0.17003539170E+02  0.26387815421E+02  0.51100000000E-03 0.  1.
        -12    1    3    3    0    0  0.12331899342E+02 -0.74375997536E+01  0.45443326968E+01  0.15101145358E+02  0.00000000000E+00 0.  1.
</event>
<event>
 7    1  0.5642630E-013  0.5052888E+02  0.7816164E-02  0.1300439E+00
        -11   -1    0    0    0    0  0.00000000000E+00  0.00000000000E+00  0.45593999997E+02  0.45594000000E+02  0.51100000000E-03 0.  1.
         11   -1    0    0    0    0 -0.00000000000E+00 -0.00000000000E+00 -0.45593999997E+02  0.45594000000E+02  0.51100000000E-03 0. -1.
    9900012    2    1    2    0    0  0.18393198735E+02  0.18743323766E+02  0.31040974639E+02  0.50528879842E+02  0.30000060767E+02 0.  0.
         12    1    1    2    0    0 -0.18393198735E+02 -0.18743323766E+02 -0.31040974639E+02  0.40659120158E+02  0.00000000000E+00 0. -1.
         11    1    3    3    0    0  0.16216886274E+01 -0.28799820978E+01  0.33112881620E+01  0.46785468301E+01  0.51100000000E-03 0. -1.
        -11    1    3    3    0    0  0.19851847500E+01  0.50957917604E+00  0.18282781883E+02  0.18397302603E+02  0.51100000000E-03 0.  1.
         12    1    3    3    0    0  0.14786325358E+02  0.21113726688E+02  0.94469045947E+01  0.27453030409E+02  0.00000000000E+00 0. -1.
</event>
<event>
 7    1  0.5642630E-013  0.5052887E+02  0.7816164E-02  0.1300439E+00
        -11   -1    0    0    0    0  0.00000000000E+00  0.00000000000E+00  0.45593999997E+02  0.45594000000E+02  0.51100000000E-03 0. -1.
         11   -1    0    0    0    0 -0.00000000000E+00 -0.00000000000E+00 -0.45593999997E+02  0.45594000000E+02  0.51100000000E-03 0.  1.
    9900012    2    1    2    0    0 -0.69547835649E+01 -0.38590852002E+02 -0.10749049163E+02  0.50528869038E+02  0.30000027928E+02 0.  0.
         12    1    1    2    0    0  0.69547835649E+01  0.38590852002E+02  0.10749049163E+02  0.40659130962E+02  0.00000000000E+00 0. -1.
         11    1    3    3    0    0 -0.35775749009E+01  0.31763249531E+01 -0.28373204634E+01  0.55622360659E+01  0.51100000000E-03 0. -1.
        -11    1    3    3    0    0 -0.35716048341E+01 -0.19427029044E+01 -0.25071441213E+01  0.47766334977E+01  0.51100000000E-03 0.  1.
        -12    1    3    3    0    0  0.19439617011E+00 -0.39824474051E+02 -0.54045845779E+01  0.40189999474E+02  0.00000000000E+00 0.  1.
</event>
<event>
 7    1  0.5642630E-013  0.5052886E+02  0.7816164E-02  0.1300439E+00
        -11   -1    0    0    0    0  0.00000000000E+00  0.00000000000E+00  0.45593999997E+02  0.45594000000E+02  0.51100000000E-03 0.  1.
         11   -1    0    0    0    0 -0.00000000000E+00 -0.00000000000E+00 -0.45593999997E+02  0.45594000000E+02  0.51100000000E-03 0. -1.
    9900012    2    1    2    0    0 -0.29639505628E+01  0.35717676397E+02  0.19199687653E+02  0.50528863067E+02  0.30000009779E+02 0.  0.
         12    1    1    2    0    0  0.29639505628E+01 -0.35717676397E+02 -0.19199687653E+02  0.40659136933E+02  0.00000000000E+00 0. -1.
         11    1    3    3    0    0 -0.34565464565E+01  0.22025993428E+01 -0.33164628792E+01  0.52723887908E+01  0.51100000000E-03 0. -1.
        -11    1    3    3    0    0 -0.59833733643E+00  0.89632332129E+01 -0.33400176519E+01  0.95840114448E+01  0.51100000000E-03 0.  1.
         12    1    3    3    0    0  0.10909332301E+01  0.24551843841E+02  0.25856168184E+02  0.35672462832E+02  0.00000000000E+00 0. -1.
</event>
<event>
 7    1  0.5642630E-013  0.5052886E+02  0.7816164E-02  0.1300439E+00
        -11   -1    0    0    0    0  0.00000000000E+00  0.00000000000E+00  0.45593999997E+02  0.45594000000E+02  0.51100000000E-03 0.  1.
         11   -1    0    0    0    0 -0.00000000000E+00 -0.00000000000E+00 -0.45593999997E+02  0.45594000000E+02  0.51100000000E-03 0. -1.
    9900012    2    1    2    0    0 -0.37793952930E+02 -0.10759153000E+02  0.10441420425E+02  0.50528861890E+02  0.30000006201E+02 0.  0.
         12    1    1    2    0    0  0.37793952930E+02  0.10759153000E+02 -0.10441420425E+02  0.40659138110E+02  0.00000000000E+00 0. -1.
         11    1    3    3    0    0  0.83822166396E+00 -0.27805612535E+01 -0.51477518711E+01  0.59104556533E+01  0.51100000000E-03 0. -1.
        -11    1    3    3    0    0 -0.12267501185E+02  0.35761907756E+01  0.26097158494E+01  0.13041907179E+02  0.51100000000E-03 0.  1.
        -12    1    3    3    0    0 -0.26364673409E+02 -0.11554782523E+02  0.12979456447E+02  0.31576499058E+02  0.00000000000E+00 0.  1.
</event>
<event>
 7    1  0.5642630E-013  0.5052886E+02  0.7816164E-02  0.1300439E+00
        -11   -1    0    0    0    0  0.00000000000E+00  0.00000000000E+00  0.45593999997E+02  0.45594000000E+02  0.51100000000E-03 0.  1.
         11   -1    0    0    0    0 -0.00000000000E+00 -0.00000000000E+00 -0.45593999997E+02  0.45594000000E+02  0.51100000000E-03 0. -1.
    9900012    2    1    2    0    0  0.29641013492E+02  0.25909286678E+02  0.10162898808E+02  0.50528864136E+02  0.30000013028E+02 0.  0.
         12    1    1    2    0    0 -0.29641013492E+02 -0.25909286678E+02 -0.10162898808E+02  0.40659135864E+02  0.00000000000E+00 0. -1.
         11    1    3    3    0    0  0.11186935349E+02  0.18037281563E+01  0.14498561140E+02  0.18401337809E+02  0.51100000000E-03 0. -1.
        -11    1    3    3    0    0  0.19221943100E+01  0.14516067684E+01 -0.32715702425E+01  0.40626549556E+01  0.51100000000E-03 0.  1.
        -12    1    3    3    0    0  0.16531883833E+02  0.22653951753E+02 -0.10640920900E+01  0.28064871371E+02  0.00000000000E+00 0.  1.
</event>
<event>
 7    1  0.5642630E-013  0.5052885E+02  0.7816164E-02  0.1300439E+00
        -11   -1    0    0    0    0  0.00000000000E+00  0.00000000000E+00  0.45593999997E+02  0.45594000000E+02  0.51100000000E-03 0. -1.
         11   -1    0    0    0    0 -0.00000000000E+00 -0.00000000000E+00 -0.45593999997E+02  0.45594000000E+02  0.51100000000E-03 0.  1.
    9900012    2    1    2    0    0  0.38497998261E+02 -0.49143159450E+01 -0.12121059345E+02  0.50528850341E+02  0.29999971097E+02 0.  0.
         12    1    1    2    0    0 -0.38497998261E+02  0.49143159450E+01  0.12121059345E+02  0.40659149659E+02  0.00000000000E+00 0. -1.
         11    1    3    3    0    0 -0.10251908392E+01 -0.21887770838E+01 -0.32706957756E+01  0.40668430627E+01  0.51100000000E-03 0. -1.
        -11    1    3    3    0    0  0.10325777979E+02 -0.86158583122E+01 -0.98338789038E+01  0.16660128447E+02  0.51100000000E-03 0.  1.
         12    1    3    3    0    0  0.29197411122E+02  0.58903194510E+01  0.98351533478E+00  0.29801878831E+02  0.00000000000E+00 0. -1.
</event>
<event>
 7    1  0.5642630E-013  0.5052901E+02  0.7816164E-02  0.1300438E+00
        -11   -1    0    0    0    0  0.00000000000E+00  0.00000000000E+00  0.45593999997E+02  0.45594000000E+02  0.51100000000E-03 0.  1.
         11   -1    0    0    0    0 -0.00000000000E+00 -0.00000000000E+00 -0.45593999997E+02  0.45594000000E+02  0.51100000000E-03 0. -1.
    9900012    2    1    2    0    0 -0.20794159975E+02 -0.20473376530E+02  0.28312499328E+02  0.50529005254E+02  0.30000441966E+02 0.  0.
         12    1    1    2    0    0  0.20794159975E+02  0.20473376530E+02 -0.28312499328E+02  0.40658994746E+02  0.00000000000E+00 0. -1.
         11    1    3    3    0    0  0.42052295113E+01 -0.18878824911E+01  0.94654750474E+01  0.10528213223E+02  0.51100000000E-03 0. -1.
        -11    1    3    3    0    0 -0.15159086317E+02 -0.16288820263E+02  0.19886291530E+02  0.29842723646E+02  0.51100000000E-03 0.  1.
         12    1    3    3    0    0 -0.98403031688E+01 -0.22966737760E+01 -0.10392672498E+01  0.10158068385E+02  0.00000000000E+00 0. -1.
</event>
<event>
 7    1  0.5642630E-013  0.5052886E+02  0.7816164E-02  0.1300439E+00
        -11   -1    0    0    0    0  0.00000000000E+00  0.00000000000E+00  0.45593999997E+02  0.45594000000E+02  0.51100000000E-03 0.  1.
         11   -1    0    0    0    0 -0.00000000000E+00 -0.00000000000E+00 -0.45593999997E+02  0.45594000000E+02  0.51100000000E-03 0. -1.
    9900012    2    1    2    0    0  0.17709745679E+02  0.15757340942E+01  0.36565664247E+02  0.50528857956E+02  0.29999994243E+02 0.  0.
         12    1    1    2    0    0 -0.17709745679E+02 -0.15757340942E+01 -0.36565664247E+02  0.40659142044E+02  0.00000000000E+00 0. -1.
         11    1    3    3    0    0  0.73447542331E+01  0.47344852611E+01  0.14304650526E+02  0.16762571174E+02  0.51100000000E-03 0. -1.
        -11    1    3    3    0    0  0.25032977151E+01  0.65554888057E+01  0.19830208507E+02  0.21035163480E+02  0.51100000000E-03 0.  1.
         12    1    3    3    0    0  0.78616937305E+01 -0.97142399726E+01  0.24308052142E+01  0.12731123303E+02  0.00000000000E+00 0. -1.
</event>
<event>
 7    1  0.5642630E-013  0.5052891E+02  0.7816164E-02  0.1300439E+00
        -11   -1    0    0    0    0  0.00000000000E+00  0.00000000000E+00  0.45593999997E+02  0.45594000000E+02  0.51100000000E-03 0. -1.
         11   -1    0    0    0    0 -0.00000000000E+00 -0.00000000000E+00 -0.45593999997E+02  0.45594000000E+02  0.51100000000E-03 0.  1.
    9900012    2    1    2    0    0  0.25832303500E+02  0.25267712063E+02 -0.18638574335E+02  0.50528909624E+02  0.30000151292E+02 0.  0.
         12    1    1    2    0    0 -0.25832303500E+02 -0.25267712063E+02  0.18638574335E+02  0.40659090376E+02  0.00000000000E+00 0. -1.
         11    1    3    3    0    0  0.85710904633E+01  0.12002970356E+02 -0.64780814984E+01  0.16109017017E+02  0.51100000000E-03 0. -1.
        -11    1    3    3    0    0  0.15791843986E+02  0.16025907035E+02 -0.66767632140E+00  0.22509060947E+02  0.51100000000E-03 0.  1.
         12    1    3    3    0    0  0.14693690498E+01 -0.27611653279E+01 -0.11492816515E+02  0.11910831659E+02  0.00000000000E+00 0. -1.
</event>
<event>
 7    1  0.5642630E-013  0.5052886E+02  0.7816164E-02  0.1300439E+00
        -11   -1    0    0    0    0  0.00000000000E+00  0.00000000000E+00  0.45593999997E+02  0.45594000000E+02  0.51100000000E-03 0. -1.
         11   -1    0    0    0    0 -0.00000000000E+00 -0.00000000000E+00 -0.45593999997E+02  0.45594000000E+02  0.51100000000E-03 0.  1.
    9900012    2    1    2    0    0  0.27266973384E+02  0.26924908248E+02  0.13591440349E+02  0.50528858686E+02  0.29999996461E+02 0.  0.
         12    1    1    2    0    0 -0.27266973384E+02 -0.26924908248E+02 -0.13591440349E+02  0.40659141314E+02  0.00000000000E+00 0. -1.
         11    1    3    3    0    0 -0.93259462581E+00  0.21646702612E+01  0.88814858643E+01  0.91889238485E+01  0.51100000000E-03 0. -1.
        -11    1    3    3    0    0 -0.16086009698E+01  0.16673172031E+01  0.27307437248E+01  0.35811318445E+01  0.51100000000E-03 0.  1.
         12    1    3    3    0    0  0.29808168979E+02  0.23092920784E+02  0.19792107599E+01  0.37758802993E+02  0.00000000000E+00 0. -1.
</event>
<event>
 7    1  0.5642630E-013  0.5052886E+02  0.7816164E-02  0.1300439E+00
        -11   -1    0    0    0    0  0.00000000000E+00  0.00000000000E+00  0.45593999997E+02  0.45594000000E+02  0.51100000000E-03 0.  1.
         11   -1    0    0    0    0 -0.00000000000E+00 -0.00000000000E+00 -0.45593999997E+02  0.45594000000E+02  0.51100000000E-03 0. -1.
    9900012    2    1    2    0    0  0.27012503295E+02  0.25845526749E+02  0.15984335153E+02  0.50528861329E+02  0.30000004495E+02 0.  0.
         12    1    1    2    0    0 -0.27012503295E+02 -0.25845526749E+02 -0.15984335153E+02  0.40659138671E+02  0.00000000000E+00 0. -1.
         11    1    3    3    0    0  0.51117026059E+01 -0.88856213248E+00  0.32151980099E+01  0.61038139469E+01  0.51100000000E-03 0. -1.
        -11    1    3    3    0    0 -0.36608279963E+01 -0.60246882805E+00 -0.19711167132E+01  0.42011821747E+01  0.51100000000E-03 0.  1.
        -12    1    3    3    0    0  0.25561628685E+02  0.27336557710E+02  0.14740253856E+02  0.40223865207E+02  0.00000000000E+00 0.  1.
</event>
<event>
 7    1  0.5642630E-013  0.5052886E+02  0.7816164E-02  0.1300439E+00
        -11   -1    0    0    0    0  0.00000000000E+00  0.00000000000E+00  0.45593999997E+02  0.45594000000E+02  0.51100000000E-03 0.  1.
         11   -1    0    0    0    0 -0.00000000000E+00 -0.00000000000E+00 -0.45593999997E+02  0.45594000000E+02  0.51100000000E-03 0. -1.
    9900012    2    1    2    0    0  0.31609390206E+02  0.91224285270E+01  0.23891275437E+02  0.50528864576E+02  0.30000014366E+02 0.  0.
         12    1    1    2    0    0 -0.31609390206E+02 -0.91224285270E+01 -0.23891275437E+02  0.40659135424E+02  0.00000000000E+00 0. -1.
         11    1    3    3    0    0  0.23860598011E+01 -0.45138590013E+01  0.89289719658E+01  0.10285657251E+02  0.51100000000E-03 0. -1.
        -11    1    3    3    0    0  0.19687610189E+01  0.18617322719E+01  0.97251568996E+01  0.10095580418E+02  0.51100000000E-03 0.  1.
        -12    1    3    3    0    0  0.27254569386E+02  0.11774555256E+02  0.52371465715E+01  0.30147626907E+02  0.00000000000E+00 0.  1.
</event>
<event>
 7    1  0.5642630E-013  0.5052886E+02  0.7816164E-02  0.1300439E+00
        -11   -1    0    0    0    0  0.00000000000E+00  0.00000000000E+00  0.45593999997E+02  0.45594000000E+02  0.51100000000E-03 0. -1.
         11   -1    0    0    0    0 -0.00000000000E+00 -0.00000000000E+00 -0.45593999997E+02  0.45594000000E+02  0.51100000000E-03 0.  1.
    9900012    2    1    2    0    0  0.84401805518E+01 -0.39444240074E+02 -0.51069440607E+01  0.50528860801E+02  0.30000002892E+02 0.  0.
         12    1    1    2    0    0 -0.84401805518E+01  0.39444240074E+02  0.51069440607E+01  0.40659139199E+02  0.00000000000E+00 0. -1.
         11    1    3    3    0    0  0.96363859718E+01 -0.14900770243E+02  0.22130490149E+01  0.17882686449E+02  0.51100000000E-03 0. -1.
        -11    1    3    3    0    0  0.75340643369E+01 -0.52206505674E+01  0.21643147365E+01  0.94181514279E+01  0.51100000000E-03 0.  1.
        -12    1    3    3    0    0 -0.87302697569E+01 -0.19322819263E+02 -0.94843078121E+01  0.23228022924E+02  0.00000000000E+00 0.  1.
</event>
<event>
 7    1  0.5642630E-013  0.5052883E+02  0.7816164E-02  0.1300439E+00
        -11   -1    0    0    0    0  0.00000000000E+00  0.00000000000E+00  0.45593999997E+02  0.45594000000E+02  0.51100000000E-03 0.  1.
         11   -1    0    0    0    0 -0.00000000000E+00 -0.00000000000E+00 -0.45593999997E+02  0.45594000000E+02  0.51100000000E-03 0. -1.
    9900012    2    1    2    0    0 -0.27225972954E+02  0.28639794301E+02  0.95747977784E+01  0.50528829160E+02  0.29999906716E+02 0.  0.
         12    1    1    2    0    0  0.27225972954E+02 -0.28639794301E+02 -0.95747977784E+01  0.40659170840E+02  0.00000000000E+00 0. -1.
         11    1    3    3    0    0  0.14075719198E+01  0.75219058344E+01 -0.22789849736E+01  0.79846163879E+01  0.51100000000E-03 0. -1.
        -11    1    3    3    0    0 -0.11748673494E+02  0.20896899222E+02  0.69312398437E+01  0.24955035804E+02  0.51100000000E-03 0.  1.
         12    1    3    3    0    0 -0.16884871379E+02  0.22098924438E+00  0.49225429083E+01  0.17589176968E+02  0.00000000000E+00 0. -1.
</event>
<event>
 7    1  0.5642630E-013  0.5052886E+02  0.7816164E-02  0.1300439E+00
        -11   -1    0    0    0    0  0.00000000000E+00  0.00000000000E+00  0.45593999997E+02  0.45594000000E+02  0.51100000000E-03 0. -1.
         11   -1    0    0    0    0 -0.00000000000E+00 -0.00000000000E+00 -0.45593999997E+02  0.45594000000E+02  0.51100000000E-03 0.  1.
    9900012    2    1    2    0    0 -0.38792958303E+02 -0.10429260283E+02  0.62850982193E+01  0.50528861500E+02  0.30000005015E+02 0.  0.
         12    1    1    2    0    0  0.38792958303E+02  0.10429260283E+02 -0.62850982193E+01  0.40659138500E+02  0.00000000000E+00 0. -1.
         11    1    3    3    0    0 -0.16909226588E+02 -0.79976931915E+01  0.15588750749E+02  0.24349418686E+02  0.51100000000E-03 0. -1.
        -11    1    3    3    0    0 -0.12405983806E+02  0.41601673420E+00  0.26209476867E+00  0.12415723823E+02  0.51100000000E-03 0.  1.
        -12    1    3    3    0    0 -0.94777479091E+01 -0.28475838260E+01 -0.95657472982E+01  0.13763718990E+02  0.00000000000E+00 0.  1.
</event>
<event>
 7    1  0.5642630E-013  0.5052886E+02  0.7816164E-02  0.1300439E+00
        -11   -1    0    0    0    0  0.00000000000E+00  0.00000000000E+00  0.45593999997E+02  0.45594000000E+02  0.51100000000E-03 0. -1.
         11   -1    0    0    0    0 -0.00000000000E+00 -0.00000000000E+00 -0.45593999997E+02  0.45594000000E+02  0.51100000000E-03 0.  1.
    9900012    2    1    2    0    0 -0.32334621553E+02  0.23181170610E+02  0.83827816263E+01  0.50528862655E+02  0.30000008527E+02 0.  0.
         12    1    1    2    0    0  0.32334621553E+02 -0.23181170610E+02 -0.83827816263E+01  0.40659137345E+02  0.00000000000E+00 0. -1.
         11    1    3    3    0    0 -0.20594320941E+02  0.54922170454E+01  0.76743957438E+01  0.22653627819E+02  0.51100000000E-03 0. -1.
        -11    1    3    3    0    0 -0.15032644248E+02  0.10287344023E+02  0.47462625471E+01  0.18823837244E+02  0.51100000000E-03 0.  1.
        -12    1    3    3    0    0  0.32923436357E+01  0.74016095411E+01 -0.40378766645E+01  0.90513975922E+01  0.00000000000E+00 0.  1.
</event>
<event>
 7    1  0.5642630E-013  0.5052886E+02  0.7816164E-02  0.1300439E+00
        -11   -1    0    0    0    0  0.00000000000E+00  0.00000000000E+00  0.45593999997E+02  0.45594000000E+02  0.51100000000E-03 0. -1.
         11   -1    0    0    0    0 -0.00000000000E+00 -0.00000000000E+00 -0.45593999997E+02  0.45594000000E+02  0.51100000000E-03 0.  1.
    9900012    2    1    2    0    0  0.13348957262E+02 -0.22294627198E+02 -0.31271717943E+02  0.50528863203E+02  0.30000010193E+02 0.  0.
         12    1    1    2    0    0 -0.13348957262E+02  0.22294627198E+02  0.31271717943E+02  0.40659136797E+02  0.00000000000E+00 0. -1.
         11    1    3    3    0    0  0.97920974545E+01 -0.52046280626E+01 -0.42662482105E+01  0.11881674961E+02  0.51100000000E-03 0.  1.
        -11    1    3    3    0    0  0.83604368760E+01 -0.99916138576E+01 -0.32994711378E+01  0.13439336378E+02  0.51100000000E-03 0. -1.
        -12    1    3    3    0    0 -0.48035770680E+01 -0.70983852782E+01 -0.23705998595E+02  0.25207851864E+02  0.00000000000E+00 0.  1.
</event>
<event>
 7    1  0.5642630E-013  0.5052888E+02  0.7816164E-02  0.1300439E+00
        -11   -1    0    0    0    0  0.00000000000E+00  0.00000000000E+00  0.45593999997E+02  0.45594000000E+02  0.51100000000E-03 0.  1.
         11   -1    0    0    0    0 -0.00000000000E+00 -0.00000000000E+00 -0.45593999997E+02  0.45594000000E+02  0.51100000000E-03 0. -1.
    9900012    2    1    2    0    0 -0.18049147078E+02  0.23089009144E+02  0.28183157076E+02  0.50528875609E+02  0.30000047902E+02 0.  0.
         12    1    1    2    0    0  0.18049147078E+02 -0.23089009144E+02 -0.28183157076E+02  0.40659124391E+02  0.00000000000E+00 0. -1.
         11    1    3    3    0    0 -0.61632610393E+01  0.11830064338E+02 -0.84550713667E+00  0.13366042476E+02  0.51100000000E-03 0. -1.
        -11    1    3    3    0    0 -0.72673594457E+01 -0.31571345190E+01  0.11982733317E+02  0.14365511118E+02  0.51100000000E-03 0.  1.
        -12    1    3    3    0    0 -0.46185265930E+01  0.14416079324E+02  0.17045930895E+02  0.22797322015E+02  0.00000000000E+00 0.  1.
</event>
<event>
 7    1  0.5642630E-013  0.5052890E+02  0.7816164E-02  0.1300439E+00
        -11   -1    0    0    0    0  0.00000000000E+00  0.00000000000E+00  0.45593999997E+02  0.45594000000E+02  0.51100000000E-03 0.  1.
         11   -1    0    0    0    0 -0.00000000000E+00 -0.00000000000E+00 -0.45593999997E+02  0.45594000000E+02  0.51100000000E-03 0. -1.
    9900012    2    1    2    0    0  0.13484955111E+02 -0.34289638976E+02  0.17191245364E+02  0.50528901724E+02  0.30000127280E+02 0.  0.
         12    1    1    2    0    0 -0.13484955111E+02  0.34289638976E+02 -0.17191245364E+02  0.40659098276E+02  0.00000000000E+00 0. -1.
         11    1    3    3    0    0  0.70123111582E+01 -0.15697552812E+02 -0.57971372276E+01  0.18143662044E+02  0.51100000000E-03 0. -1.
        -11    1    3    3    0    0  0.57621793477E+01 -0.19008668365E+01  0.69572654328E+01  0.92314434478E+01  0.51100000000E-03 0.  1.
        -12    1    3    3    0    0  0.71046460475E+00 -0.16691219328E+02  0.16031117159E+02  0.23153796232E+02  0.00000000000E+00 0.  1.
</event>
<event>
 7    1  0.5642630E-013  0.5052886E+02  0.7816164E-02  0.1300439E+00
        -11   -1    0    0    0    0  0.00000000000E+00  0.00000000000E+00  0.45593999997E+02  0.45594000000E+02  0.51100000000E-03 0.  1.
         11   -1    0    0    0    0 -0.00000000000E+00 -0.00000000000E+00 -0.45593999997E+02  0.45594000000E+02  0.51100000000E-03 0. -1.
    9900012    2    1    2    0    0 -0.17712243181E+02  0.33489938466E+02  0.14760294055E+02  0.50528858131E+02  0.29999994774E+02 0.  0.
         12    1    1    2    0    0  0.17712243181E+02 -0.33489938466E+02 -0.14760294055E+02  0.40659141869E+02  0.00000000000E+00 0. -1.
         11    1    3    3    0    0 -0.68715666378E+01  0.75697395929E+01  0.15945519633E+02  0.18941461987E+02  0.51100000000E-03 0. -1.
        -11    1    3    3    0    0 -0.52375885018E+01  0.10423099019E+02  0.65556127239E+01  0.13380933634E+02  0.51100000000E-03 0.  1.
         12    1    3    3    0    0 -0.56030880418E+01  0.15497099854E+02 -0.77408383028E+01  0.18206462510E+02  0.00000000000E+00 0. -1.
</event>
<event>
 7    1  0.5642630E-013  0.5052886E+02  0.7816164E-02  0.1300439E+00
        -11   -1    0    0    0    0  0.00000000000E+00  0.00000000000E+00  0.45593999997E+02  0.45594000000E+02  0.51100000000E-03 0.  1.
         11   -1    0    0    0    0 -0.00000000000E+00 -0.00000000000E+00 -0.45593999997E+02  0.45594000000E+02  0.51100000000E-03 0. -1.
    9900012    2    1    2    0    0  0.10242345455E+02 -0.28739122617E+02  0.26876064647E+02  0.50528860066E+02  0.30000000658E+02 0.  0.
         12    1    1    2    0    0 -0.10242345455E+02  0.28739122617E+02 -0.26876064647E+02  0.40659139934E+02  0.00000000000E+00 0. -1.
         11    1    3    3    0    0  0.32169417962E+01 -0.32623397003E+02  0.22077406815E+02  0.39522735716E+02  0.51100000000E-03 0. -1.
        -11    1    3    3    0    0  0.78300439489E+01  0.25019004228E+01  0.45255333247E+01  0.93834719642E+01  0.51100000000E-03 0.  1.
        -12    1    3    3    0    0 -0.80464028986E+00  0.13823739630E+01  0.27312450691E+00  0.16226523860E+01  0.00000000000E+00 0.  1.
</event>
<event>
 7    1  0.5642630E-013  0.5052886E+02  0.7816164E-02  0.1300439E+00
        -11   -1    0    0    0    0  0.00000000000E+00  0.00000000000E+00  0.45593999997E+02  0.45594000000E+02  0.51100000000E-03 0.  1.
         11   -1    0    0    0    0 -0.00000000000E+00 -0.00000000000E+00 -0.45593999997E+02  0.45594000000E+02  0.51100000000E-03 0. -1.
    9900012    2    1    2    0    0 -0.21828413870E+02 -0.34301296237E+02  0.32688037555E+00  0.50528862941E+02  0.30000009397E+02 0.  0.
         12    1    1    2    0    0  0.21828413870E+02  0.34301296237E+02 -0.32688037555E+00  0.40659137059E+02  0.00000000000E+00 0. -1.
         11    1    3    3    0    0 -0.11107382026E+01  0.11598635277E+01 -0.39410404853E+01  0.42556812763E+01  0.51100000000E-03 0. -1.
        -11    1    3    3    0    0 -0.16812015768E+02 -0.22584381031E+02 -0.66678938156E+01  0.28933699192E+02  0.51100000000E-03 0.  1.
        -12    1    3    3    0    0 -0.39056598988E+01 -0.12876778733E+02  0.10935814676E+02  0.17339482473E+02  0.00000000000E+00 0.  1.
</event>
<event>
 7    1  0.5642630E-013  0.5052886E+02  0.7816164E-02  0.1300439E+00
        -11   -1    0    0    0    0  0.00000000000E+00  0.00000000000E+00  0.45593999997E+02  0.45594000000E+02  0.51100000000E-03 0. -1.
         11   -1    0    0    0    0 -0.00000000000E+00 -0.00000000000E+00 -0.45593999997E+02  0.45594000000E+02  0.51100000000E-03 0.  1.
    9900012    2    1    2    0    0 -0.29025928132E+02  0.22074454535E+02 -0.17982750689E+02  0.50528863643E+02  0.30000011530E+02 0.  0.
         12    1    1    2    0    0  0.29025928132E+02 -0.22074454535E+02  0.17982750689E+02  0.40659136357E+02  0.00000000000E+00 0. -1.
         11    1    3    3    0    0 -0.25304513096E+02  0.16442434368E+02 -0.21269918828E+02  0.36919933344E+02  0.51100000000E-03 0. -1.
        -11    1    3    3    0    0 -0.78855299229E+00  0.34018137193E+01 -0.40808696776E+01  0.53710008369E+01  0.51100000000E-03 0.  1.
         12    1    3    3    0    0 -0.29328620437E+01  0.22302064472E+01  0.73680378159E+01  0.82379294621E+01  0.00000000000E+00 0. -1.
</event>
<event>
 7    1  0.5642630E-013  0.5052887E+02  0.7816164E-02  0.1300439E+00
        -11   -1    0    0    0    0  0.00000000000E+00  0.00000000000E+00  0.45593999997E+02  0.45594000000E+02  0.51100000000E-03 0.  1.
         11   -1    0    0    0    0 -0.00000000000E+00 -0.00000000000E+00 -0.45593999997E+02  0.45594000000E+02  0.51100000000E-03 0. -1.
    9900012    2    1    2    0    0  0.13476188186E+02  0.23372778740E+02 -0.30418264356E+02  0.50528865228E+02  0.30000016346E+02 0.  0.
         12    1    1    2    0    0 -0.13476188186E+02 -0.23372778740E+02  0.30418264356E+02  0.40659134772E+02  0.00000000000E+00 0. -1.
         11    1    3    3    0    0  0.85517992238E-01 -0.81313490995E+00  0.14995217877E+01  0.17079424937E+01  0.51100000000E-03 0. -1.
        -11    1    3    3    0    0  0.15868432720E+01  0.15711819643E+02 -0.24706721231E+01  0.15983853386E+02  0.51100000000E-03 0.  1.
         12    1    3    3    0    0  0.11803826921E+02  0.84740940066E+01 -0.29447114020E+02  0.32837069348E+02  0.00000000000E+00 0. -1.
</event>
<event>
 7    1  0.5642630E-013  0.5052885E+02  0.7816164E-02  0.1300439E+00
        -11   -1    0    0    0    0  0.00000000000E+00  0.00000000000E+00  0.45593999997E+02  0.45594000000E+02  0.51100000000E-03 0.  1.
         11   -1    0    0    0    0 -0.00000000000E+00 -0.00000000000E+00 -0.45593999997E+02  0.45594000000E+02  0.51100000000E-03 0. -1.
    9900012    2    1    2    0    0 -0.80437815348E+01 -0.94412395913E+01  0.38721144507E+02  0.50528850251E+02  0.29999970822E+02 0.  0.
         12    1    1    2    0    0  0.80437815348E+01  0.94412395913E+01 -0.38721144507E+02  0.40659149749E+02  0.00000000000E+00 0. -1.
         11    1    3    3    0    0  0.31726595102E+00 -0.24681472816E+01  0.40468575972E+01  0.47507331393E+01  0.51100000000E-03 0. -1.
        -11    1    3    3    0    0  0.61905349944E-01  0.19512408598E+01  0.33381685814E+02  0.33438721884E+02  0.51100000000E-03 0.  1.
         12    1    3    3    0    0 -0.84229528358E+01 -0.89243331695E+01  0.12926010957E+01  0.12339395228E+02  0.00000000000E+00 0. -1.
</event>
<event>
 7    1  0.5642630E-013  0.5052893E+02  0.7816164E-02  0.1300439E+00
        -11   -1    0    0    0    0  0.00000000000E+00  0.00000000000E+00  0.45593999997E+02  0.45594000000E+02  0.51100000000E-03 0. -1.
         11   -1    0    0    0    0 -0.00000000000E+00 -0.00000000000E+00 -0.45593999997E+02  0.45594000000E+02  0.51100000000E-03 0.  1.
    9900012    2    1    2    0    0 -0.39269641941E+01 -0.22790297445E+02 -0.33441611995E+02  0.50528928217E+02  0.30000207809E+02 0.  0.
         12    1    1    2    0    0  0.39269641941E+01  0.22790297445E+02  0.33441611995E+02  0.40659071783E+02  0.00000000000E+00 0. -1.
         11    1    3    3    0    0 -0.73688210362E+00 -0.13204335225E+01  0.18313465750E+01  0.23749464122E+01  0.51100000000E-03 0. -1.
        -11    1    3    3    0    0  0.11149225271E+01  0.40599839706E+01  0.22644014139E+00  0.42163725501E+01  0.51100000000E-03 0.  1.
        -12    1    3    3    0    0 -0.43050046176E+01 -0.25529847893E+02 -0.35499398711E+02  0.43937609255E+02  0.00000000000E+00 0.  1.
</event>
<event>
 7    1  0.5642630E-013  0.5052886E+02  0.7816164E-02  0.1300439E+00
        -11   -1    0    0    0    0  0.00000000000E+00  0.00000000000E+00  0.45593999997E+02  0.45594000000E+02  0.51100000000E-03 0.  1.
         11   -1    0    0    0    0 -0.00000000000E+00 -0.00000000000E+00 -0.45593999997E+02  0.45594000000E+02  0.51100000000E-03 0. -1.
    9900012    2    1    2    0    0  0.12577048152E+02 -0.75661881906E+01  0.37917497325E+02  0.50528856534E+02  0.29999989921E+02 0.  0.
         12    1    1    2    0    0 -0.12577048152E+02  0.75661881906E+01 -0.37917497325E+02  0.40659143466E+02  0.00000000000E+00 0. -1.
         11    1    3    3    0    0 -0.10259625167E+01  0.25718150963E+00  0.18713124184E+02  0.18742992248E+02  0.51100000000E-03 0. -1.
        -11    1    3    3    0    0  0.12442022749E+02 -0.69562723909E+01  0.23370629272E+02  0.27374805360E+02  0.51100000000E-03 0.  1.
         12    1    3    3    0    0  0.11609879205E+01 -0.86709730930E+00 -0.41662561314E+01  0.44110589259E+01  0.00000000000E+00 0. -1.
</event>
<event>
 7    1  0.5642630E-013  0.5052886E+02  0.7816164E-02  0.1300439E+00
        -11   -1    0    0    0    0  0.00000000000E+00  0.00000000000E+00  0.45593999997E+02  0.45594000000E+02  0.51100000000E-03 0.  1.
         11   -1    0    0    0    0 -0.00000000000E+00 -0.00000000000E+00 -0.45593999997E+02  0.45594000000E+02  0.51100000000E-03 0. -1.
    9900012    2    1    2    0    0  0.23268405870E+02 -0.33156160590E+02  0.35235761951E+01  0.50528864668E+02  0.30000014644E+02 0.  0.
         12    1    1    2    0    0 -0.23268405870E+02  0.33156160590E+02 -0.35235761951E+01  0.40659135332E+02  0.00000000000E+00 0. -1.
         11    1    3    3    0    0  0.19494939092E+02 -0.10929235521E+02 -0.32056248484E+01  0.22578238864E+02  0.51100000000E-03 0. -1.
        -11    1    3    3    0    0  0.71812518018E+01 -0.49469322076E+01  0.54678374962E+01  0.10292704351E+02  0.51100000000E-03 0.  1.
         12    1    3    3    0    0 -0.34077850237E+01 -0.17279992861E+02  0.12613635473E+01  0.17657921453E+02  0.00000000000E+00 0. -1.
</event>
<event>
 7    1  0.5642630E-013  0.5052885E+02  0.7816164E-02  0.1300439E+00
        -11   -1    0    0    0    0  0.00000000000E+00  0.00000000000E+00  0.45593999997E+02  0.45594000000E+02  0.51100000000E-03 0.  1.
         11   -1    0    0    0    0 -0.00000000000E+00 -0.00000000000E+00 -0.45593999997E+02  0.45594000000E+02  0.51100000000E-03 0. -1.
    9900012    2    1    2    0    0  0.20529010273E+02  0.47687444775E+01  0.34770460150E+02  0.50528854833E+02  0.29999984750E+02 0.  0.
         12    1    1    2    0    0 -0.20529010273E+02 -0.47687444775E+01 -0.34770460150E+02  0.40659145167E+02  0.00000000000E+00 0. -1.
         11    1    3    3    0    0 -0.30381142292E+01  0.78885588508E+01  0.56126629291E+01  0.10146993852E+02  0.51100000000E-03 0. -1.
        -11    1    3    3    0    0  0.29696217595E+01 -0.56142143938E+01  0.11499223260E+02  0.13136597447E+02  0.51100000000E-03 0.  1.
         12    1    3    3    0    0  0.20597502743E+02  0.24944000206E+01  0.17658573961E+02  0.27245263534E+02  0.00000000000E+00 0. -1.
</event>
<event>
 7    1  0.5642630E-013  0.5052886E+02  0.7816164E-02  0.1300439E+00
        -11   -1    0    0    0    0  0.00000000000E+00  0.00000000000E+00  0.45593999997E+02  0.45594000000E+02  0.51100000000E-03 0. -1.
         11   -1    0    0    0    0 -0.00000000000E+00 -0.00000000000E+00 -0.45593999997E+02  0.45594000000E+02  0.51100000000E-03 0.  1.
    9900012    2    1    2    0    0 -0.11143325153E+02 -0.31012237430E+02 -0.23816656419E+02  0.50528859713E+02  0.29999999585E+02 0.  0.
         12    1    1    2    0    0  0.11143325153E+02  0.31012237430E+02  0.23816656419E+02  0.40659140287E+02  0.00000000000E+00 0. -1.
         11    1    3    3    0    0 -0.11031744565E+02 -0.12145963587E+02 -0.10841129945E+02  0.19666060061E+02  0.51100000000E-03 0.  1.
        -11    1    3    3    0    0  0.28685660957E+01 -0.19710585369E+01  0.49495368264E+01  0.60507568335E+01  0.51100000000E-03 0. -1.
         12    1    3    3    0    0 -0.29801466834E+01 -0.16895215306E+02 -0.17925063300E+02  0.24812042819E+02  0.00000000000E+00 0. -1.
</event>
<event>
 7    1  0.5642630E-013  0.5052887E+02  0.7816164E-02  0.1300439E+00
        -11   -1    0    0    0    0  0.00000000000E+00  0.00000000000E+00  0.45593999997E+02  0.45594000000E+02  0.51100000000E-03 0. -1.
         11   -1    0    0    0    0 -0.00000000000E+00 -0.00000000000E+00 -0.45593999997E+02  0.45594000000E+02  0.51100000000E-03 0.  1.
    9900012    2    1    2    0    0 -0.10165368695E+02 -0.18635421869E+02 -0.34677823213E+02  0.50528867056E+02  0.30000021904E+02 0.  0.
         12    1    1    2    0    0  0.10165368695E+02  0.18635421869E+02  0.34677823213E+02  0.40659132944E+02  0.00000000000E+00 0. -1.
         11    1    3    3    0    0  0.33993625380E+01  0.12777576959E+01 -0.38672207137E+01  0.53050661356E+01  0.51100000000E-03 0. -1.
        -11    1    3    3    0    0  0.60861275779E+01 -0.56648709493E+01 -0.46074747009E+01  0.95058158591E+01  0.51100000000E-03 0.  1.
        -12    1    3    3    0    0 -0.19650858811E+02 -0.14248308616E+02 -0.26203127799E+02  0.35717985061E+02  0.00000000000E+00 0.  1.
</event>
<event>
 7    1  0.5642630E-013  0.5052886E+02  0.7816164E-02  0.1300439E+00
        -11   -1    0    0    0    0  0.00000000000E+00  0.00000000000E+00  0.45593999997E+02  0.45594000000E+02  0.51100000000E-03 0. -1.
         11   -1    0    0    0    0 -0.00000000000E+00 -0.00000000000E+00 -0.45593999997E+02  0.45594000000E+02  0.51100000000E-03 0.  1.
    9900012    2    1    2    0    0  0.11815959161E+02  0.32771242712E+02 -0.20966500971E+02  0.50528863232E+02  0.30000010279E+02 0.  0.
         12    1    1    2    0    0 -0.11815959161E+02 -0.32771242712E+02  0.20966500971E+02  0.40659136768E+02  0.00000000000E+00 0. -1.
         11    1    3    3    0    0 -0.33710443554E+01  0.25459855044E+02 -0.15477232131E+02  0.29985210914E+02  0.51100000000E-03 0. -1.
        -11    1    3    3    0    0  0.39022423097E+00  0.19909214501E+01 -0.43239840983E+01  0.47762832741E+01  0.51100000000E-03 0.  1.
        -12    1    3    3    0    0  0.14796779286E+02  0.53204662181E+01 -0.11652847422E+01  0.15767369043E+02  0.00000000000E+00 0.  1.
</event>
<event>
 7    1  0.5642630E-013  0.5052886E+02  0.7816164E-02  0.1300439E+00
        -11   -1    0    0    0    0  0.00000000000E+00  0.00000000000E+00  0.45593999997E+02  0.45594000000E+02  0.51100000000E-03 0. -1.
         11   -1    0    0    0    0 -0.00000000000E+00 -0.00000000000E+00 -0.45593999997E+02  0.45594000000E+02  0.51100000000E-03 0.  1.
    9900012    2    1    2    0    0 -0.39560488021E+02 -0.93872392999E+01  0.11644933893E+00  0.50528855462E+02  0.29999986662E+02 0.  0.
         12    1    1    2    0    0  0.39560488021E+02  0.93872392999E+01 -0.11644933893E+00  0.40659144538E+02  0.00000000000E+00 0. -1.
         11    1    3    3    0    0 -0.18683722690E+02  0.42615590842E+01 -0.37000145284E+01  0.19517491826E+02  0.51100000000E-03 0. -1.
        -11    1    3    3    0    0 -0.22075199229E+02 -0.10768070575E+02 -0.17567604322E+01  0.24624215163E+02  0.51100000000E-03 0.  1.
        -12    1    3    3    0    0  0.11984338990E+01 -0.28807278087E+01  0.55732242995E+01  0.63871484726E+01  0.00000000000E+00 0.  1.
</event>
<event>
 7    1  0.5642630E-013  0.5052886E+02  0.7816164E-02  0.1300439E+00
        -11   -1    0    0    0    0  0.00000000000E+00  0.00000000000E+00  0.45593999997E+02  0.45594000000E+02  0.51100000000E-03 0.  1.
         11   -1    0    0    0    0 -0.00000000000E+00 -0.00000000000E+00 -0.45593999997E+02  0.45594000000E+02  0.51100000000E-03 0. -1.
    9900012    2    1    2    0    0  0.22996342741E+02 -0.31837178502E+02  0.10522718157E+02  0.50528864350E+02  0.30000013677E+02 0.  0.
         12    1    1    2    0    0 -0.22996342741E+02  0.31837178502E+02 -0.10522718157E+02  0.40659135650E+02  0.00000000000E+00 0. -1.
         11    1    3    3    0    0  0.12606101491E+02 -0.87420755156E+01  0.55307464461E+01  0.16307263279E+02  0.51100000000E-03 0. -1.
        -11    1    3    3    0    0  0.16593121803E+02 -0.15687274609E+02  0.78492916919E+01  0.24146089873E+02  0.51100000000E-03 0.  1.
         12    1    3    3    0    0 -0.62028805533E+01 -0.74078283770E+01 -0.28573199814E+01  0.10075511198E+02  0.00000000000E+00 0. -1.
</event>
<event>
 7    1  0.5642630E-013  0.5052883E+02  0.7816164E-02  0.1300439E+00
        -11   -1    0    0    0    0  0.00000000000E+00  0.00000000000E+00  0.45593999997E+02  0.45594000000E+02  0.51100000000E-03 0.  1.
         11   -1    0    0    0    0 -0.00000000000E+00 -0.00000000000E+00 -0.45593999997E+02  0.45594000000E+02  0.51100000000E-03 0. -1.
    9900012    2    1    2    0    0 -0.27606620510E+01  0.11680801748E+02  0.38847210919E+02  0.50528829071E+02  0.29999906445E+02 0.  0.
         12    1    1    2    0    0  0.27606620510E+01 -0.11680801748E+02 -0.38847210919E+02  0.40659170929E+02  0.00000000000E+00 0. -1.
         11    1    3    3    0    0 -0.15965397271E+01 -0.54498212132E+01  0.70857299165E+01  0.90805869340E+01  0.51100000000E-03 0. -1.
        -11    1    3    3    0    0 -0.20374791657E+01 -0.21457329429E+01  0.16726487072E+02  0.16986196197E+02  0.51100000000E-03 0.  1.
        -12    1    3    3    0    0  0.87335684171E+00  0.19276355904E+02  0.15034993931E+02  0.24462045941E+02  0.00000000000E+00 0.  1.
</event>
<event>
 7    1  0.5642630E-013  0.5052886E+02  0.7816164E-02  0.1300439E+00
        -11   -1    0    0    0    0  0.00000000000E+00  0.00000000000E+00  0.45593999997E+02  0.45594000000E+02  0.51100000000E-03 0. -1.
         11   -1    0    0    0    0 -0.00000000000E+00 -0.00000000000E+00 -0.45593999997E+02  0.45594000000E+02  0.51100000000E-03 0.  1.
    9900012    2    1    2    0    0 -0.62932064566E+01 -0.13332577881E+02 -0.37892002729E+02  0.50528856487E+02  0.29999989777E+02 0.  0.
         12    1    1    2    0    0  0.62932064566E+01  0.13332577881E+02  0.37892002729E+02  0.40659143513E+02  0.00000000000E+00 0. -1.
         11    1    3    3    0    0 -0.49099409285E+01 -0.41312546846E+01 -0.49944708642E+00  0.64361660049E+01  0.51100000000E-03 0. -1.
        -11    1    3    3    0    0 -0.10616184403E+02 -0.64115362865E+01 -0.13527437474E+02  0.18352186074E+02  0.51100000000E-03 0.  1.
         12    1    3    3    0    0  0.92329188751E+01 -0.27897869096E+01 -0.23865118169E+02  0.25740504408E+02  0.00000000000E+00 0. -1.
</event>
<event>
 7    1  0.5642630E-013  0.5052887E+02  0.7816164E-02  0.1300439E+00
        -11   -1    0    0    0    0  0.00000000000E+00  0.00000000000E+00  0.45593999997E+02  0.45594000000E+02  0.51100000000E-03 0.  1.
         11   -1    0    0    0    0 -0.00000000000E+00 -0.00000000000E+00 -0.45593999997E+02  0.45594000000E+02  0.51100000000E-03 0. -1.
    9900012    2    1    2    0    0 -0.62388912328E+01  0.48741758071E+01  0.39880867560E+02  0.50528868788E+02  0.30000027167E+02 0.  0.
         12    1    1    2    0    0  0.62388912328E+01 -0.48741758071E+01 -0.39880867560E+02  0.40659131212E+02  0.00000000000E+00 0. -1.
         11    1    3    3    0    0 -0.49476467004E+01  0.10730441538E+02  0.21333205975E+02  0.24387030588E+02  0.51100000000E-03 0. -1.
        -11    1    3    3    0    0 -0.14344421956E+01  0.34166230664E+01  0.16140691684E+02  0.16560581689E+02  0.51100000000E-03 0.  1.
         12    1    3    3    0    0  0.14319766315E+00 -0.92728887970E+01  0.24069699008E+01  0.95812565103E+01  0.00000000000E+00 0. -1.
</event>
<event>
 7    1  0.5642630E-013  0.5052886E+02  0.7816164E-02  0.1300439E+00
        -11   -1    0    0    0    0  0.00000000000E+00  0.00000000000E+00  0.45593999997E+02  0.45594000000E+02  0.51100000000E-03 0.  1.
         11   -1    0    0    0    0 -0.00000000000E+00 -0.00000000000E+00 -0.45593999997E+02  0.45594000000E+02  0.51100000000E-03 0. -1.
    9900012    2    1    2    0    0  0.23338518544E+02  0.31015380111E+02  0.12104778617E+02  0.50528856912E+02  0.29999991071E+02 0.  0.
         12    1    1    2    0    0 -0.23338518544E+02 -0.31015380111E+02 -0.12104778617E+02  0.40659143088E+02  0.00000000000E+00 0. -1.
         11    1    3    3    0    0  0.23328757883E+01  0.11773669737E+02 -0.69111318384E+01  0.13850102962E+02  0.51100000000E-03 0. -1.
        -11    1    3    3    0    0  0.50594523604E+01  0.10731129211E+02  0.23533472247E+01  0.12095182336E+02  0.51100000000E-03 0.  1.
         12    1    3    3    0    0  0.15946190395E+02  0.85105811627E+01  0.16662563231E+02  0.24583571614E+02  0.00000000000E+00 0. -1.
</event>
<event>
 7    1  0.5642630E-013  0.5052888E+02  0.7816164E-02  0.1300439E+00
        -11   -1    0    0    0    0  0.00000000000E+00  0.00000000000E+00  0.45593999997E+02  0.45594000000E+02  0.51100000000E-03 0.  1.
         11   -1    0    0    0    0 -0.00000000000E+00 -0.00000000000E+00 -0.45593999997E+02  0.45594000000E+02  0.51100000000E-03 0. -1.
    9900012    2    1    2    0    0  0.23325081128E+02  0.22297240548E+02  0.24737370805E+02  0.50528882203E+02  0.30000067945E+02 0.  0.
         12    1    1    2    0    0 -0.23325081128E+02 -0.22297240548E+02 -0.24737370805E+02  0.40659117797E+02  0.00000000000E+00 0. -1.
         11    1    3    3    0    0  0.82409385465E+01  0.12882962330E+02  0.37382740828E+01  0.15743521840E+02  0.51100000000E-03 0. -1.
        -11    1    3    3    0    0  0.88751327352E+01  0.16117365485E+02  0.12037907148E+02  0.21987465975E+02  0.51100000000E-03 0.  1.
        -12    1    3    3    0    0  0.62090098465E+01 -0.67030872680E+01  0.89611895739E+01  0.12797894388E+02  0.00000000000E+00 0.  1.
</event>
<event>
 7    1  0.5642630E-013  0.5052885E+02  0.7816164E-02  0.1300439E+00
        -11   -1    0    0    0    0  0.00000000000E+00  0.00000000000E+00  0.45593999997E+02  0.45594000000E+02  0.51100000000E-03 0.  1.
         11   -1    0    0    0    0 -0.00000000000E+00 -0.00000000000E+00 -0.45593999997E+02  0.45594000000E+02  0.51100000000E-03 0. -1.
    9900012    2    1    2    0    0 -0.33576483994E+02  0.12427434968E+02  0.19270322595E+02  0.50528846662E+02  0.29999959914E+02 0.  0.
         12    1    1    2    0    0  0.33576483994E+02 -0.12427434968E+02 -0.19270322595E+02  0.40659153338E+02  0.00000000000E+00 0. -1.
         11    1    3    3    0    0 -0.13529362103E+02  0.32385625651E+01  0.11076051804E+02  0.17782318472E+02  0.51100000000E-03 0. -1.
        -11    1    3    3    0    0 -0.89658715597E+01  0.15894259773E+01  0.15104624023E+02  0.17636972385E+02  0.51100000000E-03 0.  1.
         12    1    3    3    0    0 -0.11081250331E+02  0.75994464252E+01 -0.69103532320E+01  0.15109555806E+02  0.00000000000E+00 0. -1.
</event>
<event>
 7    1  0.5642630E-013  0.5052884E+02  0.7816164E-02  0.1300439E+00
        -11   -1    0    0    0    0  0.00000000000E+00  0.00000000000E+00  0.45593999997E+02  0.45594000000E+02  0.51100000000E-03 0.  1.
         11   -1    0    0    0    0 -0.00000000000E+00 -0.00000000000E+00 -0.45593999997E+02  0.45594000000E+02  0.51100000000E-03 0. -1.
    9900012    2    1    2    0    0  0.31354289519E+02  0.25041843549E+02  0.65560755935E+01  0.50528837112E+02  0.29999930884E+02 0.  0.
         12    1    1    2    0    0 -0.31354289519E+02 -0.25041843549E+02 -0.65560755935E+01  0.40659162888E+02  0.00000000000E+00 0. -1.
         11    1    3    3    0    0  0.21191792101E+00 -0.46376906163E+01  0.34339432668E+01  0.57745173026E+01  0.51100000000E-03 0. -1.
        -11    1    3    3    0    0  0.10881435540E+01  0.26940032536E+01  0.32542832391E+01  0.43625760263E+01  0.51100000000E-03 0.  1.
        -12    1    3    3    0    0  0.30054228044E+02  0.26985530912E+02 -0.13215091240E+00  0.40391743783E+02  0.00000000000E+00 0.  1.
</event>
<event>
 7    1  0.5642630E-013  0.5052887E+02  0.7816164E-02  0.1300439E+00
        -11   -1    0    0    0    0  0.00000000000E+00  0.00000000000E+00  0.45593999997E+02  0.45594000000E+02  0.51100000000E-03 0.  1.
         11   -1    0    0    0    0 -0.00000000000E+00 -0.00000000000E+00 -0.45593999997E+02  0.45594000000E+02  0.51100000000E-03 0. -1.
    9900012    2    1    2    0    0 -0.14514166013E+02  0.30446084051E+02  0.22705510529E+02  0.50528865018E+02  0.30000015708E+02 0.  0.
         12    1    1    2    0    0  0.14514166013E+02 -0.30446084051E+02 -0.22705510529E+02  0.40659134982E+02  0.00000000000E+00 0. -1.
         11    1    3    3    0    0 -0.79464419640E+01 -0.76507029272E-01  0.19113512638E+01  0.81734360662E+01  0.51100000000E-03 0. -1.
        -11    1    3    3    0    0 -0.15556732862E+01 -0.15657674991E+01  0.65128813730E+01  0.68767267849E+01  0.51100000000E-03 0.  1.
        -12    1    3    3    0    0 -0.50120507628E+01  0.32088358580E+02  0.14281277892E+02  0.35478702167E+02  0.00000000000E+00 0.  1.
</event>
<event>
 7    1  0.5642630E-013  0.5052886E+02  0.7816164E-02  0.1300439E+00
        -11   -1    0    0    0    0  0.00000000000E+00  0.00000000000E+00  0.45593999997E+02  0.45594000000E+02  0.51100000000E-03 0.  1.
         11   -1    0    0    0    0 -0.00000000000E+00 -0.00000000000E+00 -0.45593999997E+02  0.45594000000E+02  0.51100000000E-03 0. -1.
    9900012    2    1    2    0    0 -0.19273784024E+01 -0.18965698714E+02  0.35913133921E+02  0.50528859536E+02  0.29999999046E+02 0.  0.
         12    1    1    2    0    0  0.19273784024E+01  0.18965698714E+02 -0.35913133921E+02  0.40659140464E+02  0.00000000000E+00 0. -1.
         11    1    3    3    0    0  0.81517611353E+01 -0.20280691960E+01  0.67599061427E+00  0.84274099130E+01  0.51100000000E-03 0. -1.
        -11    1    3    3    0    0 -0.78196356942E+00  0.17187779624E+01  0.13674975505E+01  0.23314618846E+01  0.51100000000E-03 0.  1.
         12    1    3    3    0    0 -0.92971759683E+01 -0.18656407480E+02  0.33869645756E+02  0.39769987739E+02  0.00000000000E+00 0. -1.
</event>
<event>
 7    1  0.5642630E-013  0.5052887E+02  0.7816164E-02  0.1300439E+00
        -11   -1    0    0    0    0  0.00000000000E+00  0.00000000000E+00  0.45593999997E+02  0.45594000000E+02  0.51100000000E-03 0.  1.
         11   -1    0    0    0    0 -0.00000000000E+00 -0.00000000000E+00 -0.45593999997E+02  0.45594000000E+02  0.51100000000E-03 0. -1.
    9900012    2    1    2    0    0  0.70977336120E+01 -0.34873380748E+02  0.19663015601E+02  0.50528871999E+02  0.30000036929E+02 0.  0.
         12    1    1    2    0    0 -0.70977336120E+01  0.34873380748E+02 -0.19663015601E+02  0.40659128001E+02  0.00000000000E+00 0. -1.
         11    1    3    3    0    0  0.25610885135E+01 -0.16795755371E+02  0.25973094617E+01  0.17187279877E+02  0.51100000000E-03 0. -1.
        -11    1    3    3    0    0  0.11872706499E+02 -0.15939499689E+02  0.78484709782E+01  0.21368839625E+02  0.51100000000E-03 0.  1.
         12    1    3    3    0    0 -0.73360614009E+01 -0.21381256875E+01  0.92172351615E+01  0.11972752497E+02  0.00000000000E+00 0. -1.
</event>
<event>
 7    1  0.5642630E-013  0.5052886E+02  0.7816164E-02  0.1300439E+00
        -11   -1    0    0    0    0  0.00000000000E+00  0.00000000000E+00  0.45593999997E+02  0.45594000000E+02  0.51100000000E-03 0.  1.
         11   -1    0    0    0    0 -0.00000000000E+00 -0.00000000000E+00 -0.45593999997E+02  0.45594000000E+02  0.51100000000E-03 0. -1.
    9900012    2    1    2    0    0 -0.30695915988E+02  0.60683700285E+01  0.25963458433E+02  0.50528861458E+02  0.30000004888E+02 0.  0.
         12    1    1    2    0    0  0.30695915988E+02 -0.60683700285E+01 -0.25963458433E+02  0.40659138542E+02  0.00000000000E+00 0. -1.
         11    1    3    3    0    0 -0.12201613215E+02 -0.81536489818E+01  0.10442484815E+02  0.18011297736E+02  0.51100000000E-03 0. -1.
        -11    1    3    3    0    0 -0.92213779723E+01  0.58084934418E+01  0.16699716855E+02  0.19941237451E+02  0.51100000000E-03 0.  1.
         12    1    3    3    0    0 -0.92729248011E+01  0.84135255685E+01 -0.11787432374E+01  0.12576326271E+02  0.00000000000E+00 0. -1.
</event>
<event>
 7    1  0.5642630E-013  0.5052886E+02  0.7816164E-02  0.1300439E+00
        -11   -1    0    0    0    0  0.00000000000E+00  0.00000000000E+00  0.45593999997E+02  0.45594000000E+02  0.51100000000E-03 0.  1.
         11   -1    0    0    0    0 -0.00000000000E+00 -0.00000000000E+00 -0.45593999997E+02  0.45594000000E+02  0.51100000000E-03 0. -1.
    9900012    2    1    2    0    0  0.19494083788E+02 -0.21687381903E+02  0.28333786600E+02  0.50528864500E+02  0.30000014134E+02 0.  0.
         12    1    1    2    0    0 -0.19494083788E+02  0.21687381903E+02 -0.28333786600E+02  0.40659135500E+02  0.00000000000E+00 0. -1.
         11    1    3    3    0    0 -0.26985104119E+01 -0.22857351102E+01  0.84339922089E+01  0.91454233515E+01  0.51100000000E-03 0. -1.
        -11    1    3    3    0    0  0.99801094210E+00 -0.85821988168E+01 -0.21913737498E+01  0.89136009302E+01  0.51100000000E-03 0.  1.
        -12    1    3    3    0    0  0.21194583257E+02 -0.10819447976E+02  0.22091168141E+02  0.32469840218E+02  0.00000000000E+00 0.  1.
</event>
<event>
 7    1  0.5642630E-013  0.5052886E+02  0.7816164E-02  0.1300439E+00
        -11   -1    0    0    0    0  0.00000000000E+00  0.00000000000E+00  0.45593999997E+02  0.45594000000E+02  0.51100000000E-03 0. -1.
         11   -1    0    0    0    0 -0.00000000000E+00 -0.00000000000E+00 -0.45593999997E+02  0.45594000000E+02  0.51100000000E-03 0.  1.
    9900012    2    1    2    0    0 -0.16776787213E+02 -0.11482517879E+02 -0.35211600666E+02  0.50528860468E+02  0.30000001879E+02 0.  0.
         12    1    1    2    0    0  0.16776787213E+02  0.11482517879E+02  0.35211600666E+02  0.40659139532E+02  0.00000000000E+00 0. -1.
         11    1    3    3    0    0 -0.61510473762E+01  0.48682502726E+01 -0.65362128221E+01  0.10210647524E+02  0.51100000000E-03 0.  1.
        -11    1    3    3    0    0 -0.68523314846E+01  0.34162653879E+01 -0.45698977800E+01  0.89167977411E+01  0.51100000000E-03 0. -1.
         12    1    3    3    0    0 -0.37734083521E+01 -0.19767033539E+02 -0.24105490064E+02  0.31401415203E+02  0.00000000000E+00 0. -1.
</event>
<event>
 7    1  0.5642630E-013  0.5052898E+02  0.7816164E-02  0.1300438E+00
        -11   -1    0    0    0    0  0.00000000000E+00  0.00000000000E+00  0.45593999997E+02  0.45594000000E+02  0.51100000000E-03 0. -1.
         11   -1    0    0    0    0 -0.00000000000E+00 -0.00000000000E+00 -0.45593999997E+02  0.45594000000E+02  0.51100000000E-03 0.  1.
    9900012    2    1    2    0    0 -0.15463753824E+02  0.36677735206E+02 -0.82929007404E+01  0.50528977080E+02  0.30000356329E+02 0.  0.
         12    1    1    2    0    0  0.15463753824E+02 -0.36677735206E+02  0.82929007404E+01  0.40659022920E+02  0.00000000000E+00 0. -1.
         11    1    3    3    0    0 -0.88636052506E+00  0.10978347590E+02  0.60107877800E+01  0.12547482648E+02  0.51100000000E-03 0. -1.
        -11    1    3    3    0    0 -0.49619279763E+01  0.99913343022E+01  0.41567890186E+01  0.11904889146E+02  0.51100000000E-03 0.  1.
        -12    1    3    3    0    0 -0.96154653222E+01  0.15708053313E+02 -0.18460477539E+02  0.26076605286E+02  0.00000000000E+00 0.  1.
</event>
<event>
 7    1  0.5642630E-013  0.5052886E+02  0.7816164E-02  0.1300439E+00
        -11   -1    0    0    0    0  0.00000000000E+00  0.00000000000E+00  0.45593999997E+02  0.45594000000E+02  0.51100000000E-03 0. -1.
         11   -1    0    0    0    0 -0.00000000000E+00 -0.00000000000E+00 -0.45593999997E+02  0.45594000000E+02  0.51100000000E-03 0.  1.
    9900012    2    1    2    0    0  0.66195312725E+01 -0.53816433992E+01 -0.39754063341E+02  0.50528857952E+02  0.29999994232E+02 0.  0.
         12    1    1    2    0    0 -0.66195312725E+01  0.53816433992E+01  0.39754063341E+02  0.40659142048E+02  0.00000000000E+00 0. -1.
         11    1    3    3    0    0 -0.46291207284E+01  0.39713201733E+01 -0.20709198356E+02  0.21588678502E+02  0.51100000000E-03 0. -1.
        -11    1    3    3    0    0  0.12213222660E+01 -0.16901796565E+01 -0.15763074043E+02  0.15900403734E+02  0.51100000000E-03 0.  1.
         12    1    3    3    0    0  0.10027329735E+02 -0.76627839161E+01 -0.32817909413E+01  0.13039775717E+02  0.00000000000E+00 0. -1.
</event>
<event>
 7    1  0.5642630E-013  0.5052886E+02  0.7816164E-02  0.1300439E+00
        -11   -1    0    0    0    0  0.00000000000E+00  0.00000000000E+00  0.45593999997E+02  0.45594000000E+02  0.51100000000E-03 0.  1.
         11   -1    0    0    0    0 -0.00000000000E+00 -0.00000000000E+00 -0.45593999997E+02  0.45594000000E+02  0.51100000000E-03 0. -1.
    9900012    2    1    2    0    0 -0.33750093639E+02  0.21126465174E+01  0.22575068520E+02  0.50528858167E+02  0.29999994884E+02 0.  0.
         12    1    1    2    0    0  0.33750093639E+02 -0.21126465174E+01 -0.22575068520E+02  0.40659141833E+02  0.00000000000E+00 0. -1.
         11    1    3    3    0    0 -0.13749796631E+02 -0.51001041504E+01 -0.16912788960E+01  0.14762397987E+02  0.51100000000E-03 0. -1.
        -11    1    3    3    0    0 -0.11015812887E+02  0.71002490690E+01  0.41704941366E+01  0.13753352028E+02  0.51100000000E-03 0.  1.
        -12    1    3    3    0    0 -0.89844841207E+01  0.11250159880E+00  0.20095853279E+02  0.22013108153E+02  0.00000000000E+00 0.  1.
</event>
<event>
 7    1  0.5642630E-013  0.5052886E+02  0.7816164E-02  0.1300439E+00
        -11   -1    0    0    0    0  0.00000000000E+00  0.00000000000E+00  0.45593999997E+02  0.45594000000E+02  0.51100000000E-03 0. -1.
         11   -1    0    0    0    0 -0.00000000000E+00 -0.00000000000E+00 -0.45593999997E+02  0.45594000000E+02  0.51100000000E-03 0.  1.
    9900012    2    1    2    0    0 -0.93439387877E-01 -0.38277051431E+02 -0.13712182269E+02  0.50528864007E+02  0.30000012635E+02 0.  0.
         12    1    1    2    0    0  0.93439387877E-01  0.38277051431E+02  0.13712182269E+02  0.40659135993E+02  0.00000000000E+00 0. -1.
         11    1    3    3    0    0  0.43775777066E+01 -0.17454261023E+02 -0.40798743860E+01  0.18451552501E+02  0.51100000000E-03 0. -1.
        -11    1    3    3    0    0  0.24727997418E+01 -0.16317485096E+02 -0.14925798650E+02  0.22252067859E+02  0.51100000000E-03 0.  1.
         12    1    3    3    0    0 -0.69438168363E+01 -0.45053053112E+01  0.52934907670E+01  0.98252436460E+01  0.00000000000E+00 0. -1.
</event>
<event>
 7    1  0.5642630E-013  0.5052886E+02  0.7816164E-02  0.1300439E+00
        -11   -1    0    0    0    0  0.00000000000E+00  0.00000000000E+00  0.45593999997E+02  0.45594000000E+02  0.51100000000E-03 0.  1.
         11   -1    0    0    0    0 -0.00000000000E+00 -0.00000000000E+00 -0.45593999997E+02  0.45594000000E+02  0.51100000000E-03 0. -1.
    9900012    2    1    2    0    0 -0.25437241323E+02 -0.31679045396E+02  0.15970631609E+01  0.50528858665E+02  0.29999996399E+02 0.  0.
         12    1    1    2    0    0  0.25437241323E+02  0.31679045396E+02 -0.15970631609E+01  0.40659141335E+02  0.00000000000E+00 0. -1.
         11    1    3    3    0    0 -0.14107265656E+02 -0.68175462481E+01  0.13338940231E+01  0.15724921451E+02  0.51100000000E-03 0. -1.
        -11    1    3    3    0    0 -0.16728243237E+02 -0.20612926858E+02  0.42142616472E+01  0.26879116000E+02  0.51100000000E-03 0.  1.
         12    1    3    3    0    0  0.53982675697E+01 -0.42485722905E+01 -0.39510925094E+01  0.79248212144E+01  0.00000000000E+00 0. -1.
</event>
<event>
 7    1  0.5642630E-013  0.5052886E+02  0.7816164E-02  0.1300439E+00
        -11   -1    0    0    0    0  0.00000000000E+00  0.00000000000E+00  0.45593999997E+02  0.45594000000E+02  0.51100000000E-03 0.  1.
         11   -1    0    0    0    0 -0.00000000000E+00 -0.00000000000E+00 -0.45593999997E+02  0.45594000000E+02  0.51100000000E-03 0. -1.
    9900012    2    1    2    0    0 -0.20139700503E+02  0.31389072332E+02  0.16195201206E+02  0.50528856621E+02  0.29999990185E+02 0.  0.
         12    1    1    2    0    0  0.20139700503E+02 -0.31389072332E+02 -0.16195201206E+02  0.40659143379E+02  0.00000000000E+00 0. -1.
         11    1    3    3    0    0 -0.12950175986E+02  0.28729056317E+02  0.13754584543E+02  0.34383925476E+02  0.51100000000E-03 0. -1.
        -11    1    3    3    0    0 -0.79280684194E+01  0.73245952571E+01  0.34184240440E+01  0.11322084073E+02  0.51100000000E-03 0.  1.
         12    1    3    3    0    0  0.73854390194E+00 -0.46645792425E+01 -0.97780738097E+00  0.48228470719E+01  0.00000000000E+00 0. -1.
</event>
<event>
 7    1  0.5642630E-013  0.5052886E+02  0.7816164E-02  0.1300439E+00
        -11   -1    0    0    0    0  0.00000000000E+00  0.00000000000E+00  0.45593999997E+02  0.45594000000E+02  0.51100000000E-03 0. -1.
         11   -1    0    0    0    0 -0.00000000000E+00 -0.00000000000E+00 -0.45593999997E+02  0.45594000000E+02  0.51100000000E-03 0.  1.
    9900012    2    1    2    0    0 -0.17985069555E+02 -0.32019605822E+02 -0.17448427848E+02  0.50528861811E+02  0.30000005960E+02 0.  0.
         12    1    1    2    0    0  0.17985069555E+02  0.32019605822E+02  0.17448427848E+02  0.40659138189E+02  0.00000000000E+00 0. -1.
         11    1    3    3    0    0 -0.12055881356E+01 -0.59689043053E+01  0.11487478720E+01  0.61968446240E+01  0.51100000000E-03 0. -1.
        -11    1    3    3    0    0  0.29813260722E+01  0.16758006991E+01  0.25370252443E+01  0.42582990129E+01  0.51100000000E-03 0.  1.
        -12    1    3    3    0    0 -0.19760807491E+02 -0.27726502216E+02 -0.21134200965E+02  0.40073718174E+02  0.00000000000E+00 0.  1.
</event>
<event>
 7    1  0.5642630E-013  0.5052886E+02  0.7816164E-02  0.1300439E+00
        -11   -1    0    0    0    0  0.00000000000E+00  0.00000000000E+00  0.45593999997E+02  0.45594000000E+02  0.51100000000E-03 0.  1.
         11   -1    0    0    0    0 -0.00000000000E+00 -0.00000000000E+00 -0.45593999997E+02  0.45594000000E+02  0.51100000000E-03 0. -1.
    9900012    2    1    2    0    0 -0.90729785272E+01 -0.36938433670E+02  0.14366590498E+02  0.50528859036E+02  0.29999997526E+02 0.  0.
         12    1    1    2    0    0  0.90729785272E+01  0.36938433670E+02 -0.14366590498E+02  0.40659140964E+02  0.00000000000E+00 0. -1.
         11    1    3    3    0    0 -0.68447934445E+01 -0.13084674342E+02  0.16085023691E+01  0.14854197388E+02  0.51100000000E-03 0.  1.
        -11    1    3    3    0    0 -0.22319924198E+01 -0.19811633601E+02 -0.23132207528E+01  0.20070715150E+02  0.51100000000E-03 0. -1.
        -12    1    3    3    0    0  0.38073370867E-02 -0.40421257276E+01  0.15071308882E+02  0.15603946498E+02  0.00000000000E+00 0.  1.
</event>
<event>
 7    1  0.5642630E-013  0.5052886E+02  0.7816164E-02  0.1300439E+00
        -11   -1    0    0    0    0  0.00000000000E+00  0.00000000000E+00  0.45593999997E+02  0.45594000000E+02  0.51100000000E-03 0. -1.
         11   -1    0    0    0    0 -0.00000000000E+00 -0.00000000000E+00 -0.45593999997E+02  0.45594000000E+02  0.51100000000E-03 0.  1.
    9900012    2    1    2    0    0  0.12564538299E+02  0.19030118042E+02 -0.33662327362E+02  0.50528864510E+02  0.30000014166E+02 0.  0.
         12    1    1    2    0    0 -0.12564538299E+02 -0.19030118042E+02  0.33662327362E+02  0.40659135490E+02  0.00000000000E+00 0. -1.
         11    1    3    3    0    0 -0.17760018375E+00  0.11559885818E+02 -0.34405218565E+01  0.12062325350E+02  0.51100000000E-03 0. -1.
        -11    1    3    3    0    0 -0.39761167661E+01  0.35932957436E+00 -0.12360585998E+02  0.12989330573E+02  0.51100000000E-03 0.  1.
        -12    1    3    3    0    0  0.16718255249E+02  0.71109026493E+01 -0.17861219508E+02  0.25477208587E+02  0.00000000000E+00 0.  1.
</event>
<event>
 7    1  0.5642630E-013  0.5052887E+02  0.7816164E-02  0.1300439E+00
        -11   -1    0    0    0    0  0.00000000000E+00  0.00000000000E+00  0.45593999997E+02  0.45594000000E+02  0.51100000000E-03 0. -1.
         11   -1    0    0    0    0 -0.00000000000E+00 -0.00000000000E+00 -0.45593999997E+02  0.45594000000E+02  0.51100000000E-03 0.  1.
    9900012    2    1    2    0    0  0.75286933125E+01 -0.39551590080E+02  0.56705612254E+01  0.50528871069E+02  0.30000034100E+02 0.  0.
         12    1    1    2    0    0 -0.75286933125E+01  0.39551590080E+02 -0.56705612254E+01  0.40659128931E+02  0.00000000000E+00 0. -1.
         11    1    3    3    0    0  0.16496696266E+02 -0.15100727866E+02  0.27424686775E+01  0.22532068358E+02  0.51100000000E-03 0. -1.
        -11    1    3    3    0    0 -0.12333883182E-01 -0.55745303767E+01 -0.29304986094E+01  0.62978856298E+01  0.51100000000E-03 0.  1.
         12    1    3    3    0    0 -0.89556690704E+01 -0.18876331837E+02  0.58585911572E+01  0.21698917081E+02  0.00000000000E+00 0. -1.
</event>
<event>
 7    1  0.5642630E-013  0.5052886E+02  0.7816164E-02  0.1300439E+00
        -11   -1    0    0    0    0  0.00000000000E+00  0.00000000000E+00  0.45593999997E+02  0.45594000000E+02  0.51100000000E-03 0. -1.
         11   -1    0    0    0    0 -0.00000000000E+00 -0.00000000000E+00 -0.45593999997E+02  0.45594000000E+02  0.51100000000E-03 0.  1.
    9900012    2    1    2    0    0 -0.13698902314E+02  0.16906688489E+02 -0.34346319910E+02  0.50528859187E+02  0.29999997985E+02 0.  0.
         12    1    1    2    0    0  0.13698902314E+02 -0.16906688489E+02  0.34346319910E+02  0.40659140813E+02  0.00000000000E+00 0. -1.
         11    1    3    3    0    0 -0.57792899548E+01  0.41808202959E+01 -0.21916315522E+02  0.23047870554E+02  0.51100000000E-03 0. -1.
        -11    1    3    3    0    0 -0.24210542595E+01  0.32460058950E+01 -0.15564325933E+02  0.16082484261E+02  0.51100000000E-03 0.  1.
         12    1    3    3    0    0 -0.54985580997E+01  0.94798622983E+01  0.31343215453E+01  0.11398504372E+02  0.00000000000E+00 0. -1.
</event>
<event>
 7    1  0.5642630E-013  0.5052887E+02  0.7816164E-02  0.1300439E+00
        -11   -1    0    0    0    0  0.00000000000E+00  0.00000000000E+00  0.45593999997E+02  0.45594000000E+02  0.51100000000E-03 0. -1.
         11   -1    0    0    0    0 -0.00000000000E+00 -0.00000000000E+00 -0.45593999997E+02  0.45594000000E+02  0.51100000000E-03 0.  1.
    9900012    2    1    2    0    0 -0.35363540606E+02  0.17260517176E+02  0.10230327918E+02  0.50528867365E+02  0.30000022841E+02 0.  0.
         12    1    1    2    0    0  0.35363540606E+02 -0.17260517176E+02 -0.10230327918E+02  0.40659132635E+02  0.00000000000E+00 0. -1.
         11    1    3    3    0    0 -0.10577575808E+02 -0.23648906686E+01  0.93913764599E+01  0.14341400556E+02  0.51100000000E-03 0. -1.
        -11    1    3    3    0    0 -0.14299191297E+02  0.59278217560E+01  0.81002615599E+01  0.17470551798E+02  0.51100000000E-03 0.  1.
        -12    1    3    3    0    0 -0.10486773501E+02  0.13697586088E+02 -0.72613101017E+01  0.18716915010E+02  0.00000000000E+00 0.  1.
</event>
<event>
 7    1  0.5642630E-013  0.5052885E+02  0.7816164E-02  0.1300439E+00
        -11   -1    0    0    0    0  0.00000000000E+00  0.00000000000E+00  0.45593999997E+02  0.45594000000E+02  0.51100000000E-03 0.  1.
         11   -1    0    0    0    0 -0.00000000000E+00 -0.00000000000E+00 -0.45593999997E+02  0.45594000000E+02  0.51100000000E-03 0. -1.
    9900012    2    1    2    0    0  0.12685719147E+02 -0.19308096275E+02  0.33457977285E+02  0.50528852247E+02  0.29999976889E+02 0.  0.
         12    1    1    2    0    0 -0.12685719147E+02  0.19308096275E+02 -0.33457977285E+02  0.40659147753E+02  0.00000000000E+00 0. -1.
         11    1    3    3    0    0  0.23272174507E+01  0.82652803674E+00  0.19812360388E+01  0.31661311030E+01  0.51100000000E-03 0. -1.
        -11    1    3    3    0    0  0.13865509175E+02 -0.13143702521E+02  0.34121762627E+02  0.39106315931E+02  0.51100000000E-03 0.  1.
         12    1    3    3    0    0 -0.35070074790E+01 -0.69909217906E+01 -0.26450213808E+01  0.82564052132E+01  0.00000000000E+00 0. -1.
</event>
<event>
 7    1  0.5642630E-013  0.5052886E+02  0.7816164E-02  0.1300439E+00
        -11   -1    0    0    0    0  0.00000000000E+00  0.00000000000E+00  0.45593999997E+02  0.45594000000E+02  0.51100000000E-03 0.  1.
         11   -1    0    0    0    0 -0.00000000000E+00 -0.00000000000E+00 -0.45593999997E+02  0.45594000000E+02  0.51100000000E-03 0. -1.
    9900012    2    1    2    0    0  0.30429869100E+02 -0.18798850114E+02 -0.19333701494E+02  0.50528859422E+02  0.29999998699E+02 0.  0.
         12    1    1    2    0    0 -0.30429869100E+02  0.18798850114E+02  0.19333701494E+02  0.40659140578E+02  0.00000000000E+00 0. -1.
         11    1    3    3    0    0  0.43432601410E+01 -0.14912570091E+01 -0.24788186712E+01  0.52184574719E+01  0.51100000000E-03 0. -1.
        -11    1    3    3    0    0  0.30875801504E+02 -0.11550035705E+02 -0.18268741588E+02  0.37689061580E+02  0.51100000000E-03 0.  1.
         12    1    3    3    0    0 -0.47891925446E+01 -0.57575573997E+01  0.14138587643E+01  0.76213403706E+01  0.00000000000E+00 0. -1.
</event>
<event>
 7    1  0.5642630E-013  0.5052886E+02  0.7816164E-02  0.1300439E+00
        -11   -1    0    0    0    0  0.00000000000E+00  0.00000000000E+00  0.45593999997E+02  0.45594000000E+02  0.51100000000E-03 0.  1.
         11   -1    0    0    0    0 -0.00000000000E+00 -0.00000000000E+00 -0.45593999997E+02  0.45594000000E+02  0.51100000000E-03 0. -1.
    9900012    2    1    2    0    0  0.13391363577E+02 -0.14712915034E+02  0.35459368489E+02  0.50528864484E+02  0.30000014086E+02 0.  0.
         12    1    1    2    0    0 -0.13391363577E+02  0.14712915034E+02 -0.35459368489E+02  0.40659135516E+02  0.00000000000E+00 0. -1.
         11    1    3    3    0    0  0.32431720365E+01  0.33520611697E+01  0.15866591567E+01  0.49266587546E+01  0.51100000000E-03 0. -1.
        -11    1    3    3    0    0  0.12111237541E+02  0.24819929933E+00  0.13383817386E+02  0.18051876516E+02  0.51100000000E-03 0.  1.
         12    1    3    3    0    0 -0.19630460005E+01 -0.18313175503E+02  0.20488891946E+02  0.27550329213E+02  0.00000000000E+00 0. -1.
</event>
<event>
 7    1  0.5642630E-013  0.5052879E+02  0.7816164E-02  0.1300439E+00
        -11   -1    0    0    0    0  0.00000000000E+00  0.00000000000E+00  0.45593999997E+02  0.45594000000E+02  0.51100000000E-03 0. -1.
         11   -1    0    0    0    0 -0.00000000000E+00 -0.00000000000E+00 -0.45593999997E+02  0.45594000000E+02  0.51100000000E-03 0.  1.
    9900012    2    1    2    0    0 -0.23979604032E+02  0.73655066087E+01 -0.31998422013E+02  0.50528793067E+02  0.29999797006E+02 0.  0.
         12    1    1    2    0    0  0.23979604032E+02 -0.73655066087E+01  0.31998422013E+02  0.40659206933E+02  0.00000000000E+00 0. -1.
         11    1    3    3    0    0  0.26345436670E+01  0.14964305506E+01 -0.41727094038E+00  0.30584702099E+01  0.51100000000E-03 0. -1.
        -11    1    3    3    0    0 -0.37670958026E+01 -0.78908871928E+01 -0.85984523209E+01  0.12263380205E+02  0.51100000000E-03 0.  1.
        -12    1    3    3    0    0 -0.22847051896E+02  0.13759963251E+02 -0.22982698751E+02  0.35206942652E+02  0.00000000000E+00 0.  1.
</event>
<event>
 7    1  0.5642630E-013  0.5052885E+02  0.7816164E-02  0.1300439E+00
        -11   -1    0    0    0    0  0.00000000000E+00  0.00000000000E+00  0.45593999997E+02  0.45594000000E+02  0.51100000000E-03 0.  1.
         11   -1    0    0    0    0 -0.00000000000E+00 -0.00000000000E+00 -0.45593999997E+02  0.45594000000E+02  0.51100000000E-03 0. -1.
    9900012    2    1    2    0    0  0.32034960996E+02  0.15658963107E+02  0.19537767803E+02  0.50528853153E+02  0.29999979645E+02 0.  0.
         12    1    1    2    0    0 -0.32034960996E+02 -0.15658963107E+02 -0.19537767803E+02  0.40659146847E+02  0.00000000000E+00 0. -1.
         11    1    3    3    0    0  0.20441130324E+02 -0.23278945296E+01  0.59914694702E+00  0.20581979477E+02  0.51100000000E-03 0. -1.
        -11    1    3    3    0    0 -0.95552640834E+00  0.38300443778E+01  0.15170130150E+01  0.42289004956E+01  0.51100000000E-03 0.  1.
        -12    1    3    3    0    0  0.12549357080E+02  0.14156813259E+02  0.17421607841E+02  0.25717973181E+02  0.00000000000E+00 0.  1.
</event>
<event>
 7    1  0.5642630E-013  0.5052886E+02  0.7816164E-02  0.1300439E+00
        -11   -1    0    0    0    0  0.00000000000E+00  0.00000000000E+00  0.45593999997E+02  0.45594000000E+02  0.51100000000E-03 0.  1.
         11   -1    0    0    0    0 -0.00000000000E+00 -0.00000000000E+00 -0.45593999997E+02  0.45594000000E+02  0.51100000000E-03 0. -1.
    9900012    2    1    2    0    0 -0.98426408910E+01 -0.31789301693E+02  0.23360822147E+02  0.50528864578E+02  0.30000014372E+02 0.  0.
         12    1    1    2    0    0  0.98426408910E+01  0.31789301693E+02 -0.23360822147E+02  0.40659135422E+02  0.00000000000E+00 0. -1.
         11    1    3    3    0    0 -0.17763657640E+01  0.85250241425E+00 -0.89925979054E+00  0.21658495160E+01  0.51100000000E-03 0. -1.
        -11    1    3    3    0    0 -0.13047649273E+02 -0.61472378224E+01  0.11932590688E+02  0.18719412523E+02  0.51100000000E-03 0.  1.
        -12    1    3    3    0    0  0.49813741462E+01 -0.26494566285E+02  0.12327491250E+02  0.29643602540E+02  0.00000000000E+00 0.  1.
</event>
<event>
 7    1  0.5642630E-013  0.5052887E+02  0.7816164E-02  0.1300439E+00
        -11   -1    0    0    0    0  0.00000000000E+00  0.00000000000E+00  0.45593999997E+02  0.45594000000E+02  0.51100000000E-03 0. -1.
         11   -1    0    0    0    0 -0.00000000000E+00 -0.00000000000E+00 -0.45593999997E+02  0.45594000000E+02  0.51100000000E-03 0.  1.
    9900012    2    1    2    0    0 -0.33815722309E+02 -0.21816955971E+02  0.58036644852E+01  0.50528866160E+02  0.30000019181E+02 0.  0.
         12    1    1    2    0    0  0.33815722309E+02  0.21816955971E+02 -0.58036644852E+01  0.40659133840E+02  0.00000000000E+00 0. -1.
         11    1    3    3    0    0 -0.11117869217E+02 -0.21850903325E+02  0.11863010711E+01  0.24545392695E+02  0.51100000000E-03 0. -1.
        -11    1    3    3    0    0 -0.93134312329E+01 -0.48324758981E+01 -0.12775661422E+01  0.10570004737E+02  0.51100000000E-03 0.  1.
        -12    1    3    3    0    0 -0.13384421859E+02  0.48664232519E+01  0.58949295563E+01  0.15413468728E+02  0.00000000000E+00 0.  1.
</event>
<event>
 7    1  0.5642630E-013  0.5052886E+02  0.7816164E-02  0.1300439E+00
        -11   -1    0    0    0    0  0.00000000000E+00  0.00000000000E+00  0.45593999997E+02  0.45594000000E+02  0.51100000000E-03 0. -1.
         11   -1    0    0    0    0 -0.00000000000E+00 -0.00000000000E+00 -0.45593999997E+02  0.45594000000E+02  0.51100000000E-03 0.  1.
    9900012    2    1    2    0    0  0.24339081219E+02  0.30046461610E+02 -0.12569201541E+02  0.50528861332E+02  0.30000004504E+02 0.  0.
         12    1    1    2    0    0 -0.24339081219E+02 -0.30046461610E+02  0.12569201541E+02  0.40659138668E+02  0.00000000000E+00 0. -1.
         11    1    3    3    0    0  0.83684473956E+01 -0.37372666357E+01 -0.38445328674E+01  0.99387376940E+01  0.51100000000E-03 0. -1.
        -11    1    3    3    0    0  0.76565325645E+00  0.28498975746E+01 -0.51512938535E+01  0.59366631807E+01  0.51100000000E-03 0.  1.
         12    1    3    3    0    0  0.15204980567E+02  0.30933830671E+02 -0.35733748199E+01  0.34653460457E+02  0.00000000000E+00 0. -1.
</event>
<event>
 7    1  0.5642630E-013  0.5052886E+02  0.7816164E-02  0.1300439E+00
        -11   -1    0    0    0    0  0.00000000000E+00  0.00000000000E+00  0.45593999997E+02  0.45594000000E+02  0.51100000000E-03 0.  1.
         11   -1    0    0    0    0 -0.00000000000E+00 -0.00000000000E+00 -0.45593999997E+02  0.45594000000E+02  0.51100000000E-03 0. -1.
    9900012    2    1    2    0    0  0.79882198853E+01  0.31674875667E+02  0.24208602724E+02  0.50528857716E+02  0.29999993513E+02 0.  0.
         12    1    1    2    0    0 -0.79882198853E+01 -0.31674875667E+02 -0.24208602724E+02  0.40659142284E+02  0.00000000000E+00 0. -1.
         11    1    3    3    0    0  0.71715763143E+01  0.25032051145E+01  0.94144700743E+01  0.12096685071E+02  0.51100000000E-03 0. -1.
        -11    1    3    3    0    0  0.41618584872E+01  0.31252600706E+02  0.13293339195E+02  0.34216355507E+02  0.51100000000E-03 0.  1.
         12    1    3    3    0    0 -0.33452149162E+01 -0.20809301539E+01  0.15007934549E+01  0.42158171373E+01  0.00000000000E+00 0. -1.
</event>
<event>
 7    1  0.5642630E-013  0.5052886E+02  0.7816164E-02  0.1300439E+00
        -11   -1    0    0    0    0  0.00000000000E+00  0.00000000000E+00  0.45593999997E+02  0.45594000000E+02  0.51100000000E-03 0. -1.
         11   -1    0    0    0    0 -0.00000000000E+00 -0.00000000000E+00 -0.45593999997E+02  0.45594000000E+02  0.51100000000E-03 0.  1.
    9900012    2    1    2    0    0  0.30070897465E+02  0.27356668144E+02  0.72100754823E+00  0.50528855663E+02  0.29999987273E+02 0.  0.
         12    1    1    2    0    0 -0.30070897465E+02 -0.27356668144E+02 -0.72100754823E+00  0.40659144337E+02  0.00000000000E+00 0. -1.
         11    1    3    3    0    0  0.42004702117E+00  0.42611011597E+01 -0.44305997334E+01  0.61614638563E+01  0.51100000000E-03 0.  1.
        -11    1    3    3    0    0 -0.75836779366E+00  0.10719835130E+02  0.41528925068E+01  0.11521132903E+02  0.51100000000E-03 0. -1.
        -12    1    3    3    0    0  0.30409218238E+02  0.12375731854E+02  0.99871477480E+00  0.32846258904E+02  0.00000000000E+00 0.  1.
</event>
<event>
 7    1  0.5642630E-013  0.5052886E+02  0.7816164E-02  0.1300439E+00
        -11   -1    0    0    0    0  0.00000000000E+00  0.00000000000E+00  0.45593999997E+02  0.45594000000E+02  0.51100000000E-03 0.  1.
         11   -1    0    0    0    0 -0.00000000000E+00 -0.00000000000E+00 -0.45593999997E+02  0.45594000000E+02  0.51100000000E-03 0. -1.
    9900012    2    1    2    0    0 -0.15705081772E+01 -0.16197628500E+02  0.37260384304E+02  0.50528857074E+02  0.29999991564E+02 0.  0.
         12    1    1    2    0    0  0.15705081772E+01  0.16197628500E+02 -0.37260384304E+02  0.40659142926E+02  0.00000000000E+00 0. -1.
         11    1    3    3    0    0  0.74372566804E+01 -0.68242455840E+01  0.49758118873E+01  0.11253524733E+02  0.51100000000E-03 0.  1.
        -11    1    3    3    0    0  0.56136541281E+01 -0.19259968827E+01  0.78080305232E+01  0.98075439114E+01  0.51100000000E-03 0. -1.
         12    1    3    3    0    0 -0.14621418986E+02 -0.74473860329E+01  0.24476541894E+02  0.29467788430E+02  0.00000000000E+00 0. -1.
</event>
<event>
 7    1  0.5642630E-013  0.5052886E+02  0.7816164E-02  0.1300439E+00
        -11   -1    0    0    0    0  0.00000000000E+00  0.00000000000E+00  0.45593999997E+02  0.45594000000E+02  0.51100000000E-03 0. -1.
         11   -1    0    0    0    0 -0.00000000000E+00 -0.00000000000E+00 -0.45593999997E+02  0.45594000000E+02  0.51100000000E-03 0.  1.
    9900012    2    1    2    0    0 -0.16077929160E+02 -0.27752899414E+02 -0.24988847472E+02  0.50528859208E+02  0.29999998049E+02 0.  0.
         12    1    1    2    0    0  0.16077929160E+02  0.27752899414E+02  0.24988847472E+02  0.40659140792E+02  0.00000000000E+00 0. -1.
         11    1    3    3    0    0  0.16673554095E+01 -0.37849348548E+01  0.10178471912E+01  0.42593214345E+01  0.51100000000E-03 0. -1.
        -11    1    3    3    0    0  0.59082320341E+01 -0.36707546382E+01 -0.32490697805E+01  0.76771153490E+01  0.51100000000E-03 0.  1.
         12    1    3    3    0    0 -0.23653516603E+02 -0.20297209921E+02 -0.22757624883E+02  0.38592422425E+02  0.00000000000E+00 0. -1.
</event>
<event>
 7    1  0.5642630E-013  0.5052887E+02  0.7816164E-02  0.1300439E+00
        -11   -1    0    0    0    0  0.00000000000E+00  0.00000000000E+00  0.45593999997E+02  0.45594000000E+02  0.51100000000E-03 0.  1.
         11   -1    0    0    0    0 -0.00000000000E+00 -0.00000000000E+00 -0.45593999997E+02  0.45594000000E+02  0.51100000000E-03 0. -1.
    9900012    2    1    2    0    0 -0.20010797153E+02 -0.45467817869E+01  0.35100711998E+02  0.50528865601E+02  0.30000017480E+02 0.  0.
         12    1    1    2    0    0  0.20010797153E+02  0.45467817869E+01 -0.35100711998E+02  0.40659134399E+02  0.00000000000E+00 0. -1.
         11    1    3    3    0    0  0.11199277366E+01  0.33179732705E+01  0.32826169700E+01  0.47998707474E+01  0.51100000000E-03 0. -1.
        -11    1    3    3    0    0 -0.97948937071E+01  0.46327775304E+01  0.25509786823E+02  0.27715551490E+02  0.51100000000E-03 0.  1.
         12    1    3    3    0    0 -0.11335831182E+02 -0.12497532588E+02  0.63083082050E+01  0.18013443363E+02  0.00000000000E+00 0. -1.
</event>
<event>
 7    1  0.5642630E-013  0.5052886E+02  0.7816164E-02  0.1300439E+00
        -11   -1    0    0    0    0  0.00000000000E+00  0.00000000000E+00  0.45593999997E+02  0.45594000000E+02  0.51100000000E-03 0. -1.
         11   -1    0    0    0    0 -0.00000000000E+00 -0.00000000000E+00 -0.45593999997E+02  0.45594000000E+02  0.51100000000E-03 0.  1.
    9900012    2    1    2    0    0  0.24227292991E+02 -0.19580884818E+02 -0.26130300093E+02  0.50528863771E+02  0.30000011918E+02 0.  0.
         12    1    1    2    0    0 -0.24227292991E+02  0.19580884818E+02  0.26130300093E+02  0.40659136229E+02  0.00000000000E+00 0. -1.
         11    1    3    3    0    0  0.14419699116E+02 -0.13091421914E+02 -0.51592532195E+01  0.20147728020E+02  0.51100000000E-03 0. -1.
        -11    1    3    3    0    0  0.14067763793E+02 -0.56203265925E+01 -0.89437461819E+01  0.17592061993E+02  0.51100000000E-03 0.  1.
         12    1    3    3    0    0 -0.42601699177E+01 -0.86913631129E+00 -0.12027300692E+02  0.12789073758E+02  0.00000000000E+00 0. -1.
</event>
<event>
 7    1  0.5642630E-013  0.5052886E+02  0.7816164E-02  0.1300439E+00
        -11   -1    0    0    0    0  0.00000000000E+00  0.00000000000E+00  0.45593999997E+02  0.45594000000E+02  0.51100000000E-03 0.  1.
         11   -1    0    0    0    0 -0.00000000000E+00 -0.00000000000E+00 -0.45593999997E+02  0.45594000000E+02  0.51100000000E-03 0. -1.
    9900012    2    1    2    0    0  0.12040318075E+02 -0.36315879095E+02  0.13760571053E+02  0.50528860198E+02  0.30000001057E+02 0.  0.
         12    1    1    2    0    0 -0.12040318075E+02  0.36315879095E+02 -0.13760571053E+02  0.40659139802E+02  0.00000000000E+00 0. -1.
         11    1    3    3    0    0  0.78978651432E+01 -0.40576957646E+01 -0.22124617489E+00  0.88820109699E+01  0.51100000000E-03 0. -1.
        -11    1    3    3    0    0  0.12601628260E+02 -0.16489459598E+02  0.11056552733E+02  0.23514903173E+02  0.51100000000E-03 0.  1.
         12    1    3    3    0    0 -0.84591753283E+01 -0.15768723732E+02  0.29252644948E+01  0.18131946055E+02  0.00000000000E+00 0. -1.
</event>
<event>
 7    1  0.5642630E-013  0.5052885E+02  0.7816164E-02  0.1300439E+00
        -11   -1    0    0    0    0  0.00000000000E+00  0.00000000000E+00  0.45593999997E+02  0.45594000000E+02  0.51100000000E-03 0.  1.
         11   -1    0    0    0    0 -0.00000000000E+00 -0.00000000000E+00 -0.45593999997E+02  0.45594000000E+02  0.51100000000E-03 0. -1.
    9900012    2    1    2    0    0 -0.32849199265E+02 -0.10384285093E+02  0.21593127778E+02  0.50528850519E+02  0.29999971638E+02 0.  0.
         12    1    1    2    0    0  0.32849199265E+02  0.10384285093E+02 -0.21593127778E+02  0.40659149481E+02  0.00000000000E+00 0. -1.
         11    1    3    3    0    0 -0.20946943157E+00  0.13730580049E+01 -0.23009878541E+01  0.26876962428E+01  0.51100000000E-03 0. -1.
        -11    1    3    3    0    0  0.30678064548E+01 -0.11760140798E+01 -0.49633287820E+00  0.33227687472E+01  0.51100000000E-03 0.  1.
        -12    1    3    3    0    0 -0.35707536289E+02 -0.10581329018E+02  0.24390448510E+02  0.44518385529E+02  0.00000000000E+00 0.  1.
</event>
<event>
 7    1  0.5642630E-013  0.5052886E+02  0.7816164E-02  0.1300439E+00
        -11   -1    0    0    0    0  0.00000000000E+00  0.00000000000E+00  0.45593999997E+02  0.45594000000E+02  0.51100000000E-03 0. -1.
         11   -1    0    0    0    0 -0.00000000000E+00 -0.00000000000E+00 -0.45593999997E+02  0.45594000000E+02  0.51100000000E-03 0.  1.
    9900012    2    1    2    0    0  0.27925406841E+02  0.18945033164E+02 -0.22680891341E+02  0.50528862517E+02  0.30000008108E+02 0.  0.
         12    1    1    2    0    0 -0.27925406841E+02 -0.18945033164E+02  0.22680891341E+02  0.40659137483E+02  0.00000000000E+00 0. -1.
         11    1    3    3    0    0  0.91222472457E+00  0.32543286888E+01 -0.10268177528E+02  0.10810100794E+02  0.51100000000E-03 0. -1.
        -11    1    3    3    0    0  0.91797066110E+01 -0.28925405424E+01 -0.99532820920E+01  0.13845635735E+02  0.51100000000E-03 0.  1.
         12    1    3    3    0    0  0.17833475505E+02  0.18583245018E+02 -0.24594317206E+01  0.25873125988E+02  0.00000000000E+00 0. -1.
</event>
<event>
 7    1  0.5642630E-013  0.5052885E+02  0.7816164E-02  0.1300439E+00
        -11   -1    0    0    0    0  0.00000000000E+00  0.00000000000E+00  0.45593999997E+02  0.45594000000E+02  0.51100000000E-03 0.  1.
         11   -1    0    0    0    0 -0.00000000000E+00 -0.00000000000E+00 -0.45593999997E+02  0.45594000000E+02  0.51100000000E-03 0. -1.
    9900012    2    1    2    0    0 -0.16830123236E+02 -0.39294336539E+01  0.36803165415E+02  0.50528849965E+02  0.29999969955E+02 0.  0.
         12    1    1    2    0    0  0.16830123236E+02  0.39294336539E+01 -0.36803165415E+02  0.40659150035E+02  0.00000000000E+00 0. -1.
         11    1    3    3    0    0 -0.54227599518E+01 -0.11909550683E+02  0.13857456472E+02  0.19059717288E+02  0.51100000000E-03 0. -1.
        -11    1    3    3    0    0 -0.83936645892E+01 -0.38979132375E+01  0.10657664138E+02  0.14114996918E+02  0.51100000000E-03 0.  1.
         12    1    3    3    0    0 -0.30136986951E+01  0.11878030267E+02  0.12288044804E+02  0.17354135759E+02  0.00000000000E+00 0. -1.
</event>
<event>
 7    1  0.5642630E-013  0.5052886E+02  0.7816164E-02  0.1300439E+00
        -11   -1    0    0    0    0  0.00000000000E+00  0.00000000000E+00  0.45593999997E+02  0.45594000000E+02  0.51100000000E-03 0. -1.
         11   -1    0    0    0    0 -0.00000000000E+00 -0.00000000000E+00 -0.45593999997E+02  0.45594000000E+02  0.51100000000E-03 0.  1.
    9900012    2    1    2    0    0  0.29617894307E+02  0.15904844232E+02 -0.22868800709E+02  0.50528858604E+02  0.29999996213E+02 0.  0.
         12    1    1    2    0    0 -0.29617894307E+02 -0.15904844232E+02  0.22868800709E+02  0.40659141396E+02  0.00000000000E+00 0. -1.
         11    1    3    3    0    0  0.43138429518E+01  0.55004516266E+01  0.22078845543E+01  0.73306864328E+01  0.51100000000E-03 0. -1.
        -11    1    3    3    0    0  0.20070629699E+02  0.15873763732E+01 -0.26022210617E+02  0.32901449602E+02  0.51100000000E-03 0.  1.
         12    1    3    3    0    0  0.52334216558E+01  0.88170162321E+01  0.94552535406E+00  0.10296722569E+02  0.00000000000E+00 0. -1.
</event>
<event>
 7    1  0.5642630E-013  0.5052886E+02  0.7816164E-02  0.1300439E+00
        -11   -1    0    0    0    0  0.00000000000E+00  0.00000000000E+00  0.45593999997E+02  0.45594000000E+02  0.51100000000E-03 0. -1.
         11   -1    0    0    0    0 -0.00000000000E+00 -0.00000000000E+00 -0.45593999997E+02  0.45594000000E+02  0.51100000000E-03 0.  1.
    9900012    2    1    2    0    0 -0.17077929197E+02  0.36089713522E+02  0.76839249165E+01  0.50528858471E+02  0.29999995807E+02 0.  0.
         12    1    1    2    0    0  0.17077929197E+02 -0.36089713522E+02 -0.76839249165E+01  0.40659141529E+02  0.00000000000E+00 0. -1.
         11    1    3    3    0    0 -0.57468665478E+01  0.65638897510E+01  0.45778586959E+01  0.98523050238E+01  0.51100000000E-03 0. -1.
        -11    1    3    3    0    0 -0.14057354374E+02  0.16650255577E+02  0.11918817553E+02  0.24837440184E+02  0.51100000000E-03 0.  1.
         12    1    3    3    0    0  0.27262917251E+01  0.12875568194E+02 -0.88127513323E+01  0.15839113263E+02  0.00000000000E+00 0. -1.
</event>
<event>
 7    1  0.5642630E-013  0.5052874E+02  0.7816164E-02  0.1300439E+00
        -11   -1    0    0    0    0  0.00000000000E+00  0.00000000000E+00  0.45593999997E+02  0.45594000000E+02  0.51100000000E-03 0.  1.
         11   -1    0    0    0    0 -0.00000000000E+00 -0.00000000000E+00 -0.45593999997E+02  0.45594000000E+02  0.51100000000E-03 0. -1.
    9900012    2    1    2    0    0 -0.17965296725E+01 -0.30747624158E+02 -0.26543005466E+02  0.50528744604E+02  0.29999649695E+02 0.  0.
         12    1    1    2    0    0  0.17965296725E+01  0.30747624158E+02  0.26543005466E+02  0.40659255396E+02  0.00000000000E+00 0. -1.
         11    1    3    3    0    0 -0.60931617640E+01 -0.64721938628E+01 -0.77126549777E+01  0.11768643114E+02  0.51100000000E-03 0. -1.
        -11    1    3    3    0    0 -0.23420931340E+01 -0.81129524481E+01 -0.19525765353E+02  0.21273479042E+02  0.51100000000E-03 0.  1.
        -12    1    3    3    0    0  0.66387252256E+01 -0.16162477847E+02  0.69541486491E+00  0.17486622447E+02  0.00000000000E+00 0.  1.
</event>
<event>
 7    1  0.5642630E-013  0.5052887E+02  0.7816164E-02  0.1300439E+00
        -11   -1    0    0    0    0  0.00000000000E+00  0.00000000000E+00  0.45593999997E+02  0.45594000000E+02  0.51100000000E-03 0. -1.
         11   -1    0    0    0    0 -0.00000000000E+00 -0.00000000000E+00 -0.45593999997E+02  0.45594000000E+02  0.51100000000E-03 0.  1.
    9900012    2    1    2    0    0  0.29510416476E+02  0.27676648871E+02 -0.40377328385E+01  0.50528869909E+02  0.30000030575E+02 0.  0.
         12    1    1    2    0    0 -0.29510416476E+02 -0.27676648871E+02  0.40377328385E+01  0.40659130091E+02  0.00000000000E+00 0. -1.
         11    1    3    3    0    0  0.66470285947E+01  0.69056519200E+01  0.89304634164E+01  0.13100541770E+02  0.51100000000E-03 0. -1.
        -11    1    3    3    0    0  0.22665515255E+02  0.11202619446E+02 -0.73450286852E+01  0.26328192321E+02  0.51100000000E-03 0.  1.
         12    1    3    3    0    0  0.19787262554E+00  0.95683775051E+01 -0.56231675697E+01  0.11100135818E+02  0.00000000000E+00 0. -1.
</event>
<event>
 7    1  0.5642630E-013  0.5052886E+02  0.7816164E-02  0.1300439E+00
        -11   -1    0    0    0    0  0.00000000000E+00  0.00000000000E+00  0.45593999997E+02  0.45594000000E+02  0.51100000000E-03 0.  1.
         11   -1    0    0    0    0 -0.00000000000E+00 -0.00000000000E+00 -0.45593999997E+02  0.45594000000E+02  0.51100000000E-03 0. -1.
    9900012    2    1    2    0    0 -0.32335872013E+02 -0.23924096623E+02 -0.59325187513E+01  0.50528858385E+02  0.29999995548E+02 0.  0.
         12    1    1    2    0    0  0.32335872013E+02  0.23924096623E+02  0.59325187513E+01  0.40659141615E+02  0.00000000000E+00 0. -1.
         11    1    3    3    0    0 -0.28691584404E+01 -0.12847724954E+01  0.46269461953E+01  0.55938664515E+01  0.51100000000E-03 0. -1.
        -11    1    3    3    0    0 -0.10677228888E+02 -0.49077793765E+01  0.70179902349E+01  0.13687282503E+02  0.51100000000E-03 0.  1.
        -12    1    3    3    0    0 -0.18789484685E+02 -0.17731544751E+02 -0.17577455182E+02  0.31247709431E+02  0.00000000000E+00 0.  1.
</event>
<event>
 7    1  0.5642630E-013  0.5052886E+02  0.7816164E-02  0.1300439E+00
        -11   -1    0    0    0    0  0.00000000000E+00  0.00000000000E+00  0.45593999997E+02  0.45594000000E+02  0.51100000000E-03 0.  1.
         11   -1    0    0    0    0 -0.00000000000E+00 -0.00000000000E+00 -0.45593999997E+02  0.45594000000E+02  0.51100000000E-03 0. -1.
    9900012    2    1    2    0    0  0.26719799506E+02  0.24321478214E+02  0.18646274338E+02  0.50528861607E+02  0.30000005341E+02 0.  0.
         12    1    1    2    0    0 -0.26719799506E+02 -0.24321478214E+02 -0.18646274338E+02  0.40659138393E+02  0.00000000000E+00 0. -1.
         11    1    3    3    0    0  0.10168346710E+02  0.38487711562E+01  0.33328164299E+01  0.11371718421E+02  0.51100000000E-03 0. -1.
        -11    1    3    3    0    0  0.16249291326E+02  0.95034852429E+00  0.47395086025E+01  0.16953040228E+02  0.51100000000E-03 0.  1.
        -12    1    3    3    0    0  0.30216147012E+00  0.19522358533E+02  0.10573949306E+02  0.22204102958E+02  0.00000000000E+00 0.  1.
</event>
<event>
 7    1  0.5642630E-013  0.5052885E+02  0.7816164E-02  0.1300439E+00
        -11   -1    0    0    0    0  0.00000000000E+00  0.00000000000E+00  0.45593999997E+02  0.45594000000E+02  0.51100000000E-03 0. -1.
         11   -1    0    0    0    0 -0.00000000000E+00 -0.00000000000E+00 -0.45593999997E+02  0.45594000000E+02  0.51100000000E-03 0.  1.
    9900012    2    1    2    0    0 -0.12446823466E+02 -0.36203563500E+02 -0.13694696578E+02  0.50528854179E+02  0.29999982764E+02 0.  0.
         12    1    1    2    0    0  0.12446823466E+02  0.36203563500E+02  0.13694696578E+02  0.40659145821E+02  0.00000000000E+00 0. -1.
         11    1    3    3    0    0  0.42067579214E+01 -0.61798052447E+01 -0.92783990210E+01  0.11915346983E+02  0.51100000000E-03 0. -1.
        -11    1    3    3    0    0  0.36060876760E+01 -0.46629907634E+01 -0.43530741154E+00  0.59107397160E+01  0.51100000000E-03 0.  1.
        -12    1    3    3    0    0 -0.20259669064E+02 -0.25360767492E+02 -0.39809901458E+01  0.32702767480E+02  0.00000000000E+00 0.  1.
</event>
<event>
 7    1  0.5642630E-013  0.5052886E+02  0.7816164E-02  0.1300439E+00
        -11   -1    0    0    0    0  0.00000000000E+00  0.00000000000E+00  0.45593999997E+02  0.45594000000E+02  0.51100000000E-03 0.  1.
         11   -1    0    0    0    0 -0.00000000000E+00 -0.00000000000E+00 -0.45593999997E+02  0.45594000000E+02  0.51100000000E-03 0. -1.
    9900012    2    1    2    0    0  0.28805434700E+00 -0.12518284131E+02  0.38683005969E+02  0.50528863712E+02  0.30000011739E+02 0.  0.
         12    1    1    2    0    0 -0.28805434700E+00  0.12518284131E+02 -0.38683005969E+02  0.40659136288E+02  0.00000000000E+00 0. -1.
         11    1    3    3    0    0 -0.27457886519E+01 -0.10443908678E+02  0.33136021482E+02  0.34851262585E+02  0.51100000000E-03 0. -1.
        -11    1    3    3    0    0  0.33953734246E+01 -0.42652426217E+01  0.96092810870E+01  0.11048037771E+02  0.51100000000E-03 0.  1.
         12    1    3    3    0    0 -0.36153042562E+00  0.21908671692E+01 -0.40622966004E+01  0.46295633565E+01  0.00000000000E+00 0. -1.
</event>
<event>
 7    1  0.5642630E-013  0.5052883E+02  0.7816164E-02  0.1300439E+00
        -11   -1    0    0    0    0  0.00000000000E+00  0.00000000000E+00  0.45593999997E+02  0.45594000000E+02  0.51100000000E-03 0.  1.
         11   -1    0    0    0    0 -0.00000000000E+00 -0.00000000000E+00 -0.45593999997E+02  0.45594000000E+02  0.51100000000E-03 0. -1.
    9900012    2    1    2    0    0  0.21774450067E+02  0.23904924450E+02  0.24649460592E+02  0.50528831340E+02  0.29999913342E+02 0.  0.
         12    1    1    2    0    0 -0.21774450067E+02 -0.23904924450E+02 -0.24649460592E+02  0.40659168660E+02  0.00000000000E+00 0. -1.
         11    1    3    3    0    0  0.80396143597E+01  0.75321190706E+01 -0.28115867586E+00  0.11020311575E+02  0.51100000000E-03 0. -1.
        -11    1    3    3    0    0  0.48964277531E+01 -0.51195443759E+01  0.35210097772E+01  0.79108943534E+01  0.51100000000E-03 0.  1.
         12    1    3    3    0    0  0.88384079540E+01  0.21492349755E+02  0.21409609490E+02  0.31597625412E+02  0.00000000000E+00 0. -1.
</event>
<event>
 7    1  0.5642630E-013  0.5052885E+02  0.7816164E-02  0.1300439E+00
        -11   -1    0    0    0    0  0.00000000000E+00  0.00000000000E+00  0.45593999997E+02  0.45594000000E+02  0.51100000000E-03 0. -1.
         11   -1    0    0    0    0 -0.00000000000E+00 -0.00000000000E+00 -0.45593999997E+02  0.45594000000E+02  0.51100000000E-03 0.  1.
    9900012    2    1    2    0    0 -0.15364227254E+01 -0.30979402831E+01 -0.40511833024E+02  0.50528850430E+02  0.29999971367E+02 0.  0.
         12    1    1    2    0    0  0.15364227254E+01  0.30979402831E+01  0.40511833024E+02  0.40659149570E+02  0.00000000000E+00 0. -1.
         11    1    3    3    0    0  0.16085197993E+01  0.42370152736E+01 -0.75694309423E+01  0.88224667426E+01  0.51100000000E-03 0. -1.
        -11    1    3    3    0    0  0.46716409057E+00  0.73740424891E+01 -0.26700415430E+01  0.78564538452E+01  0.51100000000E-03 0.  1.
        -12    1    3    3    0    0 -0.36121066153E+01 -0.14708998046E+02 -0.30272360539E+02  0.33849929842E+02  0.00000000000E+00 0.  1.
</event>
<event>
 7    1  0.5642630E-013  0.5052884E+02  0.7816164E-02  0.1300439E+00
        -11   -1    0    0    0    0  0.00000000000E+00  0.00000000000E+00  0.45593999997E+02  0.45594000000E+02  0.51100000000E-03 0. -1.
         11   -1    0    0    0    0 -0.00000000000E+00 -0.00000000000E+00 -0.45593999997E+02  0.45594000000E+02  0.51100000000E-03 0.  1.
    9900012    2    1    2    0    0 -0.24655271941E+02  0.30292430742E+02 -0.11298376363E+02  0.50528842321E+02  0.29999946718E+02 0.  0.
         12    1    1    2    0    0  0.24655271941E+02 -0.30292430742E+02  0.11298376363E+02  0.40659157679E+02  0.00000000000E+00 0. -1.
         11    1    3    3    0    0 -0.36665923662E+01  0.51556202630E+01  0.62873889780E+00  0.63576436467E+01  0.51100000000E-03 0. -1.
        -11    1    3    3    0    0  0.36353010950E+01  0.14307899457E+02 -0.85510704107E+01  0.17060252236E+02  0.51100000000E-03 0.  1.
        -12    1    3    3    0    0 -0.24623980669E+02  0.10828911023E+02 -0.33760448504E+01  0.27110946438E+02  0.00000000000E+00 0.  1.
</event>
<event>
 7    1  0.5642630E-013  0.5052886E+02  0.7816164E-02  0.1300439E+00
        -11   -1    0    0    0    0  0.00000000000E+00  0.00000000000E+00  0.45593999997E+02  0.45594000000E+02  0.51100000000E-03 0.  1.
         11   -1    0    0    0    0 -0.00000000000E+00 -0.00000000000E+00 -0.45593999997E+02  0.45594000000E+02  0.51100000000E-03 0. -1.
    9900012    2    1    2    0    0  0.24583939261E+02 -0.17736768002E+02  0.27096173033E+02  0.50528860784E+02  0.30000002840E+02 0.  0.
         12    1    1    2    0    0 -0.24583939261E+02  0.17736768002E+02 -0.27096173033E+02  0.40659139216E+02  0.00000000000E+00 0. -1.
         11    1    3    3    0    0  0.84728496889E+01 -0.17675965350E+02  0.72706977840E+01  0.20906744831E+02  0.51100000000E-03 0. -1.
        -11    1    3    3    0    0  0.15736167517E+02 -0.28661732878E+01  0.88346984555E+01  0.18272761546E+02  0.51100000000E-03 0.  1.
        -12    1    3    3    0    0  0.37492205467E+00  0.28053706357E+01  0.10990776793E+02  0.11349354408E+02  0.00000000000E+00 0.  1.
</event>
<event>
 7    1  0.5642630E-013  0.5052885E+02  0.7816164E-02  0.1300439E+00
        -11   -1    0    0    0    0  0.00000000000E+00  0.00000000000E+00  0.45593999997E+02  0.45594000000E+02  0.51100000000E-03 0.  1.
         11   -1    0    0    0    0 -0.00000000000E+00 -0.00000000000E+00 -0.45593999997E+02  0.45594000000E+02  0.51100000000E-03 0. -1.
    9900012    2    1    2    0    0 -0.38048756679E+02 -0.12120944630E+02 -0.76512028523E+01  0.50528854798E+02  0.29999984643E+02 0.  0.
         12    1    1    2    0    0  0.38048756679E+02  0.12120944630E+02  0.76512028523E+01  0.40659145202E+02  0.00000000000E+00 0. -1.
         11    1    3    3    0    0 -0.15562246466E+01 -0.12624471193E+01 -0.37942350526E+01  0.42909005786E+01  0.51100000000E-03 0. -1.
        -11    1    3    3    0    0  0.35183260484E+01  0.14389601830E+01 -0.21007405632E+01  0.43430790651E+01  0.51100000000E-03 0.  1.
        -12    1    3    3    0    0 -0.40010858080E+02 -0.12297457694E+02 -0.17562272365E+01  0.41894875154E+02  0.00000000000E+00 0.  1.
</event>
<event>
 7    1  0.5642630E-013  0.5052886E+02  0.7816164E-02  0.1300439E+00
        -11   -1    0    0    0    0  0.00000000000E+00  0.00000000000E+00  0.45593999997E+02  0.45594000000E+02  0.51100000000E-03 0. -1.
         11   -1    0    0    0    0 -0.00000000000E+00 -0.00000000000E+00 -0.45593999997E+02  0.45594000000E+02  0.51100000000E-03 0.  1.
    9900012    2    1    2    0    0 -0.21425683404E+02 -0.18900562092E+02 -0.28928784269E+02  0.50528859380E+02  0.29999998570E+02 0.  0.
         12    1    1    2    0    0  0.21425683404E+02  0.18900562092E+02  0.28928784269E+02  0.40659140620E+02  0.00000000000E+00 0. -1.
         11    1    3    3    0    0 -0.47240753466E+01  0.34140364690E+01 -0.11998922871E+02  0.13339665783E+02  0.51100000000E-03 0. -1.
        -11    1    3    3    0    0 -0.47468404614E+00 -0.16021979342E+01 -0.97819603436E+01  0.99236642219E+01  0.51100000000E-03 0.  1.
        -12    1    3    3    0    0 -0.16226924012E+02 -0.20712400626E+02 -0.71479010543E+01  0.27265529374E+02  0.00000000000E+00 0.  1.
</event>
<event>
 7    1  0.5642630E-013  0.5052885E+02  0.7816164E-02  0.1300439E+00
        -11   -1    0    0    0    0  0.00000000000E+00  0.00000000000E+00  0.45593999997E+02  0.45594000000E+02  0.51100000000E-03 0.  1.
         11   -1    0    0    0    0 -0.00000000000E+00 -0.00000000000E+00 -0.45593999997E+02  0.45594000000E+02  0.51100000000E-03 0. -1.
    9900012    2    1    2    0    0 -0.27847483512E+02  0.26939909083E+01  0.29502990650E+02  0.50528851186E+02  0.29999973666E+02 0.  0.
         12    1    1    2    0    0  0.27847483512E+02 -0.26939909083E+01 -0.29502990650E+02  0.40659148814E+02  0.00000000000E+00 0. -1.
         11    1    3    3    0    0 -0.16995209952E+02  0.84139881667E+01  0.39554924239E+01  0.19372100525E+02  0.51100000000E-03 0. -1.
        -11    1    3    3    0    0 -0.28540210385E+01  0.40528287442E+01  0.50137844913E+01  0.70504533261E+01  0.51100000000E-03 0.  1.
        -12    1    3    3    0    0 -0.79982525215E+01 -0.97728260026E+01  0.20533713735E+02  0.24106297335E+02  0.00000000000E+00 0.  1.
</event>
<event>
 7    1  0.5642630E-013  0.5052886E+02  0.7816164E-02  0.1300439E+00
        -11   -1    0    0    0    0  0.00000000000E+00  0.00000000000E+00  0.45593999997E+02  0.45594000000E+02  0.51100000000E-03 0.  1.
         11   -1    0    0    0    0 -0.00000000000E+00 -0.00000000000E+00 -0.45593999997E+02  0.45594000000E+02  0.51100000000E-03 0. -1.
    9900012    2    1    2    0    0  0.36496515321E+02 -0.17920024232E+02 -0.20670336718E+00  0.50528860494E+02  0.30000001959E+02 0.  0.
         12    1    1    2    0    0 -0.36496515321E+02  0.17920024232E+02  0.20670336718E+00  0.40659139506E+02  0.00000000000E+00 0. -1.
         11    1    3    3    0    0  0.99113012201E+01  0.32935620769E+01  0.37481475604E+01  0.11096398219E+02  0.51100000000E-03 0. -1.
        -11    1    3    3    0    0  0.87326305257E+01 -0.41872776131E+00  0.56290986584E+01  0.10398121023E+02  0.51100000000E-03 0.  1.
        -12    1    3    3    0    0  0.17852583575E+02 -0.20794858548E+02 -0.95839495860E+01  0.29034341253E+02  0.00000000000E+00 0.  1.
</event>
<event>
 7    1  0.5642630E-013  0.5052885E+02  0.7816164E-02  0.1300439E+00
        -11   -1    0    0    0    0  0.00000000000E+00  0.00000000000E+00  0.45593999997E+02  0.45594000000E+02  0.51100000000E-03 0. -1.
         11   -1    0    0    0    0 -0.00000000000E+00 -0.00000000000E+00 -0.45593999997E+02  0.45594000000E+02  0.51100000000E-03 0.  1.
    9900012    2    1    2    0    0 -0.20816875520E+02 -0.49282216241E+01 -0.34576533400E+02  0.50528851745E+02  0.29999975366E+02 0.  0.
         12    1    1    2    0    0  0.20816875520E+02  0.49282216241E+01  0.34576533400E+02  0.40659148255E+02  0.00000000000E+00 0. -1.
         11    1    3    3    0    0 -0.10416427777E+02 -0.10379581935E+02 -0.25942921428E+01  0.14932114410E+02  0.51100000000E-03 0. -1.
        -11    1    3    3    0    0 -0.54465352885E+00  0.20187541787E+01 -0.14885251543E+00  0.20962283352E+01  0.51100000000E-03 0.  1.
        -12    1    3    3    0    0 -0.98557942144E+01  0.34326061321E+01 -0.31833388742E+02  0.33500509000E+02  0.00000000000E+00 0.  1.
</event>
<event>
 7    1  0.5642630E-013  0.5052889E+02  0.7816164E-02  0.1300439E+00
        -11   -1    0    0    0    0  0.00000000000E+00  0.00000000000E+00  0.45593999997E+02  0.45594000000E+02  0.51100000000E-03 0.  1.
         11   -1    0    0    0    0 -0.00000000000E+00 -0.00000000000E+00 -0.45593999997E+02  0.45594000000E+02  0.51100000000E-03 0. -1.
    9900012    2    1    2    0    0 -0.24838982124E+02  0.11879818645E+02  0.29917527376E+02  0.50528885791E+02  0.30000078849E+02 0.  0.
         12    1    1    2    0    0  0.24838982124E+02 -0.11879818645E+02 -0.29917527376E+02  0.40659114209E+02  0.00000000000E+00 0. -1.
         11    1    3    3    0    0 -0.98772283594E+01  0.13242302081E+01 -0.15518917335E+01  0.10085712366E+02  0.51100000000E-03 0. -1.
        -11    1    3    3    0    0 -0.95451239734E+01  0.63572474581E+01  0.40221280729E+01  0.12153250652E+02  0.51100000000E-03 0.  1.
        -12    1    3    3    0    0 -0.54166297916E+01  0.41983409790E+01  0.27447291036E+02  0.28289922773E+02  0.00000000000E+00 0.  1.
</event>
<event>
 7    1  0.5642630E-013  0.5052885E+02  0.7816164E-02  0.1300439E+00
        -11   -1    0    0    0    0  0.00000000000E+00  0.00000000000E+00  0.45593999997E+02  0.45594000000E+02  0.51100000000E-03 0. -1.
         11   -1    0    0    0    0 -0.00000000000E+00 -0.00000000000E+00 -0.45593999997E+02  0.45594000000E+02  0.51100000000E-03 0.  1.
    9900012    2    1    2    0    0  0.21417941982E+02  0.32118491665E+02 -0.12760912034E+02  0.50528848244E+02  0.29999964722E+02 0.  0.
         12    1    1    2    0    0 -0.21417941982E+02 -0.32118491665E+02  0.12760912034E+02  0.40659151756E+02  0.00000000000E+00 0. -1.
         11    1    3    3    0    0 -0.11672575768E+01  0.44450450727E+01  0.18971002078E+01  0.49719116453E+01  0.51100000000E-03 0. -1.
        -11    1    3    3    0    0  0.16270043364E+01  0.16493957782E+02  0.17815186612E+01  0.16669480958E+02  0.51100000000E-03 0.  1.
        -12    1    3    3    0    0  0.20958195222E+02  0.11179488811E+02 -0.16439530903E+02  0.28887455640E+02  0.00000000000E+00 0.  1.
</event>
<event>
 7    1  0.5642630E-013  0.5052886E+02  0.7816164E-02  0.1300439E+00
        -11   -1    0    0    0    0  0.00000000000E+00  0.00000000000E+00  0.45593999997E+02  0.45594000000E+02  0.51100000000E-03 0. -1.
         11   -1    0    0    0    0 -0.00000000000E+00 -0.00000000000E+00 -0.45593999997E+02  0.45594000000E+02  0.51100000000E-03 0.  1.
    9900012    2    1    2    0    0 -0.14717926330E+02 -0.36915024431E+02  0.85923950029E+01  0.50528860363E+02  0.30000001559E+02 0.  0.
         12    1    1    2    0    0  0.14717926330E+02  0.36915024431E+02 -0.85923950029E+01  0.40659139637E+02  0.00000000000E+00 0. -1.
         11    1    3    3    0    0 -0.88321633424E+01 -0.79387374029E+01  0.31592618963E+01  0.12288677587E+02  0.51100000000E-03 0.  1.
        -11    1    3    3    0    0  0.80524139099E+01 -0.85679166717E+01 -0.29867143729E+01  0.12131406715E+02  0.51100000000E-03 0. -1.
         12    1    3    3    0    0 -0.13938176897E+02 -0.20408370356E+02  0.84198474795E+01  0.26108776061E+02  0.00000000000E+00 0. -1.
</event>
<event>
 7    1  0.5642630E-013  0.5052886E+02  0.7816164E-02  0.1300439E+00
        -11   -1    0    0    0    0  0.00000000000E+00  0.00000000000E+00  0.45593999997E+02  0.45594000000E+02  0.51100000000E-03 0. -1.
         11   -1    0    0    0    0 -0.00000000000E+00 -0.00000000000E+00 -0.45593999997E+02  0.45594000000E+02  0.51100000000E-03 0.  1.
    9900012    2    1    2    0    0 -0.39004866131E+02 -0.11309037346E+02  0.19727020900E+01  0.50528862514E+02  0.30000008096E+02 0.  0.
         12    1    1    2    0    0  0.39004866131E+02  0.11309037346E+02 -0.19727020900E+01  0.40659137486E+02  0.00000000000E+00 0. -1.
         11    1    3    3    0    0 -0.15418030351E+02 -0.11820519330E+02 -0.16492026469E+01  0.19497697473E+02  0.51100000000E-03 0. -1.
        -11    1    3    3    0    0 -0.17742211056E+02 -0.40666653309E+01 -0.57371095679E+01  0.19085026763E+02  0.51100000000E-03 0.  1.
         12    1    3    3    0    0 -0.58446247239E+01  0.45781473141E+01  0.93590143048E+01  0.11946138278E+02  0.00000000000E+00 0. -1.
</event>
<event>
 7    1  0.5642630E-013  0.5052883E+02  0.7816164E-02  0.1300439E+00
        -11   -1    0    0    0    0  0.00000000000E+00  0.00000000000E+00  0.45593999997E+02  0.45594000000E+02  0.51100000000E-03 0. -1.
         11   -1    0    0    0    0 -0.00000000000E+00 -0.00000000000E+00 -0.45593999997E+02  0.45594000000E+02  0.51100000000E-03 0.  1.
    9900012    2    1    2    0    0 -0.99369842621E+01  0.25650909750E+02 -0.29940869610E+02  0.50528825141E+02  0.29999894498E+02 0.  0.
         12    1    1    2    0    0  0.99369842621E+01 -0.25650909750E+02  0.29940869610E+02  0.40659174859E+02  0.00000000000E+00 0. -1.
         11    1    3    3    0    0 -0.43618959047E+01  0.99711387479E-01 -0.10824728610E+02  0.11670939464E+02  0.51100000000E-03 0.  1.
        -11    1    3    3    0    0 -0.67626905389E+01  0.15291955602E+02  0.45733333595E+00  0.16726836028E+02  0.51100000000E-03 0. -1.
         12    1    3    3    0    0  0.11876021815E+01  0.10259242760E+02 -0.19573474336E+02  0.22131049649E+02  0.00000000000E+00 0. -1.
</event>
<event>
 7    1  0.5642630E-013  0.5052887E+02  0.7816164E-02  0.1300439E+00
        -11   -1    0    0    0    0  0.00000000000E+00  0.00000000000E+00  0.45593999997E+02  0.45594000000E+02  0.51100000000E-03 0.  1.
         11   -1    0    0    0    0 -0.00000000000E+00 -0.00000000000E+00 -0.45593999997E+02  0.45594000000E+02  0.51100000000E-03 0. -1.
    9900012    2    1    2    0    0  0.10363223057E+02  0.24862150648E+02  0.30457212805E+02  0.50528871396E+02  0.30000035096E+02 0.  0.
         12    1    1    2    0    0 -0.10363223057E+02 -0.24862150648E+02 -0.30457212805E+02  0.40659128604E+02  0.00000000000E+00 0. -1.
         11    1    3    3    0    0 -0.37291582324E+01  0.21495776110E+01  0.50257319616E+01  0.66170451895E+01  0.51100000000E-03 0. -1.
        -11    1    3    3    0    0 -0.64735821643E+01  0.48404705057E+01  0.89874566936E+01  0.12087671357E+02  0.51100000000E-03 0.  1.
        -12    1    3    3    0    0  0.20565963454E+02  0.17872102531E+02  0.16444024150E+02  0.31824154850E+02  0.00000000000E+00 0.  1.
</event>
<event>
 7    1  0.5642630E-013  0.5052886E+02  0.7816164E-02  0.1300439E+00
        -11   -1    0    0    0    0  0.00000000000E+00  0.00000000000E+00  0.45593999997E+02  0.45594000000E+02  0.51100000000E-03 0.  1.
         11   -1    0    0    0    0 -0.00000000000E+00 -0.00000000000E+00 -0.45593999997E+02  0.45594000000E+02  0.51100000000E-03 0. -1.
    9900012    2    1    2    0    0 -0.11255699648E+02 -0.15104888461E+02  0.36032171345E+02  0.50528858325E+02  0.29999995363E+02 0.  0.
         12    1    1    2    0    0  0.11255699648E+02  0.15104888461E+02 -0.36032171345E+02  0.40659141675E+02  0.00000000000E+00 0. -1.
         11    1    3    3    0    0  0.35160667664E+01 -0.13448245736E+02  0.19404880472E+02  0.23869801534E+02  0.51100000000E-03 0. -1.
        -11    1    3    3    0    0 -0.13945931600E+01 -0.29756302534E+01  0.12001600056E+02  0.12443378547E+02  0.51100000000E-03 0.  1.
         12    1    3    3    0    0 -0.13377173255E+02  0.13189875290E+01  0.46256908160E+01  0.14215678243E+02  0.00000000000E+00 0. -1.
</event>
<event>
 7    1  0.5642630E-013  0.5052886E+02  0.7816164E-02  0.1300439E+00
        -11   -1    0    0    0    0  0.00000000000E+00  0.00000000000E+00  0.45593999997E+02  0.45594000000E+02  0.51100000000E-03 0.  1.
         11   -1    0    0    0    0 -0.00000000000E+00 -0.00000000000E+00 -0.45593999997E+02  0.45594000000E+02  0.51100000000E-03 0. -1.
    9900012    2    1    2    0    0 -0.19846194276E+02 -0.30345638653E+01  0.35356548163E+02  0.50528861998E+02  0.30000006529E+02 0.  0.
         12    1    1    2    0    0  0.19846194276E+02  0.30345638653E+01 -0.35356548163E+02  0.40659138002E+02  0.00000000000E+00 0. -1.
         11    1    3    3    0    0 -0.96139708541E+01 -0.76290953090E+01  0.15129183030E+02  0.19481368285E+02  0.51100000000E-03 0. -1.
        -11    1    3    3    0    0 -0.15122931731E+02 -0.51367959842E+00  0.18244237040E+02  0.23702723816E+02  0.51100000000E-03 0.  1.
         12    1    3    3    0    0  0.48907083088E+01  0.51082110421E+01  0.19831280923E+01  0.73447698972E+01  0.00000000000E+00 0. -1.
</event>
<event>
 7    1  0.5642630E-013  0.5052887E+02  0.7816164E-02  0.1300439E+00
        -11   -1    0    0    0    0  0.00000000000E+00  0.00000000000E+00  0.45593999997E+02  0.45594000000E+02  0.51100000000E-03 0.  1.
         11   -1    0    0    0    0 -0.00000000000E+00 -0.00000000000E+00 -0.45593999997E+02  0.45594000000E+02  0.51100000000E-03 0. -1.
    9900012    2    1    2    0    0 -0.14851672987E+02  0.33917828467E+02  0.16798022486E+02  0.50528870179E+02  0.30000031395E+02 0.  0.
         12    1    1    2    0    0  0.14851672987E+02 -0.33917828467E+02 -0.16798022486E+02  0.40659129821E+02  0.00000000000E+00 0. -1.
         11    1    3    3    0    0 -0.13749361941E+02  0.14813163930E+02  0.80179618069E+01  0.21743102152E+02  0.51100000000E-03 0. -1.
        -11    1    3    3    0    0 -0.84607979825E+01  0.17648423513E+02  0.42665680694E+01  0.20031364365E+02  0.51100000000E-03 0.  1.
         12    1    3    3    0    0  0.73584869370E+01  0.14562410235E+01  0.45134926096E+01  0.87544036609E+01  0.00000000000E+00 0. -1.
</event>
<event>
 7    1  0.5642630E-013  0.5052886E+02  0.7816164E-02  0.1300439E+00
        -11   -1    0    0    0    0  0.00000000000E+00  0.00000000000E+00  0.45593999997E+02  0.45594000000E+02  0.51100000000E-03 0. -1.
         11   -1    0    0    0    0 -0.00000000000E+00 -0.00000000000E+00 -0.45593999997E+02  0.45594000000E+02  0.51100000000E-03 0.  1.
    9900012    2    1    2    0    0  0.94663996481E+01 -0.38161173064E+02 -0.10357481182E+02  0.50528864884E+02  0.30000015301E+02 0.  0.
         12    1    1    2    0    0 -0.94663996481E+01  0.38161173064E+02  0.10357481182E+02  0.40659135116E+02  0.00000000000E+00 0. -1.
         11    1    3    3    0    0  0.17901907076E+01 -0.27850218728E+02 -0.84798934139E+01  0.29167585751E+02  0.51100000000E-03 0. -1.
        -11    1    3    3    0    0  0.43987442950E+01 -0.10120534957E+02 -0.85268825797E+01  0.13945676964E+02  0.51100000000E-03 0.  1.
         12    1    3    3    0    0  0.32774646454E+01 -0.19041937975E+00  0.66492948115E+01  0.74156021693E+01  0.00000000000E+00 0. -1.
</event>
<event>
 7    1  0.5642630E-013  0.5052885E+02  0.7816164E-02  0.1300439E+00
        -11   -1    0    0    0    0  0.00000000000E+00  0.00000000000E+00  0.45593999997E+02  0.45594000000E+02  0.51100000000E-03 0.  1.
         11   -1    0    0    0    0 -0.00000000000E+00 -0.00000000000E+00 -0.45593999997E+02  0.45594000000E+02  0.51100000000E-03 0. -1.
    9900012    2    1    2    0    0 -0.34833819346E+02 -0.20962914496E+02  0.57248044823E+00  0.50528849882E+02  0.29999969702E+02 0.  0.
         12    1    1    2    0    0  0.34833819346E+02  0.20962914496E+02 -0.57248044823E+00  0.40659150118E+02  0.00000000000E+00 0. -1.
         11    1    3    3    0    0 -0.43792791796E+01  0.17230985448E+01 -0.87725754407E+00  0.47871427582E+01  0.51100000000E-03 0. -1.
        -11    1    3    3    0    0 -0.17801142027E+02 -0.26104568056E+02 -0.33722584839E+01  0.31775796739E+02  0.51100000000E-03 0.  1.
         12    1    3    3    0    0 -0.12653398140E+02  0.34185550148E+01  0.48219964762E+01  0.13965910385E+02  0.00000000000E+00 0. -1.
</event>
<event>
 7    1  0.5642630E-013  0.5052886E+02  0.7816164E-02  0.1300439E+00
        -11   -1    0    0    0    0  0.00000000000E+00  0.00000000000E+00  0.45593999997E+02  0.45594000000E+02  0.51100000000E-03 0.  1.
         11   -1    0    0    0    0 -0.00000000000E+00 -0.00000000000E+00 -0.45593999997E+02  0.45594000000E+02  0.51100000000E-03 0. -1.
    9900012    2    1    2    0    0  0.33577621008E+01 -0.17840811068E+02  0.36381270583E+02  0.50528856439E+02  0.29999989631E+02 0.  0.
         12    1    1    2    0    0 -0.33577621008E+01  0.17840811068E+02 -0.36381270583E+02  0.40659143561E+02  0.00000000000E+00 0. -1.
         11    1    3    3    0    0  0.93406942157E+01 -0.10505339894E+02  0.11184637219E+02  0.17964043105E+02  0.51100000000E-03 0. -1.
        -11    1    3    3    0    0  0.53280645494E+01 -0.66680956066E+01  0.66048779392E+01  0.10792413248E+02  0.51100000000E-03 0.  1.
         12    1    3    3    0    0 -0.11310996664E+02 -0.66737556819E+00  0.18591755425E+02  0.21772400085E+02  0.00000000000E+00 0. -1.
</event>
<event>
 7    1  0.5642630E-013  0.5052887E+02  0.7816164E-02  0.1300439E+00
        -11   -1    0    0    0    0  0.00000000000E+00  0.00000000000E+00  0.45593999997E+02  0.45594000000E+02  0.51100000000E-03 0.  1.
         11   -1    0    0    0    0 -0.00000000000E+00 -0.00000000000E+00 -0.45593999997E+02  0.45594000000E+02  0.51100000000E-03 0. -1.
    9900012    2    1    2    0    0 -0.20418208422E+02  0.28327399147E+02  0.20828348916E+02  0.50528869461E+02  0.30000029214E+02 0.  0.
         12    1    1    2    0    0  0.20418208422E+02 -0.28327399147E+02 -0.20828348916E+02  0.40659130539E+02  0.00000000000E+00 0. -1.
         11    1    3    3    0    0 -0.51101727027E+01  0.61741360553E+01  0.13748669521E+02  0.15914136324E+02  0.51100000000E-03 0. -1.
        -11    1    3    3    0    0 -0.11114519685E+02  0.13908918959E+02  0.14335993551E+02  0.22858505765E+02  0.51100000000E-03 0.  1.
         12    1    3    3    0    0 -0.41935160347E+01  0.82443441324E+01 -0.72563141560E+01  0.11756227373E+02  0.00000000000E+00 0. -1.
</event>
<event>
 7    1  0.5642630E-013  0.5052886E+02  0.7816164E-02  0.1300439E+00
        -11   -1    0    0    0    0  0.00000000000E+00  0.00000000000E+00  0.45593999997E+02  0.45594000000E+02  0.51100000000E-03 0.  1.
         11   -1    0    0    0    0 -0.00000000000E+00 -0.00000000000E+00 -0.45593999997E+02  0.45594000000E+02  0.51100000000E-03 0. -1.
    9900012    2    1    2    0    0  0.10757230601E+02 -0.39166515130E+02  0.18525473123E+01  0.50528857741E+02  0.29999993591E+02 0.  0.
         12    1    1    2    0    0 -0.10757230601E+02  0.39166515130E+02 -0.18525473123E+01  0.40659142259E+02  0.00000000000E+00 0. -1.
         11    1    3    3    0    0 -0.68172268632E+01 -0.52919849988E+01 -0.23474063065E+01  0.89437130970E+01  0.51100000000E-03 0.  1.
        -11    1    3    3    0    0  0.18702583711E+01  0.11921621527E+01 -0.15897330580E+01  0.27288034795E+01  0.51100000000E-03 0. -1.
        -12    1    3    3    0    0  0.15704199093E+02 -0.35066692284E+02  0.57896866769E+01  0.38856341165E+02  0.00000000000E+00 0.  1.
</event>
<event>
 7    1  0.5642630E-013  0.5052886E+02  0.7816164E-02  0.1300439E+00
        -11   -1    0    0    0    0  0.00000000000E+00  0.00000000000E+00  0.45593999997E+02  0.45594000000E+02  0.51100000000E-03 0.  1.
         11   -1    0    0    0    0 -0.00000000000E+00 -0.00000000000E+00 -0.45593999997E+02  0.45594000000E+02  0.51100000000E-03 0. -1.
    9900012    2    1    2    0    0 -0.69622250437E+01  0.15823280696E+02  0.36801046866E+02  0.50528857855E+02  0.29999993935E+02 0.  0.
         12    1    1    2    0    0  0.69622250437E+01 -0.15823280696E+02 -0.36801046866E+02  0.40659142145E+02  0.00000000000E+00 0. -1.
         11    1    3    3    0    0 -0.74478291741E+00 -0.34021264485E+01  0.19519471454E+02  0.19827731390E+02  0.51100000000E-03 0. -1.
        -11    1    3    3    0    0  0.16642370878E+01  0.33765095752E+01 -0.22153794820E+01  0.43678837560E+01  0.51100000000E-03 0.  1.
        -12    1    3    3    0    0 -0.78816792141E+01  0.15848897570E+02  0.19496954894E+02  0.26333242709E+02  0.00000000000E+00 0.  1.
</event>
<event>
 7    1  0.5642630E-013  0.5052887E+02  0.7816164E-02  0.1300439E+00
        -11   -1    0    0    0    0  0.00000000000E+00  0.00000000000E+00  0.45593999997E+02  0.45594000000E+02  0.51100000000E-03 0. -1.
         11   -1    0    0    0    0 -0.00000000000E+00 -0.00000000000E+00 -0.45593999997E+02  0.45594000000E+02  0.51100000000E-03 0.  1.
    9900012    2    1    2    0    0 -0.29025437816E+02 -0.13058977806E+02 -0.25301226928E+02  0.50528867867E+02  0.30000024368E+02 0.  0.
         12    1    1    2    0    0  0.29025437816E+02  0.13058977806E+02  0.25301226928E+02  0.40659132133E+02  0.00000000000E+00 0. -1.
         11    1    3    3    0    0 -0.14322993211E+02 -0.31283802032E+01 -0.16853284515E+02  0.22337593792E+02  0.51100000000E-03 0. -1.
        -11    1    3    3    0    0 -0.51404128083E+01 -0.21066258435E+01 -0.13686915486E+02  0.14771370013E+02  0.51100000000E-03 0.  1.
         12    1    3    3    0    0 -0.95620317967E+01 -0.78239717592E+01  0.52389730728E+01  0.13419904062E+02  0.00000000000E+00 0. -1.
</event>
<event>
 7    1  0.5642630E-013  0.5052886E+02  0.7816164E-02  0.1300439E+00
        -11   -1    0    0    0    0  0.00000000000E+00  0.00000000000E+00  0.45593999997E+02  0.45594000000E+02  0.51100000000E-03 0.  1.
         11   -1    0    0    0    0 -0.00000000000E+00 -0.00000000000E+00 -0.45593999997E+02  0.45594000000E+02  0.51100000000E-03 0. -1.
    9900012    2    1    2    0    0 -0.37823052705E+02 -0.13573619751E+02 -0.61918628877E+01  0.50528860374E+02  0.30000001594E+02 0.  0.
         12    1    1    2    0    0  0.37823052705E+02  0.13573619751E+02  0.61918628877E+01  0.40659139626E+02  0.00000000000E+00 0. -1.
         11    1    3    3    0    0  0.68771683136E+00 -0.37467106576E+01 -0.21958618622E+01  0.43968858037E+01  0.51100000000E-03 0. -1.
        -11    1    3    3    0    0 -0.44884011876E+01  0.20018815234E+01 -0.85130653322E+01  0.98298299307E+01  0.51100000000E-03 0.  1.
        -12    1    3    3    0    0 -0.34022368349E+02 -0.11828790617E+02  0.45170643068E+01  0.36302144640E+02  0.00000000000E+00 0.  1.
</event>
<event>
 7    1  0.5642630E-013  0.5052885E+02  0.7816164E-02  0.1300439E+00
        -11   -1    0    0    0    0  0.00000000000E+00  0.00000000000E+00  0.45593999997E+02  0.45594000000E+02  0.51100000000E-03 0.  1.
         11   -1    0    0    0    0 -0.00000000000E+00 -0.00000000000E+00 -0.45593999997E+02  0.45594000000E+02  0.51100000000E-03 0. -1.
    9900012    2    1    2    0    0 -0.88077731077E+01  0.32527004432E+02  0.22750459734E+02  0.50528852167E+02  0.29999976646E+02 0.  0.
         12    1    1    2    0    0  0.88077731077E+01 -0.32527004432E+02 -0.22750459734E+02  0.40659147833E+02  0.00000000000E+00 0. -1.
         11    1    3    3    0    0  0.16354490907E+00 -0.34232611922E+00 -0.25823209741E+00  0.45893157054E+00  0.51100000000E-03 0. -1.
        -11    1    3    3    0    0 -0.48910861181E+01  0.37745776307E+02  0.20533208141E+02  0.43246722295E+02  0.51100000000E-03 0.  1.
        -12    1    3    3    0    0 -0.40802318987E+01 -0.48764457560E+01  0.24754836900E+01  0.68231983012E+01  0.00000000000E+00 0.  1.
</event>
<event>
 7    1  0.5642630E-013  0.5052886E+02  0.7816164E-02  0.1300439E+00
        -11   -1    0    0    0    0  0.00000000000E+00  0.00000000000E+00  0.45593999997E+02  0.45594000000E+02  0.51100000000E-03 0.  1.
         11   -1    0    0    0    0 -0.00000000000E+00 -0.00000000000E+00 -0.45593999997E+02  0.45594000000E+02  0.51100000000E-03 0. -1.
    9900012    2    1    2    0    0 -0.30499360321E+02  0.44242276620E+01  0.26521329801E+02  0.50528859517E+02  0.29999998988E+02 0.  0.
         12    1    1    2    0    0  0.30499360321E+02 -0.44242276620E+01 -0.26521329801E+02  0.40659140483E+02  0.00000000000E+00 0. -1.
         11    1    3    3    0    0  0.25191077596E+00 -0.76193402808E+01  0.75536874774E+01  0.10732008205E+02  0.51100000000E-03 0. -1.
        -11    1    3    3    0    0 -0.40425189898E+01  0.60609416106E+01  0.63230094200E+01  0.96466274613E+01  0.51100000000E-03 0.  1.
        -12    1    3    3    0    0 -0.26708752108E+02  0.59826263322E+01  0.12644632903E+02  0.30150223850E+02  0.00000000000E+00 0.  1.
</event>
<event>
 7    1  0.5642630E-013  0.5052881E+02  0.7816164E-02  0.1300439E+00
        -11   -1    0    0    0    0  0.00000000000E+00  0.00000000000E+00  0.45593999997E+02  0.45594000000E+02  0.51100000000E-03 0.  1.
         11   -1    0    0    0    0 -0.00000000000E+00 -0.00000000000E+00 -0.45593999997E+02  0.45594000000E+02  0.51100000000E-03 0. -1.
    9900012    2    1    2    0    0  0.25760493390E+02 -0.15913672329E+02  0.27135253974E+02  0.50528806760E+02  0.29999838627E+02 0.  0.
         12    1    1    2    0    0 -0.25760493390E+02  0.15913672329E+02 -0.27135253974E+02  0.40659193240E+02  0.00000000000E+00 0. -1.
         11    1    3    3    0    0  0.44454388841E+01 -0.68543076738E+01  0.91888469344E+01  0.12295461309E+02  0.51100000000E-03 0. -1.
        -11    1    3    3    0    0  0.13158811476E+02 -0.17179331780E+02  0.15070229396E+02  0.26370354078E+02  0.51100000000E-03 0.  1.
         12    1    3    3    0    0  0.81562430302E+01  0.81199671251E+01  0.28761776437E+01  0.11862991373E+02  0.00000000000E+00 0. -1.
</event>
<event>
 7    1  0.5820587E-013  0.5052888E+02  0.7816164E-02  0.1300439E+00
        -11   -1    0    0    0    0  0.00000000000E+00  0.00000000000E+00  0.45593999997E+02  0.45594000000E+02  0.51100000000E-03 0.  1.
         11   -1    0    0    0    0 -0.00000000000E+00 -0.00000000000E+00 -0.45593999997E+02  0.45594000000E+02  0.51100000000E-03 0. -1.
    9900012    2    1    2    0    0 -0.25482491553E+02  0.27140768957E+02  0.16345811256E+02  0.50528877273E+02  0.30000052959E+02 0.  0.
         12    1    1    2    0    0  0.25482491553E+02 -0.27140768957E+02 -0.16345811256E+02  0.40659122727E+02  0.00000000000E+00 0. -1.
         11    1    3    3    0    0  0.32729070553E+01  0.15578773118E+01 -0.19504733011E+01  0.41162177628E+01  0.51100000000E-03 0. -1.
        -11    1    3    3    0    0 -0.40049361591E+01  0.29427156003E+01 -0.37907306157E+01  0.62504981885E+01  0.51100000000E-03 0.  1.
        -12    1    3    3    0    0 -0.24750462449E+02  0.22640176045E+02  0.22087015173E+02  0.40162161322E+02  0.00000000000E+00 0.  1.
</event>
<event>
 7    1  0.5642630E-013  0.5052886E+02  0.7816164E-02  0.1300439E+00
        -11   -1    0    0    0    0  0.00000000000E+00  0.00000000000E+00  0.45593999997E+02  0.45594000000E+02  0.51100000000E-03 0.  1.
         11   -1    0    0    0    0 -0.00000000000E+00 -0.00000000000E+00 -0.45593999997E+02  0.45594000000E+02  0.51100000000E-03 0. -1.
    9900012    2    1    2    0    0 -0.12343798095E+02 -0.36003519610E+02  0.14301860162E+02  0.50528856135E+02  0.29999988709E+02 0.  0.
         12    1    1    2    0    0  0.12343798095E+02  0.36003519610E+02 -0.14301860162E+02  0.40659143865E+02  0.00000000000E+00 0. -1.
         11    1    3    3    0    0  0.14450346959E+00 -0.18163991590E+02  0.11946976158E+01  0.18203812084E+02  0.51100000000E-03 0. -1.
        -11    1    3    3    0    0 -0.12768724478E+02 -0.97527014186E+01 -0.96084953634E+00  0.16095923143E+02  0.51100000000E-03 0.  1.
         12    1    3    3    0    0  0.28042291291E+00 -0.80868266015E+01  0.14068012082E+02  0.16229120908E+02  0.00000000000E+00 0. -1.
</event>
<event>
 7    1  0.5642630E-013  0.5052887E+02  0.7816164E-02  0.1300439E+00
        -11   -1    0    0    0    0  0.00000000000E+00  0.00000000000E+00  0.45593999997E+02  0.45594000000E+02  0.51100000000E-03 0.  1.
         11   -1    0    0    0    0 -0.00000000000E+00 -0.00000000000E+00 -0.45593999997E+02  0.45594000000E+02  0.51100000000E-03 0. -1.
    9900012    2    1    2    0    0  0.16236658147E+02  0.11701213485E+02  0.35392338467E+02  0.50528867115E+02  0.30000022083E+02 0.  0.
         12    1    1    2    0    0 -0.16236658147E+02 -0.11701213485E+02 -0.35392338467E+02  0.40659132885E+02  0.00000000000E+00 0. -1.
         11    1    3    3    0    0 -0.50813941285E+01  0.20919415781E+01  0.26225725774E+01  0.60888975226E+01  0.51100000000E-03 0. -1.
        -11    1    3    3    0    0  0.24850031910E+00  0.71806687487E+01  0.27704909820E+01  0.77006088480E+01  0.51100000000E-03 0.  1.
        -12    1    3    3    0    0  0.21069551956E+02  0.24286031586E+01  0.29999274908E+02  0.36739360744E+02  0.00000000000E+00 0.  1.
</event>
<event>
 7    1  0.5819408E-013  0.5052887E+02  0.7816164E-02  0.1300439E+00
        -11   -1    0    0    0    0  0.00000000000E+00  0.00000000000E+00  0.45593999997E+02  0.45594000000E+02  0.51100000000E-03 0.  1.
         11   -1    0    0    0    0 -0.00000000000E+00 -0.00000000000E+00 -0.45593999997E+02  0.45594000000E+02  0.51100000000E-03 0. -1.
    9900012    2    1    2    0    0  0.10696484362E+02 -0.38916333288E+02  0.49263604517E+01  0.50528870624E+02  0.30000032750E+02 0.  0.
         12    1    1    2    0    0 -0.10696484362E+02  0.38916333288E+02 -0.49263604517E+01  0.40659129376E+02  0.00000000000E+00 0. -1.
         11    1    3    3    0    0  0.25995704400E+00  0.18161752049E+01  0.53852773915E+01  0.56892251568E+01  0.51100000000E-03 0. -1.
        -11    1    3    3    0    0 -0.36201981257E+00 -0.80306115715E+01  0.57000624274E+01  0.98545670881E+01  0.51100000000E-03 0.  1.
        -12    1    3    3    0    0  0.10798547131E+02 -0.32701896921E+02 -0.61589793672E+01  0.34985078380E+02  0.00000000000E+00 0.  1.
</event>
<event>
 7    1  0.5642630E-013  0.5052887E+02  0.7816164E-02  0.1300439E+00
        -11   -1    0    0    0    0  0.00000000000E+00  0.00000000000E+00  0.45593999997E+02  0.45594000000E+02  0.51100000000E-03 0.  1.
         11   -1    0    0    0    0 -0.00000000000E+00 -0.00000000000E+00 -0.45593999997E+02  0.45594000000E+02  0.51100000000E-03 0. -1.
    9900012    2    1    2    0    0 -0.23481812749E+02  0.33031466342E+02  0.32697989329E+01  0.50528869614E+02  0.30000029678E+02 0.  0.
         12    1    1    2    0    0  0.23481812749E+02 -0.33031466342E+02 -0.32697989329E+01  0.40659130386E+02  0.00000000000E+00 0. -1.
         11    1    3    3    0    0  0.22704838242E+01  0.52074503584E+01 -0.12602301628E+01  0.58190047564E+01  0.51100000000E-03 0. -1.
        -11    1    3    3    0    0 -0.97029249838E+00  0.15927896283E+01  0.82259562349E+01  0.84347378485E+01  0.51100000000E-03 0.  1.
         12    1    3    3    0    0 -0.24782004075E+02  0.26231226355E+02 -0.36959271392E+01  0.36275127009E+02  0.00000000000E+00 0. -1.
</event>
<event>
 7    1  0.5642630E-013  0.5052886E+02  0.7816164E-02  0.1300439E+00
        -11   -1    0    0    0    0  0.00000000000E+00  0.00000000000E+00  0.45593999997E+02  0.45594000000E+02  0.51100000000E-03 0.  1.
         11   -1    0    0    0    0 -0.00000000000E+00 -0.00000000000E+00 -0.45593999997E+02  0.45594000000E+02  0.51100000000E-03 0. -1.
    9900012    2    1    2    0    0  0.12264838764E+02  0.38765117461E+02  0.72072176174E-01  0.50528858395E+02  0.29999995578E+02 0.  0.
         12    1    1    2    0    0 -0.12264838764E+02 -0.38765117461E+02 -0.72072176174E-01  0.40659141605E+02  0.00000000000E+00 0. -1.
         11    1    3    3    0    0  0.45072782234E+01  0.33976167964E+01  0.87413829674E+01  0.10405341576E+02  0.51100000000E-03 0. -1.
        -11    1    3    3    0    0  0.11965984696E+02  0.20633585303E+02 -0.51953586841E+01  0.24411501067E+02  0.51100000000E-03 0.  1.
         12    1    3    3    0    0 -0.42084241560E+01  0.14733915361E+02 -0.34739521072E+01  0.15712015752E+02  0.00000000000E+00 0. -1.
</event>
<event>
 7    1  0.5642630E-013  0.5052886E+02  0.7816164E-02  0.1300439E+00
        -11   -1    0    0    0    0  0.00000000000E+00  0.00000000000E+00  0.45593999997E+02  0.45594000000E+02  0.51100000000E-03 0.  1.
         11   -1    0    0    0    0 -0.00000000000E+00 -0.00000000000E+00 -0.45593999997E+02  0.45594000000E+02  0.51100000000E-03 0. -1.
    9900012    2    1    2    0    0  0.11082928116E+02 -0.39107856601E+02 -0.95408035069E+00  0.50528855729E+02  0.29999987472E+02 0.  0.
         12    1    1    2    0    0 -0.11082928116E+02  0.39107856601E+02  0.95408035069E+00  0.40659144271E+02  0.00000000000E+00 0. -1.
         11    1    3    3    0    0  0.23177218525E+01 -0.99214659389E+00 -0.21447351530E+01  0.33099967654E+01  0.51100000000E-03 0. -1.
        -11    1    3    3    0    0  0.11400683698E+02 -0.27489171013E+01  0.74807704639E+00  0.11751244766E+02  0.51100000000E-03 0.  1.
        -12    1    3    3    0    0 -0.26354774347E+01 -0.35366792906E+02  0.44257775588E+00  0.35467614197E+02  0.00000000000E+00 0.  1.
</event>
<event>
 7    1  0.5642630E-013  0.5052887E+02  0.7816164E-02  0.1300439E+00
        -11   -1    0    0    0    0  0.00000000000E+00  0.00000000000E+00  0.45593999997E+02  0.45594000000E+02  0.51100000000E-03 0.  1.
         11   -1    0    0    0    0 -0.00000000000E+00 -0.00000000000E+00 -0.45593999997E+02  0.45594000000E+02  0.51100000000E-03 0. -1.
    9900012    2    1    2    0    0 -0.11522816452E+02  0.37391317519E+02  0.11057965333E+02  0.50528874061E+02  0.30000043197E+02 0.  0.
         12    1    1    2    0    0  0.11522816452E+02 -0.37391317519E+02 -0.11057965333E+02  0.40659125939E+02  0.00000000000E+00 0. -1.
         11    1    3    3    0    0  0.19148577498E+01  0.17849818157E+01 -0.13155961056E+01  0.29297838928E+01  0.51100000000E-03 0. -1.
        -11    1    3    3    0    0  0.24542463860E+01  0.27125278940E+02  0.33174399945E+01  0.27437373986E+02  0.51100000000E-03 0.  1.
         12    1    3    3    0    0 -0.15891920588E+02  0.84810567632E+01  0.90561214439E+01  0.20161716182E+02  0.00000000000E+00 0. -1.
</event>
<event>
 7    1  0.5642630E-013  0.5052897E+02  0.7816164E-02  0.1300438E+00
        -11   -1    0    0    0    0  0.00000000000E+00  0.00000000000E+00  0.45593999997E+02  0.45594000000E+02  0.51100000000E-03 0. -1.
         11   -1    0    0    0    0 -0.00000000000E+00 -0.00000000000E+00 -0.45593999997E+02  0.45594000000E+02  0.51100000000E-03 0.  1.
    9900012    2    1    2    0    0 -0.18312020572E+02 -0.17252632355E+02 -0.31940150556E+02  0.50528971013E+02  0.30000337890E+02 0.  0.
         12    1    1    2    0    0  0.18312020572E+02  0.17252632355E+02  0.31940150556E+02  0.40659028987E+02  0.00000000000E+00 0. -1.
         11    1    3    3    0    0 -0.49483407041E+01 -0.61723217175E+00  0.15049588682E+01  0.52088341050E+01  0.51100000000E-03 0. -1.
        -11    1    3    3    0    0 -0.14691910414E+02 -0.37383880404E+01 -0.89485413698E+01  0.17604095253E+02  0.51100000000E-03 0.  1.
        -12    1    3    3    0    0  0.13282305461E+01 -0.12897012143E+02 -0.24496568054E+02  0.27716041655E+02  0.00000000000E+00 0.  1.
</event>
<event>
 7    1  0.5642630E-013  0.5052881E+02  0.7816164E-02  0.1300439E+00
        -11   -1    0    0    0    0  0.00000000000E+00  0.00000000000E+00  0.45593999997E+02  0.45594000000E+02  0.51100000000E-03 0.  1.
         11   -1    0    0    0    0 -0.00000000000E+00 -0.00000000000E+00 -0.45593999997E+02  0.45594000000E+02  0.51100000000E-03 0. -1.
    9900012    2    1    2    0    0  0.31597309522E+02  0.12063630744E+02  0.22566536986E+02  0.50528809806E+02  0.29999847885E+02 0.  0.
         12    1    1    2    0    0 -0.31597309522E+02 -0.12063630744E+02 -0.22566536986E+02  0.40659190194E+02  0.00000000000E+00 0. -1.
         11    1    3    3    0    0  0.27505849406E+01 -0.14321153250E+01 -0.74229731085E-01  0.31019642380E+01  0.51100000000E-03 0. -1.
        -11    1    3    3    0    0  0.27876526600E+02  0.56364829129E+01  0.60989531860E+01  0.29087246435E+02  0.51100000000E-03 0.  1.
         12    1    3    3    0    0  0.97019798056E+00  0.78592631558E+01  0.16541813531E+02  0.18339599133E+02  0.00000000000E+00 0. -1.
</event>
<event>
 7    1  0.5642630E-013  0.5052886E+02  0.7816164E-02  0.1300439E+00
        -11   -1    0    0    0    0  0.00000000000E+00  0.00000000000E+00  0.45593999997E+02  0.45594000000E+02  0.51100000000E-03 0. -1.
         11   -1    0    0    0    0 -0.00000000000E+00 -0.00000000000E+00 -0.45593999997E+02  0.45594000000E+02  0.51100000000E-03 0.  1.
    9900012    2    1    2    0    0 -0.31500850142E+02  0.15725139329E+02 -0.20336715644E+02  0.50528861178E+02  0.30000004035E+02 0.  0.
         12    1    1    2    0    0  0.31500850142E+02 -0.15725139329E+02  0.20336715644E+02  0.40659138822E+02  0.00000000000E+00 0. -1.
         11    1    3    3    0    0 -0.38462710221E+01  0.13844347710E+02  0.17213615400E+00  0.14369738878E+02  0.51100000000E-03 0. -1.
        -11    1    3    3    0    0 -0.30526805249E+01  0.40579052121E+01 -0.32665556603E+01  0.60378671101E+01  0.51100000000E-03 0.  1.
        -12    1    3    3    0    0 -0.24601898595E+02 -0.21771135936E+01 -0.17242296138E+02  0.30121255190E+02  0.00000000000E+00 0.  1.
</event>
<event>
 7    1  0.5642630E-013  0.5052886E+02  0.7816164E-02  0.1300439E+00
        -11   -1    0    0    0    0  0.00000000000E+00  0.00000000000E+00  0.45593999997E+02  0.45594000000E+02  0.51100000000E-03 0. -1.
         11   -1    0    0    0    0 -0.00000000000E+00 -0.00000000000E+00 -0.45593999997E+02  0.45594000000E+02  0.51100000000E-03 0.  1.
    9900012    2    1    2    0    0 -0.10845061580E+02 -0.39182436178E+02 -0.53594196209E+00  0.50528857125E+02  0.29999991719E+02 0.  0.
         12    1    1    2    0    0  0.10845061580E+02  0.39182436178E+02  0.53594196209E+00  0.40659142875E+02  0.00000000000E+00 0. -1.
         11    1    3    3    0    0 -0.10889493169E+02 -0.22488811910E+02  0.13295076495E+02  0.28303476498E+02  0.51100000000E-03 0. -1.
        -11    1    3    3    0    0 -0.14374132242E+01 -0.23095262296E+01 -0.10160955580E+01  0.29038799263E+01  0.51100000000E-03 0.  1.
         12    1    3    3    0    0  0.14818448127E+01 -0.14384098038E+02 -0.12814922899E+02  0.19321500701E+02  0.00000000000E+00 0. -1.
</event>
<event>
 7    1  0.5642630E-013  0.5052881E+02  0.7816164E-02  0.1300439E+00
        -11   -1    0    0    0    0  0.00000000000E+00  0.00000000000E+00  0.45593999997E+02  0.45594000000E+02  0.51100000000E-03 0. -1.
         11   -1    0    0    0    0 -0.00000000000E+00 -0.00000000000E+00 -0.45593999997E+02  0.45594000000E+02  0.51100000000E-03 0.  1.
    9900012    2    1    2    0    0  0.38472145363E+02  0.10239769854E+02 -0.82590099855E+01  0.50528805450E+02  0.29999834646E+02 0.  0.
         12    1    1    2    0    0 -0.38472145363E+02 -0.10239769854E+02  0.82590099855E+01  0.40659194550E+02  0.00000000000E+00 0. -1.
         11    1    3    3    0    0  0.13413410940E+02  0.87924479762E+01 -0.93521036244E+01  0.18565790501E+02  0.51100000000E-03 0. -1.
        -11    1    3    3    0    0  0.43506863739E+01  0.29681055320E+01 -0.77699528253E+01  0.93867081313E+01  0.51100000000E-03 0.  1.
         12    1    3    3    0    0  0.20708048049E+02 -0.15207836546E+01  0.88630464641E+01  0.22576306818E+02  0.00000000000E+00 0. -1.
</event>
<event>
 7    1  0.5642630E-013  0.5052887E+02  0.7816164E-02  0.1300439E+00
        -11   -1    0    0    0    0  0.00000000000E+00  0.00000000000E+00  0.45593999997E+02  0.45594000000E+02  0.51100000000E-03 0. -1.
         11   -1    0    0    0    0 -0.00000000000E+00 -0.00000000000E+00 -0.45593999997E+02  0.45594000000E+02  0.51100000000E-03 0.  1.
    9900012    2    1    2    0    0 -0.10328639431E+02 -0.35522786002E+02 -0.16870565408E+02  0.50528867016E+02  0.30000021781E+02 0.  0.
         12    1    1    2    0    0  0.10328639431E+02  0.35522786002E+02  0.16870565408E+02  0.40659132984E+02  0.00000000000E+00 0. -1.
         11    1    3    3    0    0 -0.66532166944E+01 -0.46375729030E+01 -0.29823551142E+01  0.86409963026E+01  0.51100000000E-03 0. -1.
        -11    1    3    3    0    0 -0.11140317755E+02 -0.66356026336E+01 -0.96504450878E+01  0.16163817391E+02  0.51100000000E-03 0.  1.
        -12    1    3    3    0    0  0.74648950189E+01 -0.24249610465E+02 -0.42377652064E+01  0.25724053322E+02  0.00000000000E+00 0.  1.
</event>
<event>
 7    1  0.5642630E-013  0.5052886E+02  0.7816164E-02  0.1300439E+00
        -11   -1    0    0    0    0  0.00000000000E+00  0.00000000000E+00  0.45593999997E+02  0.45594000000E+02  0.51100000000E-03 0. -1.
         11   -1    0    0    0    0 -0.00000000000E+00 -0.00000000000E+00 -0.45593999997E+02  0.45594000000E+02  0.51100000000E-03 0.  1.
    9900012    2    1    2    0    0  0.17975723334E+01 -0.38649184359E+02  0.12497009288E+02  0.50528856391E+02  0.29999989485E+02 0.  0.
         12    1    1    2    0    0 -0.17975723334E+01  0.38649184359E+02 -0.12497009288E+02  0.40659143609E+02  0.00000000000E+00 0. -1.
         11    1    3    3    0    0 -0.26477253782E-01 -0.20296376654E+02  0.13017129095E+02  0.24112014774E+02  0.51100000000E-03 0. -1.
        -11    1    3    3    0    0 -0.45981143697E+01 -0.14216177759E+02  0.62629942574E+01  0.16200847606E+02  0.51100000000E-03 0.  1.
         12    1    3    3    0    0  0.64221639568E+01 -0.41366299462E+01 -0.67831140651E+01  0.10215994010E+02  0.00000000000E+00 0. -1.
</event>
<event>
 7    1  0.5642630E-013  0.5052886E+02  0.7816164E-02  0.1300439E+00
        -11   -1    0    0    0    0  0.00000000000E+00  0.00000000000E+00  0.45593999997E+02  0.45594000000E+02  0.51100000000E-03 0. -1.
         11   -1    0    0    0    0 -0.00000000000E+00 -0.00000000000E+00 -0.45593999997E+02  0.45594000000E+02  0.51100000000E-03 0.  1.
    9900012    2    1    2    0    0  0.12364157163E+02  0.22225823012E+02 -0.31722330949E+02  0.50528857464E+02  0.29999992748E+02 0.  0.
         12    1    1    2    0    0 -0.12364157163E+02 -0.22225823012E+02  0.31722330949E+02  0.40659142536E+02  0.00000000000E+00 0. -1.
         11    1    3    3    0    0  0.19869980581E+01 -0.43535405592E+01 -0.54372878609E+01  0.72433125175E+01  0.51100000000E-03 0. -1.
        -11    1    3    3    0    0  0.13496351216E+02  0.20689534838E+02 -0.26984962759E+02  0.36584102603E+02  0.51100000000E-03 0.  1.
         12    1    3    3    0    0 -0.31191921115E+01  0.58898287333E+01  0.69991967023E+00  0.67014423433E+01  0.00000000000E+00 0. -1.
</event>
<event>
 7    1  0.5642630E-013  0.5052891E+02  0.7816164E-02  0.1300439E+00
        -11   -1    0    0    0    0  0.00000000000E+00  0.00000000000E+00  0.45593999997E+02  0.45594000000E+02  0.51100000000E-03 0.  1.
         11   -1    0    0    0    0 -0.00000000000E+00 -0.00000000000E+00 -0.45593999997E+02  0.45594000000E+02  0.51100000000E-03 0. -1.
    9900012    2    1    2    0    0  0.15689878902E+02  0.15553860470E+02  0.34133075465E+02  0.50528908567E+02  0.30000148080E+02 0.  0.
         12    1    1    2    0    0 -0.15689878902E+02 -0.15553860470E+02 -0.34133075465E+02  0.40659091433E+02  0.00000000000E+00 0. -1.
         11    1    3    3    0    0  0.43256573865E+01  0.78049462266E+01  0.19388482007E+01  0.91316827601E+01  0.51100000000E-03 0. -1.
        -11    1    3    3    0    0  0.30791895154E+01  0.10998781180E+02  0.30184935302E+02  0.32273594702E+02  0.51100000000E-03 0.  1.
         12    1    3    3    0    0  0.82850319999E+01 -0.32498669374E+01  0.20092919616E+01  0.91236311048E+01  0.00000000000E+00 0. -1.
</event>
<event>
 7    1  0.5642630E-013  0.5052885E+02  0.7816164E-02  0.1300439E+00
        -11   -1    0    0    0    0  0.00000000000E+00  0.00000000000E+00  0.45593999997E+02  0.45594000000E+02  0.51100000000E-03 0.  1.
         11   -1    0    0    0    0 -0.00000000000E+00 -0.00000000000E+00 -0.45593999997E+02  0.45594000000E+02  0.51100000000E-03 0. -1.
    9900012    2    1    2    0    0 -0.27371871923E+02 -0.72762120101E+01  0.29171966764E+02  0.50528852460E+02  0.29999977537E+02 0.  0.
         12    1    1    2    0    0  0.27371871923E+02  0.72762120101E+01 -0.29171966764E+02  0.40659147540E+02  0.00000000000E+00 0. -1.
         11    1    3    3    0    0 -0.32235050627E+01  0.43753634724E+01  0.96645122518E+00  0.55198567587E+01  0.51100000000E-03 0. -1.
        -11    1    3    3    0    0 -0.16617195049E+02  0.45148120835E+01  0.13078908981E+02  0.21623426182E+02  0.51100000000E-03 0.  1.
        -12    1    3    3    0    0 -0.75311718118E+01 -0.16166387566E+02  0.15126606558E+02  0.23385569520E+02  0.00000000000E+00 0.  1.
</event>
<event>
 7    1  0.5642630E-013  0.5052886E+02  0.7816164E-02  0.1300439E+00
        -11   -1    0    0    0    0  0.00000000000E+00  0.00000000000E+00  0.45593999997E+02  0.45594000000E+02  0.51100000000E-03 0.  1.
         11   -1    0    0    0    0 -0.00000000000E+00 -0.00000000000E+00 -0.45593999997E+02  0.45594000000E+02  0.51100000000E-03 0. -1.
    9900012    2    1    2    0    0 -0.31914102113E+02 -0.11151859811E+02  0.22589641488E+02  0.50528858426E+02  0.29999995673E+02 0.  0.
         12    1    1    2    0    0  0.31914102113E+02  0.11151859811E+02 -0.22589641488E+02  0.40659141574E+02  0.00000000000E+00 0. -1.
         11    1    3    3    0    0 -0.19699451122E+02  0.42097059777E+01  0.11620465608E+02  0.23255649209E+02  0.51100000000E-03 0. -1.
        -11    1    3    3    0    0 -0.29098502250E+01  0.25229111139E+01 -0.79379723991E+00  0.39322287751E+01  0.51100000000E-03 0.  1.
        -12    1    3    3    0    0 -0.93048007659E+01 -0.17884476902E+02  0.11762973120E+02  0.23340980442E+02  0.00000000000E+00 0.  1.
</event>
