<event>
 7    1  0.4346085E-013  0.5930205E+02  0.7816164E-02  0.1266604E+00
        -11   -1    0    0    0    0  0.00000000000E+00  0.00000000000E+00  0.45593999997E+02  0.45594000000E+02  0.51100000000E-03 0.  1.
         11   -1    0    0    0    0 -0.00000000000E+00 -0.00000000000E+00 -0.45593999997E+02  0.45594000000E+02  0.51100000000E-03 0. -1.
    9900012    2    1    2    0    0 -0.18038089840E+02  0.81066238930E+01 -0.25012466819E+02  0.59302054312E+02  0.50000201132E+02 0.  0.
         12    1    1    2    0    0  0.18038089840E+02 -0.81066238930E+01  0.25012466819E+02  0.31885945688E+02  0.00000000000E+00 0. -1.
         11    1    3    3    0    0 -0.93930125707E+01 -0.33152489169E+01 -0.37560434708E+01  0.10645535372E+02  0.51100000000E-03 0. -1.
        -11    1    3    3    0    0  0.15385129368E+02 -0.70527243476E+00 -0.19338079509E+01  0.15522217249E+02  0.51100000000E-03 0.  1.
        -12    1    3    3    0    0 -0.24030206637E+02  0.12127145245E+02 -0.19322615397E+02  0.33134301692E+02  0.00000000000E+00 0.  1.
</event>
<event>
 7    1  0.4346085E-013  0.5930193E+02  0.7816164E-02  0.1266605E+00
        -11   -1    0    0    0    0  0.00000000000E+00  0.00000000000E+00  0.45593999997E+02  0.45594000000E+02  0.51100000000E-03 0. -1.
         11   -1    0    0    0    0 -0.00000000000E+00 -0.00000000000E+00 -0.45593999997E+02  0.45594000000E+02  0.51100000000E-03 0.  1.
    9900012    2    1    2    0    0 -0.22370279335E+02 -0.22717389007E+02  0.46050837746E+00  0.59301933627E+02  0.49999981031E+02 0.  0.
         12    1    1    2    0    0  0.22370279335E+02  0.22717389007E+02 -0.46050837746E+00  0.31886066373E+02  0.00000000000E+00 0. -1.
         11    1    3    3    0    0 -0.61165484096E+01 -0.40680606717E+01  0.16168702775E+02  0.17759173172E+02  0.51100000000E-03 0. -1.
        -11    1    3    3    0    0 -0.10403205031E+02 -0.26478984105E+02 -0.96400022571E+01  0.30038190990E+02  0.51100000000E-03 0.  1.
         12    1    3    3    0    0 -0.58505258940E+01  0.78296557701E+01 -0.60681921407E+01  0.11504569465E+02  0.00000000000E+00 0. -1.
</event>
<event>
 7    1  0.4346085E-013  0.5930195E+02  0.7816164E-02  0.1266605E+00
        -11   -1    0    0    0    0  0.00000000000E+00  0.00000000000E+00  0.45593999997E+02  0.45594000000E+02  0.51100000000E-03 0.  1.
         11   -1    0    0    0    0 -0.00000000000E+00 -0.00000000000E+00 -0.45593999997E+02  0.45594000000E+02  0.51100000000E-03 0. -1.
    9900012    2    1    2    0    0 -0.69173490790E+01 -0.31060134090E+02 -0.20342886789E+01  0.59301953234E+02  0.50000016790E+02 0.  0.
         12    1    1    2    0    0  0.69173490790E+01  0.31060134090E+02  0.20342886789E+01  0.31886046766E+02  0.00000000000E+00 0. -1.
         11    1    3    3    0    0 -0.15766477045E+02 -0.33518810829E+02 -0.15454142062E+02  0.40136305073E+02  0.51100000000E-03 0. -1.
        -11    1    3    3    0    0  0.74993802571E+01  0.60516503708E+01  0.11019484954E+02  0.14638723488E+02  0.51100000000E-03 0.  1.
         12    1    3    3    0    0  0.13497477093E+01 -0.35929736317E+01  0.24003684289E+01  0.45269246725E+01  0.00000000000E+00 0. -1.
</event>
<event>
 7    1  0.4346085E-013  0.5930197E+02  0.7816164E-02  0.1266605E+00
        -11   -1    0    0    0    0  0.00000000000E+00  0.00000000000E+00  0.45593999997E+02  0.45594000000E+02  0.51100000000E-03 0.  1.
         11   -1    0    0    0    0 -0.00000000000E+00 -0.00000000000E+00 -0.45593999997E+02  0.45594000000E+02  0.51100000000E-03 0. -1.
    9900012    2    1    2    0    0 -0.21023046994E+02 -0.75406362113E+01  0.22757179785E+02  0.59301969655E+02  0.50000046738E+02 0.  0.
         12    1    1    2    0    0  0.21023046994E+02  0.75406362113E+01 -0.22757179785E+02  0.31886030345E+02  0.00000000000E+00 0. -1.
         11    1    3    3    0    0 -0.81097609093E+01 -0.21989850061E+02  0.61975166427E+01  0.24243162758E+02  0.51100000000E-03 0.  1.
        -11    1    3    3    0    0 -0.37581836783E+01  0.19281048094E+02  0.14714245120E+02  0.24543670668E+02  0.51100000000E-03 0. -1.
         12    1    3    3    0    0 -0.91551024066E+01 -0.48318342438E+01  0.18454180224E+01  0.10515136229E+02  0.00000000000E+00 0. -1.
</event>
<event>
 7    1  0.4346085E-013  0.5930192E+02  0.7816164E-02  0.1266605E+00
        -11   -1    0    0    0    0  0.00000000000E+00  0.00000000000E+00  0.45593999997E+02  0.45594000000E+02  0.51100000000E-03 0.  1.
         11   -1    0    0    0    0 -0.00000000000E+00 -0.00000000000E+00 -0.45593999997E+02  0.45594000000E+02  0.51100000000E-03 0. -1.
    9900012    2    1    2    0    0 -0.32927785844E+01  0.25453061154E+02  0.18921454273E+02  0.59301919263E+02  0.49999954836E+02 0.  0.
         12    1    1    2    0    0  0.32927785844E+01 -0.25453061154E+02 -0.18921454273E+02  0.31886080737E+02  0.00000000000E+00 0. -1.
         11    1    3    3    0    0  0.11390897886E+02  0.20579547599E+01  0.13073902525E+02  0.17461805746E+02  0.51100000000E-03 0. -1.
        -11    1    3    3    0    0 -0.40512297686E+01  0.10140655748E+01 -0.11073890626E+02  0.11835195202E+02  0.51100000000E-03 0.  1.
        -12    1    3    3    0    0 -0.10632446702E+02  0.22381040819E+02  0.16921442374E+02  0.30004918315E+02  0.00000000000E+00 0.  1.
</event>
<event>
 7    1  0.4346085E-013  0.5930194E+02  0.7816164E-02  0.1266605E+00
        -11   -1    0    0    0    0  0.00000000000E+00  0.00000000000E+00  0.45593999997E+02  0.45594000000E+02  0.51100000000E-03 0.  1.
         11   -1    0    0    0    0 -0.00000000000E+00 -0.00000000000E+00 -0.45593999997E+02  0.45594000000E+02  0.51100000000E-03 0. -1.
    9900012    2    1    2    0    0  0.22632386655E+02  0.22460575843E+01  0.22348400047E+02  0.59301942153E+02  0.49999996581E+02 0.  0.
         12    1    1    2    0    0 -0.22632386655E+02 -0.22460575843E+01 -0.22348400047E+02  0.31886057847E+02  0.00000000000E+00 0. -1.
         11    1    3    3    0    0  0.45152418292E+01 -0.15329985973E+02  0.78074362374E+01  0.17786285154E+02  0.51100000000E-03 0. -1.
        -11    1    3    3    0    0  0.13535969918E+02  0.13177506947E+02  0.23738897296E+02  0.30338167644E+02  0.51100000000E-03 0.  1.
        -12    1    3    3    0    0  0.45811749078E+01  0.43985366111E+01 -0.91979334864E+01  0.11177489355E+02  0.00000000000E+00 0.  1.
</event>
<event>
 7    1  0.4346085E-013  0.5930184E+02  0.7816164E-02  0.1266605E+00
        -11   -1    0    0    0    0  0.00000000000E+00  0.00000000000E+00  0.45593999997E+02  0.45594000000E+02  0.51100000000E-03 0.  1.
         11   -1    0    0    0    0 -0.00000000000E+00 -0.00000000000E+00 -0.45593999997E+02  0.45594000000E+02  0.51100000000E-03 0. -1.
    9900012    2    1    2    0    0  0.31457572944E+02  0.48297157134E+01 -0.19549661824E+01  0.59301844036E+02  0.49999817639E+02 0.  0.
         12    1    1    2    0    0 -0.31457572944E+02 -0.48297157134E+01  0.19549661824E+01  0.31886155964E+02  0.00000000000E+00 0. -1.
         11    1    3    3    0    0 -0.37635685262E+01  0.60937960163E+01  0.14221204129E+02  0.15922984804E+02  0.51100000000E-03 0. -1.
        -11    1    3    3    0    0  0.27095515120E+02 -0.23229707706E+01 -0.23363453807E+01  0.27295084591E+02  0.51100000000E-03 0.  1.
         12    1    3    3    0    0  0.81256263494E+01  0.10588904676E+01 -0.13839824930E+02  0.16083774641E+02  0.00000000000E+00 0. -1.
</event>
<event>
 7    1  0.4346085E-013  0.5930196E+02  0.7816164E-02  0.1266605E+00
        -11   -1    0    0    0    0  0.00000000000E+00  0.00000000000E+00  0.45593999997E+02  0.45594000000E+02  0.51100000000E-03 0.  1.
         11   -1    0    0    0    0 -0.00000000000E+00 -0.00000000000E+00 -0.45593999997E+02  0.45594000000E+02  0.51100000000E-03 0. -1.
    9900012    2    1    2    0    0 -0.24351582000E+02  0.20869036270E+01  0.20478398589E+02  0.59301960399E+02  0.50000029857E+02 0.  0.
         12    1    1    2    0    0  0.24351582000E+02 -0.20869036270E+01 -0.20478398589E+02  0.31886039601E+02  0.00000000000E+00 0. -1.
         11    1    3    3    0    0 -0.58953972795E+00 -0.19014442235E+02  0.13095095065E+02  0.23094979662E+02  0.51100000000E-03 0. -1.
        -11    1    3    3    0    0 -0.13827037120E+02  0.22283092650E+01  0.43412845262E+01  0.14662846561E+02  0.51100000000E-03 0.  1.
         12    1    3    3    0    0 -0.99350051528E+01  0.18873036597E+02  0.30420189981E+01  0.21544134175E+02  0.00000000000E+00 0. -1.
</event>
<event>
 7    1  0.4346085E-013  0.5930195E+02  0.7816164E-02  0.1266605E+00
        -11   -1    0    0    0    0  0.00000000000E+00  0.00000000000E+00  0.45593999997E+02  0.45594000000E+02  0.51100000000E-03 0. -1.
         11   -1    0    0    0    0 -0.00000000000E+00 -0.00000000000E+00 -0.45593999997E+02  0.45594000000E+02  0.51100000000E-03 0.  1.
    9900012    2    1    2    0    0  0.28942065825E+02  0.11236950955E+02 -0.72669240233E+01  0.59301946219E+02  0.50000003995E+02 0.  0.
         12    1    1    2    0    0 -0.28942065825E+02 -0.11236950955E+02  0.72669240233E+01  0.31886053781E+02  0.00000000000E+00 0. -1.
         11    1    3    3    0    0  0.26168475750E+02  0.13570845286E+01 -0.15793080349E+02  0.30594969989E+02  0.51100000000E-03 0.  1.
        -11    1    3    3    0    0 -0.17164204465E+01  0.28198622857E+01  0.16692263104E+02  0.17015562590E+02  0.51100000000E-03 0. -1.
         12    1    3    3    0    0  0.44900105222E+01  0.70600041407E+01 -0.81661067783E+01  0.11691413639E+02  0.00000000000E+00 0. -1.
</event>
<event>
 7    1  0.4346085E-013  0.5930194E+02  0.7816164E-02  0.1266605E+00
        -11   -1    0    0    0    0  0.00000000000E+00  0.00000000000E+00  0.45593999997E+02  0.45594000000E+02  0.51100000000E-03 0. -1.
         11   -1    0    0    0    0 -0.00000000000E+00 -0.00000000000E+00 -0.45593999997E+02  0.45594000000E+02  0.51100000000E-03 0.  1.
    9900012    2    1    2    0    0  0.27387613028E+02 -0.35026341607E+01 -0.15949009538E+02  0.59301941939E+02  0.49999996191E+02 0.  0.
         12    1    1    2    0    0 -0.27387613028E+02  0.35026341607E+01  0.15949009538E+02  0.31886058061E+02  0.00000000000E+00 0. -1.
         11    1    3    3    0    0  0.67632927212E+01  0.20356881519E+02  0.29906173491E+01  0.21658452068E+02  0.51100000000E-03 0. -1.
        -11    1    3    3    0    0  0.68319928468E+01 -0.28653724221E+01 -0.45616194057E+01  0.87002791472E+01  0.51100000000E-03 0.  1.
         12    1    3    3    0    0  0.13792327460E+02 -0.20994143257E+02 -0.14378007481E+02  0.28943210724E+02  0.00000000000E+00 0. -1.
</event>
<event>
 7    1  0.4346085E-013  0.5930196E+02  0.7816164E-02  0.1266605E+00
        -11   -1    0    0    0    0  0.00000000000E+00  0.00000000000E+00  0.45593999997E+02  0.45594000000E+02  0.51100000000E-03 0.  1.
         11   -1    0    0    0    0 -0.00000000000E+00 -0.00000000000E+00 -0.45593999997E+02  0.45594000000E+02  0.51100000000E-03 0. -1.
    9900012    2    1    2    0    0  0.33562350329E+01 -0.23882314351E+02  0.20858811470E+02  0.59301964368E+02  0.50000037096E+02 0.  0.
         12    1    1    2    0    0 -0.33562350329E+01  0.23882314351E+02 -0.20858811470E+02  0.31886035632E+02  0.00000000000E+00 0. -1.
         11    1    3    3    0    0 -0.45393605663E+01 -0.27966735195E+02  0.30733290006E+02  0.41800468737E+02  0.51100000000E-03 0.  1.
        -11    1    3    3    0    0  0.36707825310E+01  0.66573091868E+01 -0.99898619200E+01  0.12553555331E+02  0.51100000000E-03 0. -1.
         12    1    3    3    0    0  0.42248130681E+01 -0.25728883434E+01  0.11538338440E+00  0.49479403001E+01  0.00000000000E+00 0. -1.
</event>
<event>
 7    1  0.4346085E-013  0.5930184E+02  0.7816164E-02  0.1266605E+00
        -11   -1    0    0    0    0  0.00000000000E+00  0.00000000000E+00  0.45593999997E+02  0.45594000000E+02  0.51100000000E-03 0.  1.
         11   -1    0    0    0    0 -0.00000000000E+00 -0.00000000000E+00 -0.45593999997E+02  0.45594000000E+02  0.51100000000E-03 0. -1.
    9900012    2    1    2    0    0  0.15834692510E+02 -0.26772782346E+02  0.70148331729E+01  0.59301839274E+02  0.49999808953E+02 0.  0.
         12    1    1    2    0    0 -0.15834692510E+02  0.26772782346E+02 -0.70148331729E+01  0.31886160726E+02  0.00000000000E+00 0. -1.
         11    1    3    3    0    0  0.29078014074E+02 -0.76373235385E+01  0.65012337899E+01  0.30759155618E+02  0.51100000000E-03 0. -1.
        -11    1    3    3    0    0 -0.96422676506E+01 -0.15118903970E+02  0.77348236885E+01  0.19529006131E+02  0.51100000000E-03 0.  1.
         12    1    3    3    0    0 -0.36010539132E+01 -0.40165548376E+01 -0.72212243054E+01  0.90136775247E+01  0.00000000000E+00 0. -1.
</event>
<event>
 7    1  0.4346085E-013  0.5930191E+02  0.7816164E-02  0.1266605E+00
        -11   -1    0    0    0    0  0.00000000000E+00  0.00000000000E+00  0.45593999997E+02  0.45594000000E+02  0.51100000000E-03 0. -1.
         11   -1    0    0    0    0 -0.00000000000E+00 -0.00000000000E+00 -0.45593999997E+02  0.45594000000E+02  0.51100000000E-03 0.  1.
    9900012    2    1    2    0    0  0.88147817446E+01  0.82004870699E+01 -0.29525827657E+02  0.59301907982E+02  0.49999934261E+02 0.  0.
         12    1    1    2    0    0 -0.88147817446E+01 -0.82004870699E+01  0.29525827657E+02  0.31886092018E+02  0.00000000000E+00 0. -1.
         11    1    3    3    0    0 -0.50631163791E+01 -0.11066198389E+02 -0.20542687733E+01  0.12341633389E+02  0.51100000000E-03 0. -1.
        -11    1    3    3    0    0  0.14651407957E+02  0.22196205553E+02 -0.87545319720E+01  0.27999591540E+02  0.51100000000E-03 0.  1.
        -12    1    3    3    0    0 -0.77350983366E+00 -0.29295200947E+01 -0.18717026911E+02  0.18960683053E+02  0.00000000000E+00 0.  1.
</event>
<event>
 7    1  0.4346085E-013  0.5930193E+02  0.7816164E-02  0.1266605E+00
        -11   -1    0    0    0    0  0.00000000000E+00  0.00000000000E+00  0.45593999997E+02  0.45594000000E+02  0.51100000000E-03 0.  1.
         11   -1    0    0    0    0 -0.00000000000E+00 -0.00000000000E+00 -0.45593999997E+02  0.45594000000E+02  0.51100000000E-03 0. -1.
    9900012    2    1    2    0    0  0.11505640563E+02 -0.81570359199E+01  0.28597276396E+02  0.59301933811E+02  0.49999981367E+02 0.  0.
         12    1    1    2    0    0 -0.11505640563E+02  0.81570359199E+01 -0.28597276396E+02  0.31886066189E+02  0.00000000000E+00 0. -1.
         11    1    3    3    0    0 -0.36218586958E+01  0.12428601130E+02 -0.24824046703E+01  0.13181438452E+02  0.51100000000E-03 0. -1.
        -11    1    3    3    0    0  0.17970229846E+02 -0.14920453350E+02  0.12504409952E+02  0.26493572002E+02  0.51100000000E-03 0.  1.
         12    1    3    3    0    0 -0.28427305874E+01 -0.56651836998E+01  0.18575271113E+02  0.19626923358E+02  0.00000000000E+00 0. -1.
</event>
<event>
 7    1  0.4346085E-013  0.5930193E+02  0.7816164E-02  0.1266605E+00
        -11   -1    0    0    0    0  0.00000000000E+00  0.00000000000E+00  0.45593999997E+02  0.45594000000E+02  0.51100000000E-03 0.  1.
         11   -1    0    0    0    0 -0.00000000000E+00 -0.00000000000E+00 -0.45593999997E+02  0.45594000000E+02  0.51100000000E-03 0. -1.
    9900012    2    1    2    0    0  0.11832027620E+02 -0.80644945872E+01  0.28490145710E+02  0.59301931677E+02  0.49999977475E+02 0.  0.
         12    1    1    2    0    0 -0.11832027620E+02  0.80644945872E+01 -0.28490145710E+02  0.31886068323E+02  0.00000000000E+00 0. -1.
         11    1    3    3    0    0  0.97212752888E+00  0.57555380973E+01 -0.96315513680E+01  0.11262239242E+02  0.51100000000E-03 0. -1.
        -11    1    3    3    0    0  0.16027500594E+02 -0.86941287244E+01  0.36166663154E+02  0.40503039066E+02  0.51100000000E-03 0.  1.
         12    1    3    3    0    0 -0.51676005035E+01 -0.51259039601E+01  0.19550339236E+01  0.75366533697E+01  0.00000000000E+00 0. -1.
</event>
<event>
 7    1  0.4346085E-013  0.5930193E+02  0.7816164E-02  0.1266605E+00
        -11   -1    0    0    0    0  0.00000000000E+00  0.00000000000E+00  0.45593999997E+02  0.45594000000E+02  0.51100000000E-03 0.  1.
         11   -1    0    0    0    0 -0.00000000000E+00 -0.00000000000E+00 -0.45593999997E+02  0.45594000000E+02  0.51100000000E-03 0. -1.
    9900012    2    1    2    0    0 -0.21636449897E+02  0.78667467685E-01  0.23421773767E+02  0.59301927192E+02  0.49999969296E+02 0.  0.
         12    1    1    2    0    0  0.21636449897E+02 -0.78667467685E-01 -0.23421773767E+02  0.31886072808E+02  0.00000000000E+00 0. -1.
         11    1    3    3    0    0  0.13265432479E+02  0.29883476677E+01  0.10615886907E+02  0.17251057235E+02  0.51100000000E-03 0. -1.
        -11    1    3    3    0    0 -0.21224376792E+02 -0.52641433271E+01 -0.17519082316E+01  0.21937514852E+02  0.51100000000E-03 0.  1.
        -12    1    3    3    0    0 -0.13677505584E+02  0.23544631271E+01  0.14557795092E+02  0.20113355104E+02  0.00000000000E+00 0.  1.
</event>
<event>
 7    1  0.4346085E-013  0.5930195E+02  0.7816164E-02  0.1266605E+00
        -11   -1    0    0    0    0  0.00000000000E+00  0.00000000000E+00  0.45593999997E+02  0.45594000000E+02  0.51100000000E-03 0. -1.
         11   -1    0    0    0    0 -0.00000000000E+00 -0.00000000000E+00 -0.45593999997E+02  0.45594000000E+02  0.51100000000E-03 0.  1.
    9900012    2    1    2    0    0  0.74968656032E+01  0.20028907237E+02 -0.23650788092E+02  0.59301954520E+02  0.50000019135E+02 0.  0.
         12    1    1    2    0    0 -0.74968656032E+01 -0.20028907237E+02  0.23650788092E+02  0.31886045480E+02  0.00000000000E+00 0. -1.
         11    1    3    3    0    0 -0.11431990906E+02 -0.37396552474E+01  0.34469315157E+01  0.12512264966E+02  0.51100000000E-03 0. -1.
        -11    1    3    3    0    0  0.48835695277E+01  0.20711740502E+02 -0.24019125455E+02  0.32089621902E+02  0.51100000000E-03 0.  1.
         12    1    3    3    0    0  0.14045286981E+02  0.30568219826E+01 -0.30785941523E+01  0.14700067652E+02  0.00000000000E+00 0. -1.
</event>
<event>
 7    1  0.4346085E-013  0.5930178E+02  0.7816164E-02  0.1266605E+00
        -11   -1    0    0    0    0  0.00000000000E+00  0.00000000000E+00  0.45593999997E+02  0.45594000000E+02  0.51100000000E-03 0.  1.
         11   -1    0    0    0    0 -0.00000000000E+00 -0.00000000000E+00 -0.45593999997E+02  0.45594000000E+02  0.51100000000E-03 0. -1.
    9900012    2    1    2    0    0  0.23937544454E+02 -0.20952068014E+02 -0.21762623259E+01  0.59301775603E+02  0.49999692833E+02 0.  0.
         12    1    1    2    0    0 -0.23937544454E+02  0.20952068014E+02  0.21762623259E+01  0.31886224397E+02  0.00000000000E+00 0. -1.
         11    1    3    3    0    0 -0.82265390832E+01  0.20045042136E+01 -0.10886716633E+02  0.13791830253E+02  0.51100000000E-03 0. -1.
        -11    1    3    3    0    0  0.19058996722E+02 -0.24855994969E+02  0.75370617073E+01  0.32216038574E+02  0.51100000000E-03 0.  1.
        -12    1    3    3    0    0  0.13105086815E+02  0.18994227408E+01  0.11733925997E+01  0.13293906776E+02  0.00000000000E+00 0.  1.
</event>
<event>
 7    1  0.4346085E-013  0.5930208E+02  0.7816164E-02  0.1266604E+00
        -11   -1    0    0    0    0  0.00000000000E+00  0.00000000000E+00  0.45593999997E+02  0.45594000000E+02  0.51100000000E-03 0.  1.
         11   -1    0    0    0    0 -0.00000000000E+00 -0.00000000000E+00 -0.45593999997E+02  0.45594000000E+02  0.51100000000E-03 0. -1.
    9900012    2    1    2    0    0 -0.37527644271E+01  0.30755471548E+02  0.75318918237E+01  0.59302083588E+02  0.50000254524E+02 0.  0.
         12    1    1    2    0    0  0.37527644271E+01 -0.30755471548E+02 -0.75318918237E+01  0.31885916412E+02  0.00000000000E+00 0. -1.
         11    1    3    3    0    0 -0.14973935451E+01 -0.31646481230E+01 -0.45948956600E+01  0.57766990192E+01  0.51100000000E-03 0. -1.
        -11    1    3    3    0    0  0.66978978678E+01  0.19240908821E+02  0.24851178486E+02  0.32134957297E+02  0.51100000000E-03 0.  1.
        -12    1    3    3    0    0 -0.89532687498E+01  0.14679210850E+02 -0.12724391002E+02  0.21390427271E+02  0.00000000000E+00 0.  1.
</event>
<event>
 7    1  0.4346085E-013  0.5930190E+02  0.7816164E-02  0.1266605E+00
        -11   -1    0    0    0    0  0.00000000000E+00  0.00000000000E+00  0.45593999997E+02  0.45594000000E+02  0.51100000000E-03 0.  1.
         11   -1    0    0    0    0 -0.00000000000E+00 -0.00000000000E+00 -0.45593999997E+02  0.45594000000E+02  0.51100000000E-03 0. -1.
    9900012    2    1    2    0    0 -0.21221124965E+02 -0.29390697157E+01  0.23616711173E+02  0.59301900800E+02  0.49999921163E+02 0.  0.
         12    1    1    2    0    0  0.21221124965E+02  0.29390697157E+01 -0.23616711173E+02  0.31886099200E+02  0.00000000000E+00 0. -1.
         11    1    3    3    0    0 -0.13985588808E+01  0.68372468964E+01 -0.12441121277E+02  0.14264831263E+02  0.51100000000E-03 0. -1.
        -11    1    3    3    0    0 -0.59739729828E+01  0.17939078484E+01  0.19759515301E+02  0.20720639560E+02  0.51100000000E-03 0.  1.
         12    1    3    3    0    0 -0.13848593101E+02 -0.11570224461E+02  0.16298317149E+02  0.24316429977E+02  0.00000000000E+00 0. -1.
</event>
<event>
 7    1  0.4346085E-013  0.5930195E+02  0.7816164E-02  0.1266605E+00
        -11   -1    0    0    0    0  0.00000000000E+00  0.00000000000E+00  0.45593999997E+02  0.45594000000E+02  0.51100000000E-03 0. -1.
         11   -1    0    0    0    0 -0.00000000000E+00 -0.00000000000E+00 -0.45593999997E+02  0.45594000000E+02  0.51100000000E-03 0.  1.
    9900012    2    1    2    0    0 -0.13843983277E+02 -0.19749232721E+02 -0.20857427012E+02  0.59301947758E+02  0.50000006803E+02 0.  0.
         12    1    1    2    0    0  0.13843983277E+02  0.19749232721E+02  0.20857427012E+02  0.31886052242E+02  0.00000000000E+00 0. -1.
         11    1    3    3    0    0 -0.15107265589E+02  0.56659076531E+01 -0.17757005900E+02  0.23992566388E+02  0.51100000000E-03 0.  1.
        -11    1    3    3    0    0  0.73635340101E-01 -0.29265403864E+02  0.13613316196E+01  0.29297141662E+02  0.51100000000E-03 0. -1.
        -12    1    3    3    0    0  0.11896469724E+01  0.38502634908E+01 -0.44617527317E+01  0.60122397079E+01  0.00000000000E+00 0.  1.
</event>
<event>
 7    1  0.4346085E-013  0.5930196E+02  0.7816164E-02  0.1266605E+00
        -11   -1    0    0    0    0  0.00000000000E+00  0.00000000000E+00  0.45593999997E+02  0.45594000000E+02  0.51100000000E-03 0. -1.
         11   -1    0    0    0    0 -0.00000000000E+00 -0.00000000000E+00 -0.45593999997E+02  0.45594000000E+02  0.51100000000E-03 0.  1.
    9900012    2    1    2    0    0 -0.87569568946E+00 -0.16664301919E+02 -0.27170824019E+02  0.59301961060E+02  0.50000031063E+02 0.  0.
         12    1    1    2    0    0  0.87569568946E+00  0.16664301919E+02  0.27170824019E+02  0.31886038940E+02  0.00000000000E+00 0. -1.
         11    1    3    3    0    0  0.76686426544E+01  0.52775788681E+01 -0.30021394729E+02  0.31431593352E+02  0.51100000000E-03 0.  1.
        -11    1    3    3    0    0 -0.57236886341E+01 -0.54822253868E+01 -0.50483694492E+01  0.93968846502E+01  0.51100000000E-03 0. -1.
         12    1    3    3    0    0 -0.28206497097E+01 -0.16459655400E+02  0.78989401592E+01  0.18473483058E+02  0.00000000000E+00 0. -1.
</event>
<event>
 7    1  0.4346085E-013  0.5930194E+02  0.7816164E-02  0.1266605E+00
        -11   -1    0    0    0    0  0.00000000000E+00  0.00000000000E+00  0.45593999997E+02  0.45594000000E+02  0.51100000000E-03 0.  1.
         11   -1    0    0    0    0 -0.00000000000E+00 -0.00000000000E+00 -0.45593999997E+02  0.45594000000E+02  0.51100000000E-03 0. -1.
    9900012    2    1    2    0    0  0.10791424007E+02  0.15241539642E+02  0.25844945378E+02  0.59301944045E+02  0.50000000031E+02 0.  0.
         12    1    1    2    0    0 -0.10791424007E+02 -0.15241539642E+02 -0.25844945378E+02  0.31886055955E+02  0.00000000000E+00 0. -1.
         11    1    3    3    0    0 -0.16339068691E+02 -0.28760041737E+00  0.17812927891E+02  0.24173296838E+02  0.51100000000E-03 0.  1.
        -11    1    3    3    0    0  0.18796925368E+02  0.12041704270E+02 -0.10113239489E+01  0.22346136610E+02  0.51100000000E-03 0. -1.
        -12    1    3    3    0    0  0.83335673310E+01  0.34874357901E+01  0.90433414358E+01  0.12782510597E+02  0.00000000000E+00 0.  1.
</event>
<event>
 7    1  0.4346085E-013  0.5930194E+02  0.7816164E-02  0.1266605E+00
        -11   -1    0    0    0    0  0.00000000000E+00  0.00000000000E+00  0.45593999997E+02  0.45594000000E+02  0.51100000000E-03 0. -1.
         11   -1    0    0    0    0 -0.00000000000E+00 -0.00000000000E+00 -0.45593999997E+02  0.45594000000E+02  0.51100000000E-03 0.  1.
    9900012    2    1    2    0    0 -0.17470758970E+02  0.26671101874E+02 -0.38196186447E+00  0.59301937386E+02  0.49999987888E+02 0.  0.
         12    1    1    2    0    0  0.17470758970E+02 -0.26671101874E+02  0.38196186447E+00  0.31886062614E+02  0.00000000000E+00 0. -1.
         11    1    3    3    0    0 -0.61946665276E+01  0.40298894179E+02  0.41380077853E+01  0.40981677297E+02  0.51100000000E-03 0.  1.
        -11    1    3    3    0    0 -0.71360689353E+01 -0.79439043642E+01 -0.33514450859E+01  0.11192018621E+02  0.51100000000E-03 0. -1.
        -12    1    3    3    0    0 -0.41400235068E+01 -0.56838879409E+01 -0.11685245638E+01  0.71282414675E+01  0.00000000000E+00 0.  1.
</event>
<event>
 7    1  0.4346085E-013  0.5930198E+02  0.7816164E-02  0.1266605E+00
        -11   -1    0    0    0    0  0.00000000000E+00  0.00000000000E+00  0.45593999997E+02  0.45594000000E+02  0.51100000000E-03 0. -1.
         11   -1    0    0    0    0 -0.00000000000E+00 -0.00000000000E+00 -0.45593999997E+02  0.45594000000E+02  0.51100000000E-03 0.  1.
    9900012    2    1    2    0    0  0.22915682108E+01 -0.31617543187E+02 -0.34348265196E+01  0.59301978686E+02  0.50000063208E+02 0.  0.
         12    1    1    2    0    0 -0.22915682108E+01  0.31617543187E+02  0.34348265196E+01  0.31886021314E+02  0.00000000000E+00 0. -1.
         11    1    3    3    0    0  0.22755404645E+02 -0.21540378325E+02  0.87010437462E+01  0.32519294295E+02  0.51100000000E-03 0. -1.
        -11    1    3    3    0    0 -0.15483395095E+02 -0.10164402848E+02 -0.11396320346E+02  0.21746878549E+02  0.51100000000E-03 0.  1.
         12    1    3    3    0    0 -0.49804413387E+01  0.87237986319E-01 -0.73954991966E+00  0.50358058420E+01  0.00000000000E+00 0. -1.
</event>
<event>
 7    1  0.4346085E-013  0.5930193E+02  0.7816164E-02  0.1266605E+00
        -11   -1    0    0    0    0  0.00000000000E+00  0.00000000000E+00  0.45593999997E+02  0.45594000000E+02  0.51100000000E-03 0.  1.
         11   -1    0    0    0    0 -0.00000000000E+00 -0.00000000000E+00 -0.45593999997E+02  0.45594000000E+02  0.51100000000E-03 0. -1.
    9900012    2    1    2    0    0  0.22984215964E+02  0.18787588615E+02  0.11639321410E+02  0.59301929807E+02  0.49999974065E+02 0.  0.
         12    1    1    2    0    0 -0.22984215964E+02 -0.18787588615E+02 -0.11639321410E+02  0.31886070193E+02  0.00000000000E+00 0. -1.
         11    1    3    3    0    0  0.18973721679E+02  0.12871227018E+02 -0.19435754133E+01  0.23009738915E+02  0.51100000000E-03 0. -1.
        -11    1    3    3    0    0 -0.11707904195E+02 -0.64049272161E+01  0.79795853371E+01  0.15549015908E+02  0.51100000000E-03 0.  1.
        -12    1    3    3    0    0  0.15718398481E+02  0.12321288813E+02  0.56033114859E+01  0.20743174984E+02  0.00000000000E+00 0.  1.
</event>
<event>
 7    1  0.4346085E-013  0.5930193E+02  0.7816164E-02  0.1266605E+00
        -11   -1    0    0    0    0  0.00000000000E+00  0.00000000000E+00  0.45593999997E+02  0.45594000000E+02  0.51100000000E-03 0.  1.
         11   -1    0    0    0    0 -0.00000000000E+00 -0.00000000000E+00 -0.45593999997E+02  0.45594000000E+02  0.51100000000E-03 0. -1.
    9900012    2    1    2    0    0  0.12840269749E+02  0.26041299818E+02  0.13179522715E+02  0.59301927140E+02  0.49999969200E+02 0.  0.
         12    1    1    2    0    0 -0.12840269749E+02 -0.26041299818E+02 -0.13179522715E+02  0.31886072860E+02  0.00000000000E+00 0. -1.
         11    1    3    3    0    0 -0.16039975792E+02  0.62278012242E+01  0.36664599617E+01  0.17592875274E+02  0.51100000000E-03 0. -1.
        -11    1    3    3    0    0  0.17022610447E+02 -0.48600687089E+00  0.27809447650E+01  0.17255118752E+02  0.51100000000E-03 0.  1.
        -12    1    3    3    0    0  0.11857635094E+02  0.20299505465E+02  0.67321179882E+01  0.24453933114E+02  0.00000000000E+00 0.  1.
</event>
<event>
 7    1  0.4346085E-013  0.5930196E+02  0.7816164E-02  0.1266605E+00
        -11   -1    0    0    0    0  0.00000000000E+00  0.00000000000E+00  0.45593999997E+02  0.45594000000E+02  0.51100000000E-03 0. -1.
         11   -1    0    0    0    0 -0.00000000000E+00 -0.00000000000E+00 -0.45593999997E+02  0.45594000000E+02  0.51100000000E-03 0.  1.
    9900012    2    1    2    0    0 -0.12916770166E+01 -0.31325384011E+02  0.58113363841E+01  0.59301956917E+02  0.50000023506E+02 0.  0.
         12    1    1    2    0    0  0.12916770166E+01  0.31325384011E+02 -0.58113363841E+01  0.31886043083E+02  0.00000000000E+00 0. -1.
         11    1    3    3    0    0 -0.46101746442E+01  0.34433129944E+01  0.74187554116E+01  0.93887191217E+01  0.51100000000E-03 0. -1.
        -11    1    3    3    0    0 -0.55131909020E+01 -0.38424266846E+02  0.36767284501E+01  0.38991510472E+02  0.51100000000E-03 0.  1.
        -12    1    3    3    0    0  0.88316885296E+01  0.36555698407E+01 -0.52841474776E+01  0.10921727323E+02  0.00000000000E+00 0.  1.
</event>
<event>
 7    1  0.4346085E-013  0.5930194E+02  0.7816164E-02  0.1266605E+00
        -11   -1    0    0    0    0  0.00000000000E+00  0.00000000000E+00  0.45593999997E+02  0.45594000000E+02  0.51100000000E-03 0. -1.
         11   -1    0    0    0    0 -0.00000000000E+00 -0.00000000000E+00 -0.45593999997E+02  0.45594000000E+02  0.51100000000E-03 0.  1.
    9900012    2    1    2    0    0 -0.28611117124E+02 -0.12567314831E+01 -0.14019458442E+02  0.59301943296E+02  0.49999998666E+02 0.  0.
         12    1    1    2    0    0  0.28611117124E+02  0.12567314831E+01  0.14019458442E+02  0.31886056704E+02  0.00000000000E+00 0. -1.
         11    1    3    3    0    0 -0.10995352228E+01  0.99491661437E+01 -0.15390714710E+02  0.18359438559E+02  0.51100000000E-03 0.  1.
        -11    1    3    3    0    0 -0.27590481274E+02 -0.18759706317E+02  0.12419035138E+01  0.33387176619E+02  0.51100000000E-03 0. -1.
         12    1    3    3    0    0  0.78899372449E-01  0.75538086901E+01  0.12935275431E+00  0.75553281181E+01  0.00000000000E+00 0. -1.
</event>
<event>
 7    1  0.4346085E-013  0.5930182E+02  0.7816164E-02  0.1266605E+00
        -11   -1    0    0    0    0  0.00000000000E+00  0.00000000000E+00  0.45593999997E+02  0.45594000000E+02  0.51100000000E-03 0.  1.
         11   -1    0    0    0    0 -0.00000000000E+00 -0.00000000000E+00 -0.45593999997E+02  0.45594000000E+02  0.51100000000E-03 0. -1.
    9900012    2    1    2    0    0  0.91606850618E+01  0.66187038987E+01  0.29816157257E+02  0.59301817637E+02  0.49999769494E+02 0.  0.
         12    1    1    2    0    0 -0.91606850618E+01 -0.66187038987E+01 -0.29816157257E+02  0.31886182363E+02  0.00000000000E+00 0. -1.
         11    1    3    3    0    0  0.62828727804E+01  0.17791329959E+02  0.15092340602E+02  0.24161636062E+02  0.51100000000E-03 0.  1.
        -11    1    3    3    0    0  0.16362185618E+02 -0.68949824007E+01  0.79000685361E+01  0.19433810322E+02  0.51100000000E-03 0. -1.
        -12    1    3    3    0    0 -0.13484373336E+02 -0.42776436594E+01  0.68237481183E+01  0.15706371253E+02  0.00000000000E+00 0.  1.
</event>
<event>
 7    1  0.4346085E-013  0.5930196E+02  0.7816164E-02  0.1266605E+00
        -11   -1    0    0    0    0  0.00000000000E+00  0.00000000000E+00  0.45593999997E+02  0.45594000000E+02  0.51100000000E-03 0.  1.
         11   -1    0    0    0    0 -0.00000000000E+00 -0.00000000000E+00 -0.45593999997E+02  0.45594000000E+02  0.51100000000E-03 0. -1.
    9900012    2    1    2    0    0  0.20949962964E+02 -0.44578833107E+01  0.23620883893E+02  0.59301955597E+02  0.50000021099E+02 0.  0.
         12    1    1    2    0    0 -0.20949962964E+02  0.44578833107E+01 -0.23620883893E+02  0.31886044403E+02  0.00000000000E+00 0. -1.
         11    1    3    3    0    0  0.19260513945E+01 -0.18808988473E+02  0.89922376139E+01  0.20936763334E+02  0.51100000000E-03 0. -1.
        -11    1    3    3    0    0  0.14170520608E+02  0.14520263645E+02  0.21751029465E+02  0.29744730519E+02  0.51100000000E-03 0.  1.
         12    1    3    3    0    0  0.48533909616E+01 -0.16915848282E+00 -0.71223831860E+01  0.86204617432E+01  0.00000000000E+00 0. -1.
</event>
<event>
 7    1  0.4346085E-013  0.5930193E+02  0.7816164E-02  0.1266605E+00
        -11   -1    0    0    0    0  0.00000000000E+00  0.00000000000E+00  0.45593999997E+02  0.45594000000E+02  0.51100000000E-03 0.  1.
         11   -1    0    0    0    0 -0.00000000000E+00 -0.00000000000E+00 -0.45593999997E+02  0.45594000000E+02  0.51100000000E-03 0. -1.
    9900012    2    1    2    0    0  0.47397995712E+01 -0.30533707744E+00  0.31530343548E+02  0.59301929452E+02  0.49999973418E+02 0.  0.
         12    1    1    2    0    0 -0.47397995712E+01  0.30533707744E+00 -0.31530343548E+02  0.31886070548E+02  0.00000000000E+00 0. -1.
         11    1    3    3    0    0  0.62399571800E+00  0.21322190821E+01 -0.97390253369E+01  0.99892113625E+01  0.51100000000E-03 0. -1.
        -11    1    3    3    0    0  0.28673692195E+01  0.10959116170E+02  0.28881753194E+02  0.31023856970E+02  0.51100000000E-03 0.  1.
         12    1    3    3    0    0  0.12484346337E+01 -0.13396672330E+02  0.12387615691E+02  0.18288861120E+02  0.00000000000E+00 0. -1.
</event>
<event>
 7    1  0.4346085E-013  0.5930193E+02  0.7816164E-02  0.1266605E+00
        -11   -1    0    0    0    0  0.00000000000E+00  0.00000000000E+00  0.45593999997E+02  0.45594000000E+02  0.51100000000E-03 0.  1.
         11   -1    0    0    0    0 -0.00000000000E+00 -0.00000000000E+00 -0.45593999997E+02  0.45594000000E+02  0.51100000000E-03 0. -1.
    9900012    2    1    2    0    0  0.15583765651E+02 -0.12305216576E+02  0.24948929783E+02  0.59301934013E+02  0.49999981735E+02 0.  0.
         12    1    1    2    0    0 -0.15583765651E+02  0.12305216576E+02 -0.24948929783E+02  0.31886065987E+02  0.00000000000E+00 0. -1.
         11    1    3    3    0    0  0.63949922463E+01 -0.15579856471E+02 -0.65161219956E+01  0.18057898538E+02  0.51100000000E-03 0. -1.
        -11    1    3    3    0    0  0.17417438175E+02 -0.86938355093E+00  0.19980324701E+02  0.26520489357E+02  0.51100000000E-03 0.  1.
         12    1    3    3    0    0 -0.82286647705E+01  0.41440234455E+01  0.11484727078E+02  0.14723546117E+02  0.00000000000E+00 0. -1.
</event>
<event>
 7    1  0.4346085E-013  0.5930196E+02  0.7816164E-02  0.1266605E+00
        -11   -1    0    0    0    0  0.00000000000E+00  0.00000000000E+00  0.45593999997E+02  0.45594000000E+02  0.51100000000E-03 0.  1.
         11   -1    0    0    0    0 -0.00000000000E+00 -0.00000000000E+00 -0.45593999997E+02  0.45594000000E+02  0.51100000000E-03 0. -1.
    9900012    2    1    2    0    0 -0.10219014255E+02 -0.67099897719E+00  0.30196708328E+02  0.59301957822E+02  0.50000025157E+02 0.  0.
         12    1    1    2    0    0  0.10219014255E+02  0.67099897719E+00 -0.30196708328E+02  0.31886042178E+02  0.00000000000E+00 0. -1.
         11    1    3    3    0    0 -0.12494730123E+02 -0.14303804287E+02  0.29065401500E+02  0.34720522210E+02  0.51100000000E-03 0. -1.
        -11    1    3    3    0    0 -0.83948883395E+01  0.86074597955E+01 -0.24181832892E+01  0.12264180570E+02  0.51100000000E-03 0.  1.
        -12    1    3    3    0    0  0.10670604207E+02  0.50253455142E+01  0.35494901164E+01  0.12317255042E+02  0.00000000000E+00 0.  1.
</event>
<event>
 7    1  0.4346085E-013  0.5930189E+02  0.7816164E-02  0.1266605E+00
        -11   -1    0    0    0    0  0.00000000000E+00  0.00000000000E+00  0.45593999997E+02  0.45594000000E+02  0.51100000000E-03 0.  1.
         11   -1    0    0    0    0 -0.00000000000E+00 -0.00000000000E+00 -0.45593999997E+02  0.45594000000E+02  0.51100000000E-03 0. -1.
    9900012    2    1    2    0    0  0.32669482388E+01 -0.76933507665E+01  0.30771141744E+02  0.59301893918E+02  0.49999908612E+02 0.  0.
         12    1    1    2    0    0 -0.32669482388E+01  0.76933507665E+01 -0.30771141744E+02  0.31886106082E+02  0.00000000000E+00 0. -1.
         11    1    3    3    0    0  0.10828667091E+01 -0.19897849176E+02 -0.38261555615E+01  0.20291290466E+02  0.51100000000E-03 0. -1.
        -11    1    3    3    0    0  0.15463439832E+01  0.14020186068E+02  0.21122945226E+02  0.25399519924E+02  0.51100000000E-03 0.  1.
        -12    1    3    3    0    0  0.63773754646E+00 -0.18156876582E+01  0.13474352080E+02  0.13611083529E+02  0.00000000000E+00 0.  1.
</event>
<event>
 7    1  0.4346085E-013  0.5930195E+02  0.7816164E-02  0.1266605E+00
        -11   -1    0    0    0    0  0.00000000000E+00  0.00000000000E+00  0.45593999997E+02  0.45594000000E+02  0.51100000000E-03 0.  1.
         11   -1    0    0    0    0 -0.00000000000E+00 -0.00000000000E+00 -0.45593999997E+02  0.45594000000E+02  0.51100000000E-03 0. -1.
    9900012    2    1    2    0    0  0.51811713040E+01 -0.27366545655E+02  0.15522487139E+02  0.59301953457E+02  0.50000017197E+02 0.  0.
         12    1    1    2    0    0 -0.51811713040E+01  0.27366545655E+02 -0.15522487139E+02  0.31886046543E+02  0.00000000000E+00 0. -1.
         11    1    3    3    0    0 -0.81680900519E+01  0.60423391763E+01 -0.66919297408E+01  0.12165914751E+02  0.51100000000E-03 0. -1.
        -11    1    3    3    0    0 -0.26647519411E-01 -0.23277831104E+02  0.65516510384E+01  0.24182271659E+02  0.51100000000E-03 0.  1.
         12    1    3    3    0    0  0.13375908875E+02 -0.10131053728E+02  0.15662765841E+02  0.22953767047E+02  0.00000000000E+00 0. -1.
</event>
<event>
 7    1  0.4346085E-013  0.5930196E+02  0.7816164E-02  0.1266605E+00
        -11   -1    0    0    0    0  0.00000000000E+00  0.00000000000E+00  0.45593999997E+02  0.45594000000E+02  0.51100000000E-03 0. -1.
         11   -1    0    0    0    0 -0.00000000000E+00 -0.00000000000E+00 -0.45593999997E+02  0.45594000000E+02  0.51100000000E-03 0.  1.
    9900012    2    1    2    0    0  0.17290488656E+02  0.17173243715E+02 -0.20563038134E+02  0.59301955483E+02  0.50000020892E+02 0.  0.
         12    1    1    2    0    0 -0.17290488656E+02 -0.17173243715E+02  0.20563038134E+02  0.31886044517E+02  0.00000000000E+00 0. -1.
         11    1    3    3    0    0  0.54936218642E+01  0.62273979048E+01  0.56441861680E+01  0.10040777042E+02  0.51100000000E-03 0. -1.
        -11    1    3    3    0    0  0.19672233965E+02  0.83301570248E+01 -0.32468032081E+02  0.38865941552E+02  0.51100000000E-03 0.  1.
        -12    1    3    3    0    0 -0.78753671727E+01  0.26156887850E+01  0.62608077799E+01  0.10395236889E+02  0.00000000000E+00 0.  1.
</event>
<event>
 7    1  0.4346085E-013  0.5930195E+02  0.7816164E-02  0.1266605E+00
        -11   -1    0    0    0    0  0.00000000000E+00  0.00000000000E+00  0.45593999997E+02  0.45594000000E+02  0.51100000000E-03 0.  1.
         11   -1    0    0    0    0 -0.00000000000E+00 -0.00000000000E+00 -0.45593999997E+02  0.45594000000E+02  0.51100000000E-03 0. -1.
    9900012    2    1    2    0    0  0.24731762599E+02 -0.19312751711E+02  0.56637082533E+01  0.59301952094E+02  0.50000014711E+02 0.  0.
         12    1    1    2    0    0 -0.24731762599E+02  0.19312751711E+02 -0.56637082533E+01  0.31886047906E+02  0.00000000000E+00 0. -1.
         11    1    3    3    0    0  0.21885930072E+02  0.17541624228E+01  0.83158456797E+01  0.23478166678E+02  0.51100000000E-03 0. -1.
        -11    1    3    3    0    0  0.10753527803E+02 -0.23398277091E+02  0.28557870135E+01  0.25908941522E+02  0.51100000000E-03 0.  1.
        -12    1    3    3    0    0 -0.79076952762E+01  0.23313629575E+01 -0.55079244399E+01  0.99148438947E+01  0.00000000000E+00 0.  1.
</event>
<event>
 7    1  0.4346085E-013  0.5930212E+02  0.7816164E-02  0.1266604E+00
        -11   -1    0    0    0    0  0.00000000000E+00  0.00000000000E+00  0.45593999997E+02  0.45594000000E+02  0.51100000000E-03 0.  1.
         11   -1    0    0    0    0 -0.00000000000E+00 -0.00000000000E+00 -0.45593999997E+02  0.45594000000E+02  0.51100000000E-03 0. -1.
    9900012    2    1    2    0    0 -0.11162273567E+02  0.20286728296E+02  0.21921713638E+02  0.59302121857E+02  0.50000324317E+02 0.  0.
         12    1    1    2    0    0  0.11162273567E+02 -0.20286728296E+02 -0.21921713638E+02  0.31885878143E+02  0.00000000000E+00 0. -1.
         11    1    3    3    0    0  0.48587700381E+00  0.23259954489E+02  0.34306001987E+01  0.23516602162E+02  0.51100000000E-03 0. -1.
        -11    1    3    3    0    0 -0.31620140444E+01 -0.68723501859E+01  0.23848070194E+02  0.25019152306E+02  0.51100000000E-03 0.  1.
        -12    1    3    3    0    0 -0.84861365265E+01  0.38991239935E+01 -0.53569567550E+01  0.10766367388E+02  0.00000000000E+00 0.  1.
</event>
<event>
 7    1  0.4346085E-013  0.5930191E+02  0.7816164E-02  0.1266605E+00
        -11   -1    0    0    0    0  0.00000000000E+00  0.00000000000E+00  0.45593999997E+02  0.45594000000E+02  0.51100000000E-03 0.  1.
         11   -1    0    0    0    0 -0.00000000000E+00 -0.00000000000E+00 -0.45593999997E+02  0.45594000000E+02  0.51100000000E-03 0. -1.
    9900012    2    1    2    0    0 -0.50895515461E+01 -0.28647881756E+02  0.13042932673E+02  0.59301909667E+02  0.49999937333E+02 0.  0.
         12    1    1    2    0    0  0.50895515461E+01  0.28647881756E+02 -0.13042932673E+02  0.31886090333E+02  0.00000000000E+00 0. -1.
         11    1    3    3    0    0 -0.15583699223E+02 -0.24161391518E+02 -0.75815624482E+01  0.29733896666E+02  0.51100000000E-03 0.  1.
        -11    1    3    3    0    0  0.13260429402E+02 -0.26774833052E+01  0.22128971667E+02  0.25936447175E+02  0.51100000000E-03 0. -1.
         12    1    3    3    0    0 -0.27662817255E+01 -0.18090069329E+01 -0.15044765452E+01  0.36315658252E+01  0.00000000000E+00 0. -1.
</event>
<event>
 7    1  0.4346085E-013  0.5930196E+02  0.7816164E-02  0.1266605E+00
        -11   -1    0    0    0    0  0.00000000000E+00  0.00000000000E+00  0.45593999997E+02  0.45594000000E+02  0.51100000000E-03 0. -1.
         11   -1    0    0    0    0 -0.00000000000E+00 -0.00000000000E+00 -0.45593999997E+02  0.45594000000E+02  0.51100000000E-03 0.  1.
    9900012    2    1    2    0    0 -0.84477329853E+01 -0.11579846531E+02 -0.28482666844E+02  0.59301963106E+02  0.50000034794E+02 0.  0.
         12    1    1    2    0    0  0.84477329853E+01  0.11579846531E+02  0.28482666844E+02  0.31886036894E+02  0.00000000000E+00 0. -1.
         11    1    3    3    0    0 -0.15614448065E+02 -0.10988524877E+02  0.53456088106E+01  0.19827612089E+02  0.51100000000E-03 0. -1.
        -11    1    3    3    0    0  0.19412131940E+01 -0.43936165751E+01 -0.32530076883E+02  0.32882793031E+02  0.51100000000E-03 0.  1.
         12    1    3    3    0    0  0.52255018855E+01  0.38022949215E+01 -0.12981987719E+01  0.65915579855E+01  0.00000000000E+00 0. -1.
</event>
<event>
 7    1  0.4346085E-013  0.5930204E+02  0.7816164E-02  0.1266604E+00
        -11   -1    0    0    0    0  0.00000000000E+00  0.00000000000E+00  0.45593999997E+02  0.45594000000E+02  0.51100000000E-03 0. -1.
         11   -1    0    0    0    0 -0.00000000000E+00 -0.00000000000E+00 -0.45593999997E+02  0.45594000000E+02  0.51100000000E-03 0.  1.
    9900012    2    1    2    0    0  0.19177187367E+02 -0.16999852212E+02  0.18972479263E+02  0.59302039768E+02  0.50000174607E+02 0.  0.
         12    1    1    2    0    0 -0.19177187367E+02  0.16999852212E+02 -0.18972479263E+02  0.31885960232E+02  0.00000000000E+00 0. -1.
         11    1    3    3    0    0 -0.20000829660E+01  0.11091674050E+02  0.49128740362E+01  0.12294791444E+02  0.51100000000E-03 0. -1.
        -11    1    3    3    0    0  0.19366558127E+02 -0.82398729404E+01  0.16742191440E+02  0.26893494645E+02  0.51100000000E-03 0.  1.
        -12    1    3    3    0    0  0.18107122064E+01 -0.19851653321E+02 -0.26825862128E+01  0.20113753679E+02  0.00000000000E+00 0.  1.
</event>
<event>
 7    1  0.4346085E-013  0.5930201E+02  0.7816164E-02  0.1266605E+00
        -11   -1    0    0    0    0  0.00000000000E+00  0.00000000000E+00  0.45593999997E+02  0.45594000000E+02  0.51100000000E-03 0.  1.
         11   -1    0    0    0    0 -0.00000000000E+00 -0.00000000000E+00 -0.45593999997E+02  0.45594000000E+02  0.51100000000E-03 0. -1.
    9900012    2    1    2    0    0 -0.50265535124E+01 -0.35223419822E+01  0.31289665444E+02  0.59302010964E+02  0.50000122075E+02 0.  0.
         12    1    1    2    0    0  0.50265535124E+01  0.35223419822E+01 -0.31289665444E+02  0.31885989036E+02  0.00000000000E+00 0. -1.
         11    1    3    3    0    0 -0.11447713888E+02  0.85418311932E+01 -0.43068637352E+01  0.14918515639E+02  0.51100000000E-03 0. -1.
        -11    1    3    3    0    0  0.69778697068E+01 -0.17866790557E+02  0.19898404156E+02  0.27638005693E+02  0.51100000000E-03 0.  1.
        -12    1    3    3    0    0 -0.55670933150E+00  0.58026173822E+01  0.15698125023E+02  0.16745489631E+02  0.00000000000E+00 0.  1.
</event>
<event>
 7    1  0.4346085E-013  0.5930186E+02  0.7816164E-02  0.1266605E+00
        -11   -1    0    0    0    0  0.00000000000E+00  0.00000000000E+00  0.45593999997E+02  0.45594000000E+02  0.51100000000E-03 0.  1.
         11   -1    0    0    0    0 -0.00000000000E+00 -0.00000000000E+00 -0.45593999997E+02  0.45594000000E+02  0.51100000000E-03 0. -1.
    9900012    2    1    2    0    0  0.14240049560E+02 -0.14081545645E+02  0.24812433545E+02  0.59301861983E+02  0.49999850370E+02 0.  0.
         12    1    1    2    0    0 -0.14240049560E+02  0.14081545645E+02 -0.24812433545E+02  0.31886138017E+02  0.00000000000E+00 0. -1.
         11    1    3    3    0    0  0.43581718646E+01 -0.15958123373E+01  0.24231329104E+02  0.24671797450E+02  0.51100000000E-03 0.  1.
        -11    1    3    3    0    0  0.76741837808E+01 -0.18014386547E+02 -0.10376015362E+02  0.22160165036E+02  0.51100000000E-03 0. -1.
         12    1    3    3    0    0  0.22076939149E+01  0.55286532401E+01  0.10957119803E+02  0.12469899496E+02  0.00000000000E+00 0. -1.
</event>
<event>
 7    1  0.4346085E-013  0.5930194E+02  0.7816164E-02  0.1266605E+00
        -11   -1    0    0    0    0  0.00000000000E+00  0.00000000000E+00  0.45593999997E+02  0.45594000000E+02  0.51100000000E-03 0.  1.
         11   -1    0    0    0    0 -0.00000000000E+00 -0.00000000000E+00 -0.45593999997E+02  0.45594000000E+02  0.51100000000E-03 0. -1.
    9900012    2    1    2    0    0 -0.26626242756E+02 -0.14231294526E+02  0.10258382378E+02  0.59301937901E+02  0.49999988826E+02 0.  0.
         12    1    1    2    0    0  0.26626242756E+02  0.14231294526E+02 -0.10258382378E+02  0.31886062099E+02  0.00000000000E+00 0. -1.
         11    1    3    3    0    0 -0.33054434803E+02 -0.71179274806E+01 -0.33100135768E+01  0.33973765495E+02  0.51100000000E-03 0. -1.
        -11    1    3    3    0    0  0.33447767461E+01 -0.88501326390E+01  0.17588903295E+02  0.19972027904E+02  0.51100000000E-03 0.  1.
         12    1    3    3    0    0  0.30834153012E+01  0.17367655938E+01 -0.40205073402E+01  0.53561445014E+01  0.00000000000E+00 0. -1.
</event>
<event>
 7    1  0.4346085E-013  0.5930197E+02  0.7816164E-02  0.1266605E+00
        -11   -1    0    0    0    0  0.00000000000E+00  0.00000000000E+00  0.45593999997E+02  0.45594000000E+02  0.51100000000E-03 0. -1.
         11   -1    0    0    0    0 -0.00000000000E+00 -0.00000000000E+00 -0.45593999997E+02  0.45594000000E+02  0.51100000000E-03 0.  1.
    9900012    2    1    2    0    0 -0.30442807315E+02 -0.78045662208E+01  0.53891959986E+01  0.59301965367E+02  0.50000038918E+02 0.  0.
         12    1    1    2    0    0  0.30442807315E+02  0.78045662208E+01 -0.53891959986E+01  0.31886034633E+02  0.00000000000E+00 0. -1.
         11    1    3    3    0    0 -0.14591702173E+01 -0.58283433945E+01  0.12878886932E+02  0.14211421228E+02  0.51100000000E-03 0. -1.
        -11    1    3    3    0    0 -0.14517759257E+02  0.59157112720E+01 -0.19264705593E+02  0.24837267473E+02  0.51100000000E-03 0.  1.
        -12    1    3    3    0    0 -0.14465877840E+02 -0.78919340983E+01  0.11775014659E+02  0.20253276666E+02  0.00000000000E+00 0.  1.
</event>
<event>
 7    1  0.4346085E-013  0.5930194E+02  0.7816164E-02  0.1266605E+00
        -11   -1    0    0    0    0  0.00000000000E+00  0.00000000000E+00  0.45593999997E+02  0.45594000000E+02  0.51100000000E-03 0. -1.
         11   -1    0    0    0    0 -0.00000000000E+00 -0.00000000000E+00 -0.45593999997E+02  0.45594000000E+02  0.51100000000E-03 0.  1.
    9900012    2    1    2    0    0 -0.15725872527E+02  0.26977284860E+01 -0.27606884137E+02  0.59301939449E+02  0.49999991649E+02 0.  0.
         12    1    1    2    0    0  0.15725872527E+02 -0.26977284860E+01  0.27606884137E+02  0.31886060551E+02  0.00000000000E+00 0. -1.
         11    1    3    3    0    0 -0.16814435003E+01  0.27978450904E+01  0.13299819532E+02  0.13694538665E+02  0.51100000000E-03 0. -1.
        -11    1    3    3    0    0 -0.91646422691E+01  0.67336196728E+01 -0.18960454586E+02  0.22109526005E+02  0.51100000000E-03 0.  1.
         12    1    3    3    0    0 -0.48797867578E+01 -0.68337362771E+01 -0.21946249083E+02  0.23497874779E+02  0.00000000000E+00 0. -1.
</event>
<event>
 7    1  0.4346085E-013  0.5930185E+02  0.7816164E-02  0.1266605E+00
        -11   -1    0    0    0    0  0.00000000000E+00  0.00000000000E+00  0.45593999997E+02  0.45594000000E+02  0.51100000000E-03 0.  1.
         11   -1    0    0    0    0 -0.00000000000E+00 -0.00000000000E+00 -0.45593999997E+02  0.45594000000E+02  0.51100000000E-03 0. -1.
    9900012    2    1    2    0    0 -0.17846755773E+02  0.15644834858E+02  0.21294569699E+02  0.59301854921E+02  0.49999837491E+02 0.  0.
         12    1    1    2    0    0  0.17846755773E+02 -0.15644834858E+02 -0.21294569699E+02  0.31886145079E+02  0.00000000000E+00 0. -1.
         11    1    3    3    0    0 -0.20619185155E+02  0.15762338583E+01 -0.96514581827E+01  0.22820735197E+02  0.51100000000E-03 0. -1.
        -11    1    3    3    0    0 -0.37911309507E+01  0.97719792149E+01  0.11759511641E+02  0.15752789149E+02  0.51100000000E-03 0.  1.
         12    1    3    3    0    0  0.65635603329E+01  0.42966217844E+01  0.19186516240E+02  0.20728330575E+02  0.00000000000E+00 0. -1.
</event>
<event>
 7    1  0.4346085E-013  0.5930198E+02  0.7816164E-02  0.1266605E+00
        -11   -1    0    0    0    0  0.00000000000E+00  0.00000000000E+00  0.45593999997E+02  0.45594000000E+02  0.51100000000E-03 0. -1.
         11   -1    0    0    0    0 -0.00000000000E+00 -0.00000000000E+00 -0.45593999997E+02  0.45594000000E+02  0.51100000000E-03 0.  1.
    9900012    2    1    2    0    0 -0.12540957974E+02  0.26045270772E+02 -0.13456832370E+02  0.59301982784E+02  0.50000070681E+02 0.  0.
         12    1    1    2    0    0  0.12540957974E+02 -0.26045270772E+02  0.13456832370E+02  0.31886017216E+02  0.00000000000E+00 0. -1.
         11    1    3    3    0    0 -0.64625718260E+01 -0.12831272945E+02  0.57212462417E+01  0.15464121663E+02  0.51100000000E-03 0. -1.
        -11    1    3    3    0    0 -0.37517772047E+01  0.28491625864E+02 -0.13105267851E+02  0.31584753004E+02  0.51100000000E-03 0.  1.
         12    1    3    3    0    0 -0.23266089432E+01  0.10384917853E+02 -0.60728107603E+01  0.12253108117E+02  0.00000000000E+00 0. -1.
</event>
<event>
 7    1  0.4346085E-013  0.5930194E+02  0.7816164E-02  0.1266605E+00
        -11   -1    0    0    0    0  0.00000000000E+00  0.00000000000E+00  0.45593999997E+02  0.45594000000E+02  0.51100000000E-03 0.  1.
         11   -1    0    0    0    0 -0.00000000000E+00 -0.00000000000E+00 -0.45593999997E+02  0.45594000000E+02  0.51100000000E-03 0. -1.
    9900012    2    1    2    0    0 -0.70429342543E+01  0.31015906324E+02 -0.22653050453E+01  0.59301937606E+02  0.49999988289E+02 0.  0.
         12    1    1    2    0    0  0.70429342543E+01 -0.31015906324E+02  0.22653050453E+01  0.31886062394E+02  0.00000000000E+00 0. -1.
         11    1    3    3    0    0 -0.20501108626E+01 -0.82738163267E+01  0.16588951163E+01  0.86839463624E+01  0.51100000000E-03 0.  1.
        -11    1    3    3    0    0 -0.11087925274E+02  0.38520341431E+02  0.43419731755E+01  0.40318873027E+02  0.51100000000E-03 0. -1.
         12    1    3    3    0    0  0.60951018820E+01  0.76938122018E+00 -0.82661733370E+01  0.10299118217E+02  0.00000000000E+00 0. -1.
</event>
<event>
 7    1  0.4346085E-013  0.5930194E+02  0.7816164E-02  0.1266605E+00
        -11   -1    0    0    0    0  0.00000000000E+00  0.00000000000E+00  0.45593999997E+02  0.45594000000E+02  0.51100000000E-03 0. -1.
         11   -1    0    0    0    0 -0.00000000000E+00 -0.00000000000E+00 -0.45593999997E+02  0.45594000000E+02  0.51100000000E-03 0.  1.
    9900012    2    1    2    0    0  0.64704054677E+01  0.28917527805E+02 -0.11774173159E+02  0.59301941685E+02  0.49999995727E+02 0.  0.
         12    1    1    2    0    0 -0.64704054677E+01 -0.28917527805E+02  0.11774173159E+02  0.31886058315E+02  0.00000000000E+00 0. -1.
         11    1    3    3    0    0  0.84717133145E+01  0.40401572082E+00  0.42629860454E+01  0.94924288499E+01  0.51100000000E-03 0. -1.
        -11    1    3    3    0    0  0.60677668914E+00  0.29530258106E+02 -0.26068413816E+02  0.39395006294E+02  0.51100000000E-03 0.  1.
        -12    1    3    3    0    0 -0.26080845360E+01 -0.10167460211E+01  0.10031254612E+02  0.10414506541E+02  0.00000000000E+00 0.  1.
</event>
<event>
 7    1  0.4346085E-013  0.5930190E+02  0.7816164E-02  0.1266605E+00
        -11   -1    0    0    0    0  0.00000000000E+00  0.00000000000E+00  0.45593999997E+02  0.45594000000E+02  0.51100000000E-03 0.  1.
         11   -1    0    0    0    0 -0.00000000000E+00 -0.00000000000E+00 -0.45593999997E+02  0.45594000000E+02  0.51100000000E-03 0. -1.
    9900012    2    1    2    0    0 -0.41098185592E+01  0.16912887187E+01  0.31574867573E+02  0.59301900703E+02  0.49999920986E+02 0.  0.
         12    1    1    2    0    0  0.41098185592E+01 -0.16912887187E+01 -0.31574867573E+02  0.31886099297E+02  0.00000000000E+00 0. -1.
         11    1    3    3    0    0  0.30141052061E+01 -0.67491390066E+01 -0.11775362374E+02  0.13903052428E+02  0.51100000000E-03 0. -1.
        -11    1    3    3    0    0  0.52480247048E+00  0.50743143918E+01  0.15091148783E+02  0.15930061394E+02  0.51100000000E-03 0.  1.
         12    1    3    3    0    0 -0.76487262358E+01  0.33661133334E+01  0.28259081164E+02  0.29468786881E+02  0.00000000000E+00 0. -1.
</event>
<event>
 7    1  0.4346085E-013  0.5930195E+02  0.7816164E-02  0.1266605E+00
        -11   -1    0    0    0    0  0.00000000000E+00  0.00000000000E+00  0.45593999997E+02  0.45594000000E+02  0.51100000000E-03 0. -1.
         11   -1    0    0    0    0 -0.00000000000E+00 -0.00000000000E+00 -0.45593999997E+02  0.45594000000E+02  0.51100000000E-03 0.  1.
    9900012    2    1    2    0    0  0.29948238033E+02 -0.59258852528E+01 -0.92036579127E+01  0.59301946680E+02  0.50000004838E+02 0.  0.
         12    1    1    2    0    0 -0.29948238033E+02  0.59258852528E+01  0.92036579127E+01  0.31886053320E+02  0.00000000000E+00 0. -1.
         11    1    3    3    0    0  0.18643629167E+02  0.14867961472E+02 -0.14189159422E+02  0.27748395128E+02  0.51100000000E-03 0. -1.
        -11    1    3    3    0    0 -0.36246411575E+01 -0.11197056531E+02 -0.29181768327E+01  0.12125504310E+02  0.51100000000E-03 0.  1.
         12    1    3    3    0    0  0.14929250024E+02 -0.95967901934E+01  0.79036783419E+01  0.19428047242E+02  0.00000000000E+00 0. -1.
</event>
<event>
 7    1  0.4346085E-013  0.5930193E+02  0.7816164E-02  0.1266605E+00
        -11   -1    0    0    0    0  0.00000000000E+00  0.00000000000E+00  0.45593999997E+02  0.45594000000E+02  0.51100000000E-03 0.  1.
         11   -1    0    0    0    0 -0.00000000000E+00 -0.00000000000E+00 -0.45593999997E+02  0.45594000000E+02  0.51100000000E-03 0. -1.
    9900012    2    1    2    0    0 -0.22140142343E+01 -0.10375791800E+02  0.30069295477E+02  0.59301930236E+02  0.49999974847E+02 0.  0.
         12    1    1    2    0    0  0.22140142343E+01  0.10375791800E+02 -0.30069295477E+02  0.31886069764E+02  0.00000000000E+00 0. -1.
         11    1    3    3    0    0 -0.59201417739E+01 -0.78170450654E+01 -0.64311773793E+01  0.11726649774E+02  0.51100000000E-03 0. -1.
        -11    1    3    3    0    0 -0.37074496597E+01 -0.69472545674E+01  0.38020231618E+02  0.38827149542E+02  0.51100000000E-03 0.  1.
        -12    1    3    3    0    0  0.74135771992E+01  0.43885078332E+01 -0.15197587619E+01  0.87481309195E+01  0.00000000000E+00 0.  1.
</event>
<event>
 7    1  0.4346085E-013  0.5930196E+02  0.7816164E-02  0.1266605E+00
        -11   -1    0    0    0    0  0.00000000000E+00  0.00000000000E+00  0.45593999997E+02  0.45594000000E+02  0.51100000000E-03 0.  1.
         11   -1    0    0    0    0 -0.00000000000E+00 -0.00000000000E+00 -0.45593999997E+02  0.45594000000E+02  0.51100000000E-03 0. -1.
    9900012    2    1    2    0    0  0.65764382017E+01  0.13422843251E+02  0.28165535374E+02  0.59301958488E+02  0.50000026372E+02 0.  0.
         12    1    1    2    0    0 -0.65764382017E+01 -0.13422843251E+02 -0.28165535374E+02  0.31886041512E+02  0.00000000000E+00 0. -1.
         11    1    3    3    0    0  0.61479142063E+01  0.10633937220E+02 -0.74960107748E+01  0.14389845297E+02  0.51100000000E-03 0. -1.
        -11    1    3    3    0    0  0.47097835008E+00 -0.11590784010E+02  0.92384326169E+01  0.14829589746E+02  0.51100000000E-03 0.  1.
        -12    1    3    3    0    0 -0.42454354612E-01  0.14379690042E+02  0.26423113532E+02  0.30082523445E+02  0.00000000000E+00 0.  1.
</event>
<event>
 7    1  0.4346085E-013  0.5930194E+02  0.7816164E-02  0.1266605E+00
        -11   -1    0    0    0    0  0.00000000000E+00  0.00000000000E+00  0.45593999997E+02  0.45594000000E+02  0.51100000000E-03 0. -1.
         11   -1    0    0    0    0 -0.00000000000E+00 -0.00000000000E+00 -0.45593999997E+02  0.45594000000E+02  0.51100000000E-03 0.  1.
    9900012    2    1    2    0    0  0.16573019971E+02 -0.26425984212E+02  0.66123379277E+01  0.59301942774E+02  0.49999997714E+02 0.  0.
         12    1    1    2    0    0 -0.16573019971E+02  0.26425984212E+02 -0.66123379277E+01  0.31886057226E+02  0.00000000000E+00 0. -1.
         11    1    3    3    0    0  0.57108320747E+01 -0.32556905811E+02  0.11322770760E+02  0.34939531435E+02  0.51100000000E-03 0.  1.
        -11    1    3    3    0    0  0.45580385816E+01  0.46385157157E+01 -0.12584696110E+02  0.14165666952E+02  0.51100000000E-03 0. -1.
        -12    1    3    3    0    0  0.63041493151E+01  0.14924058837E+01  0.78742632784E+01  0.10196744387E+02  0.00000000000E+00 0.  1.
</event>
<event>
 7    1  0.4346085E-013  0.5930194E+02  0.7816164E-02  0.1266605E+00
        -11   -1    0    0    0    0  0.00000000000E+00  0.00000000000E+00  0.45593999997E+02  0.45594000000E+02  0.51100000000E-03 0.  1.
         11   -1    0    0    0    0 -0.00000000000E+00 -0.00000000000E+00 -0.45593999997E+02  0.45594000000E+02  0.51100000000E-03 0. -1.
    9900012    2    1    2    0    0  0.27732818882E+02  0.13247992393E+02 -0.84912967305E+01  0.59301942455E+02  0.49999997131E+02 0.  0.
         12    1    1    2    0    0 -0.27732818882E+02 -0.13247992393E+02  0.84912967305E+01  0.31886057545E+02  0.00000000000E+00 0. -1.
         11    1    3    3    0    0  0.14645463929E+02  0.33269073740E+00 -0.27577671694E+01  0.14906561537E+02  0.51100000000E-03 0. -1.
        -11    1    3    3    0    0 -0.93618406861E+01  0.61340009766E+01 -0.15393773709E+02  0.19032558900E+02  0.51100000000E-03 0.  1.
        -12    1    3    3    0    0  0.22449195639E+02  0.67813006793E+01  0.96602441475E+01  0.25362822018E+02  0.00000000000E+00 0.  1.
</event>
<event>
 7    1  0.4346085E-013  0.5930190E+02  0.7816164E-02  0.1266605E+00
        -11   -1    0    0    0    0  0.00000000000E+00  0.00000000000E+00  0.45593999997E+02  0.45594000000E+02  0.51100000000E-03 0. -1.
         11   -1    0    0    0    0 -0.00000000000E+00 -0.00000000000E+00 -0.45593999997E+02  0.45594000000E+02  0.51100000000E-03 0.  1.
    9900012    2    1    2    0    0  0.77776263507E+01  0.36228373289E+01 -0.30710041507E+02  0.59301904734E+02  0.49999928338E+02 0.  0.
         12    1    1    2    0    0 -0.77776263507E+01 -0.36228373289E+01  0.30710041507E+02  0.31886095266E+02  0.00000000000E+00 0. -1.
         11    1    3    3    0    0  0.19772447143E+02  0.98816565294E+00 -0.30171260415E+02  0.36086439179E+02  0.51100000000E-03 0.  1.
        -11    1    3    3    0    0 -0.11531403681E+02  0.10118313365E+02  0.15839782951E+01  0.15422792345E+02  0.51100000000E-03 0. -1.
         12    1    3    3    0    0 -0.46341711100E+00 -0.74836416887E+01 -0.21227593872E+01  0.77926732101E+01  0.00000000000E+00 0. -1.
</event>
<event>
 7    1  0.4346085E-013  0.5930197E+02  0.7816164E-02  0.1266605E+00
        -11   -1    0    0    0    0  0.00000000000E+00  0.00000000000E+00  0.45593999997E+02  0.45594000000E+02  0.51100000000E-03 0.  1.
         11   -1    0    0    0    0 -0.00000000000E+00 -0.00000000000E+00 -0.45593999997E+02  0.45594000000E+02  0.51100000000E-03 0. -1.
    9900012    2    1    2    0    0 -0.22975177195E+02 -0.95292081156E+01  0.19951291496E+02  0.59301974741E+02  0.50000056013E+02 0.  0.
         12    1    1    2    0    0  0.22975177195E+02  0.95292081156E+01 -0.19951291496E+02  0.31886025259E+02  0.00000000000E+00 0. -1.
         11    1    3    3    0    0 -0.62603177486E+01 -0.27043453799E+02  0.11269399654E+02  0.29958960939E+02  0.51100000000E-03 0. -1.
        -11    1    3    3    0    0 -0.18655807455E+02  0.13869920562E+02  0.49295339608E+01  0.23763715062E+02  0.51100000000E-03 0.  1.
         12    1    3    3    0    0  0.19409480084E+01  0.36443251214E+01  0.37523578814E+01  0.55792987402E+01  0.00000000000E+00 0. -1.
</event>
<event>
 7    1  0.4346085E-013  0.5930195E+02  0.7816164E-02  0.1266605E+00
        -11   -1    0    0    0    0  0.00000000000E+00  0.00000000000E+00  0.45593999997E+02  0.45594000000E+02  0.51100000000E-03 0. -1.
         11   -1    0    0    0    0 -0.00000000000E+00 -0.00000000000E+00 -0.45593999997E+02  0.45594000000E+02  0.51100000000E-03 0.  1.
    9900012    2    1    2    0    0  0.43113878200E+01 -0.27473739322E+02 -0.15598902644E+02  0.59301950057E+02  0.50000010996E+02 0.  0.
         12    1    1    2    0    0 -0.43113878200E+01  0.27473739322E+02  0.15598902644E+02  0.31886049943E+02  0.00000000000E+00 0. -1.
         11    1    3    3    0    0  0.23617418221E+02 -0.20659262812E+02 -0.27962246362E+01  0.31502483328E+02  0.51100000000E-03 0. -1.
        -11    1    3    3    0    0 -0.17292406472E+02 -0.96282334205E+01 -0.13881761045E+02  0.24175059263E+02  0.51100000000E-03 0.  1.
         12    1    3    3    0    0 -0.20136239290E+01  0.28137569110E+01  0.10790830374E+01  0.36244074665E+01  0.00000000000E+00 0. -1.
</event>
<event>
 7    1  0.4346085E-013  0.5930200E+02  0.7816164E-02  0.1266605E+00
        -11   -1    0    0    0    0  0.00000000000E+00  0.00000000000E+00  0.45593999997E+02  0.45594000000E+02  0.51100000000E-03 0.  1.
         11   -1    0    0    0    0 -0.00000000000E+00 -0.00000000000E+00 -0.45593999997E+02  0.45594000000E+02  0.51100000000E-03 0. -1.
    9900012    2    1    2    0    0 -0.58542932232E+01  0.28431978289E+02  0.13193441251E+02  0.59301999457E+02  0.50000101090E+02 0.  0.
         12    1    1    2    0    0  0.58542932232E+01 -0.28431978289E+02 -0.13193441251E+02  0.31886000543E+02  0.00000000000E+00 0. -1.
         11    1    3    3    0    0 -0.58762484015E+01  0.38468800100E+02  0.41269217195E+01  0.39133238552E+02  0.51100000000E-03 0. -1.
        -11    1    3    3    0    0 -0.61324604609E+01 -0.43135375171E+00  0.10768576645E+01  0.62412146297E+01  0.51100000000E-03 0.  1.
         12    1    3    3    0    0  0.61544156392E+01 -0.96054680595E+01  0.79896618674E+01  0.13927546275E+02  0.00000000000E+00 0. -1.
</event>
<event>
 7    1  0.4346085E-013  0.5930186E+02  0.7816164E-02  0.1266605E+00
        -11   -1    0    0    0    0  0.00000000000E+00  0.00000000000E+00  0.45593999997E+02  0.45594000000E+02  0.51100000000E-03 0.  1.
         11   -1    0    0    0    0 -0.00000000000E+00 -0.00000000000E+00 -0.45593999997E+02  0.45594000000E+02  0.51100000000E-03 0. -1.
    9900012    2    1    2    0    0  0.66692323593E-01  0.19853099677E+02  0.24951474883E+02  0.59301857031E+02  0.49999841338E+02 0.  0.
         12    1    1    2    0    0 -0.66692323593E-01 -0.19853099677E+02 -0.24951474883E+02  0.31886142969E+02  0.00000000000E+00 0. -1.
         11    1    3    3    0    0 -0.19612324404E+02  0.16081443228E+02  0.25737549166E+02  0.36134160045E+02  0.51100000000E-03 0. -1.
        -11    1    3    3    0    0  0.18529838879E+02 -0.67439731696E+00 -0.24464130363E+00  0.18543721046E+02  0.51100000000E-03 0.  1.
         12    1    3    3    0    0  0.11491778495E+01  0.44460537658E+01 -0.54143297955E+00  0.46239759395E+01  0.00000000000E+00 0. -1.
</event>
<event>
 7    1  0.4346085E-013  0.5930192E+02  0.7816164E-02  0.1266605E+00
        -11   -1    0    0    0    0  0.00000000000E+00  0.00000000000E+00  0.45593999997E+02  0.45594000000E+02  0.51100000000E-03 0. -1.
         11   -1    0    0    0    0 -0.00000000000E+00 -0.00000000000E+00 -0.45593999997E+02  0.45594000000E+02  0.51100000000E-03 0.  1.
    9900012    2    1    2    0    0  0.24276035461E+02  0.76339358331E+01 -0.19212474953E+02  0.59301920469E+02  0.49999957035E+02 0.  0.
         12    1    1    2    0    0 -0.24276035461E+02 -0.76339358331E+01  0.19212474953E+02  0.31886079531E+02  0.00000000000E+00 0. -1.
         11    1    3    3    0    0  0.14217954474E+02  0.10027765903E+02 -0.40286937768E+01  0.17858798735E+02  0.51100000000E-03 0. -1.
        -11    1    3    3    0    0 -0.72317173036E+01 -0.97424695223E+01 -0.18737964165E+02  0.22323188591E+02  0.51100000000E-03 0.  1.
        -12    1    3    3    0    0  0.17289798290E+02  0.73486394520E+01  0.35541829884E+01  0.19119933144E+02  0.00000000000E+00 0.  1.
</event>
<event>
 7    1  0.4346085E-013  0.5930193E+02  0.7816164E-02  0.1266605E+00
        -11   -1    0    0    0    0  0.00000000000E+00  0.00000000000E+00  0.45593999997E+02  0.45594000000E+02  0.51100000000E-03 0.  1.
         11   -1    0    0    0    0 -0.00000000000E+00 -0.00000000000E+00 -0.45593999997E+02  0.45594000000E+02  0.51100000000E-03 0. -1.
    9900012    2    1    2    0    0  0.16411107121E+02 -0.27065165932E+02 -0.38566269696E+01  0.59301933836E+02  0.49999981412E+02 0.  0.
         12    1    1    2    0    0 -0.16411107121E+02  0.27065165932E+02  0.38566269696E+01  0.31886066164E+02  0.00000000000E+00 0. -1.
         11    1    3    3    0    0  0.24613528034E+02 -0.31519919881E+02  0.32639598484E+01  0.40124612718E+02  0.51100000000E-03 0. -1.
        -11    1    3    3    0    0 -0.10620284746E+02 -0.12787466771E+01 -0.73029702029E+01  0.12952181870E+02  0.51100000000E-03 0.  1.
        -12    1    3    3    0    0  0.24178638331E+01  0.57335006265E+01  0.18238338498E+00  0.62251392474E+01  0.00000000000E+00 0.  1.
</event>
<event>
 7    1  0.4346085E-013  0.5930192E+02  0.7816164E-02  0.1266605E+00
        -11   -1    0    0    0    0  0.00000000000E+00  0.00000000000E+00  0.45593999997E+02  0.45594000000E+02  0.51100000000E-03 0.  1.
         11   -1    0    0    0    0 -0.00000000000E+00 -0.00000000000E+00 -0.45593999997E+02  0.45594000000E+02  0.51100000000E-03 0. -1.
    9900012    2    1    2    0    0  0.18550843175E+02  0.21401541269E+02 -0.14647944242E+02  0.59301921193E+02  0.49999958355E+02 0.  0.
         12    1    1    2    0    0 -0.18550843175E+02 -0.21401541269E+02  0.14647944242E+02  0.31886078807E+02  0.00000000000E+00 0. -1.
         11    1    3    3    0    0  0.34702767148E+01 -0.38509058000E+01 -0.21276331880E+02  0.21898734998E+02  0.51100000000E-03 0. -1.
        -11    1    3    3    0    0  0.18574971007E+02  0.13640164681E+02  0.95238128996E+01  0.24935650239E+02  0.51100000000E-03 0.  1.
        -12    1    3    3    0    0 -0.34944045466E+01  0.11612282387E+02 -0.28954252611E+01  0.12467535956E+02  0.00000000000E+00 0.  1.
</event>
<event>
 7    1  0.4346085E-013  0.5930193E+02  0.7816164E-02  0.1266605E+00
        -11   -1    0    0    0    0  0.00000000000E+00  0.00000000000E+00  0.45593999997E+02  0.45594000000E+02  0.51100000000E-03 0.  1.
         11   -1    0    0    0    0 -0.00000000000E+00 -0.00000000000E+00 -0.45593999997E+02  0.45594000000E+02  0.51100000000E-03 0. -1.
    9900012    2    1    2    0    0  0.23276257903E+02  0.21778225911E+02 -0.80366649019E+00  0.59301934303E+02  0.49999982265E+02 0.  0.
         12    1    1    2    0    0 -0.23276257903E+02 -0.21778225911E+02  0.80366649019E+00  0.31886065697E+02  0.00000000000E+00 0. -1.
         11    1    3    3    0    0  0.15878537997E+02 -0.58923466541E+01 -0.15248682857E+02  0.22789691687E+02  0.51100000000E-03 0. -1.
        -11    1    3    3    0    0 -0.49583087050E+01  0.15155433524E+02  0.69693912411E+01  0.17402425263E+02  0.51100000000E-03 0.  1.
        -12    1    3    3    0    0  0.12356028611E+02  0.12515139041E+02  0.74756251261E+01  0.19109817353E+02  0.00000000000E+00 0.  1.
</event>
<event>
 7    1  0.4346085E-013  0.5930194E+02  0.7816164E-02  0.1266605E+00
        -11   -1    0    0    0    0  0.00000000000E+00  0.00000000000E+00  0.45593999997E+02  0.45594000000E+02  0.51100000000E-03 0.  1.
         11   -1    0    0    0    0 -0.00000000000E+00 -0.00000000000E+00 -0.45593999997E+02  0.45594000000E+02  0.51100000000E-03 0. -1.
    9900012    2    1    2    0    0 -0.19602944644E+02 -0.22981124401E+02  0.10213376230E+02  0.59301943934E+02  0.49999999828E+02 0.  0.
         12    1    1    2    0    0  0.19602944644E+02  0.22981124401E+02 -0.10213376230E+02  0.31886056066E+02  0.00000000000E+00 0. -1.
         11    1    3    3    0    0  0.11107309340E+02 -0.27066317181E+01  0.34541232284E+01  0.11942744390E+02  0.51100000000E-03 0.  1.
        -11    1    3    3    0    0 -0.16326235038E+02  0.56082458150E+01  0.26101757837E+01  0.17458848459E+02  0.51100000000E-03 0. -1.
        -12    1    3    3    0    0 -0.14384018946E+02 -0.25882738498E+02  0.41490772178E+01  0.29900351084E+02  0.00000000000E+00 0.  1.
</event>
<event>
 7    1  0.4616603E-013  0.5930195E+02  0.7816164E-02  0.1266605E+00
        -11   -1    0    0    0    0  0.00000000000E+00  0.00000000000E+00  0.45593999997E+02  0.45594000000E+02  0.51100000000E-03 0.  1.
         11   -1    0    0    0    0 -0.00000000000E+00 -0.00000000000E+00 -0.45593999997E+02  0.45594000000E+02  0.51100000000E-03 0. -1.
    9900012    2    1    2    0    0  0.56326974471E+01 -0.21270086980E+02 -0.23077614890E+02  0.59301949921E+02  0.50000010747E+02 0.  0.
         12    1    1    2    0    0 -0.56326974471E+01  0.21270086980E+02  0.23077614890E+02  0.31886050079E+02  0.00000000000E+00 0. -1.
         11    1    3    3    0    0 -0.44821975109E+01  0.59126606225E+01 -0.17102799805E+01  0.76141124260E+01  0.51100000000E-03 0. -1.
        -11    1    3    3    0    0  0.58473217667E+01 -0.20293676196E+02 -0.31986580753E+02  0.38329698850E+02  0.51100000000E-03 0.  1.
        -12    1    3    3    0    0  0.42675731913E+01 -0.68890714061E+01  0.10619245843E+02  0.13358138645E+02  0.00000000000E+00 0.  1.
</event>
<event>
 7    1  0.4346085E-013  0.5930196E+02  0.7816164E-02  0.1266605E+00
        -11   -1    0    0    0    0  0.00000000000E+00  0.00000000000E+00  0.45593999997E+02  0.45594000000E+02  0.51100000000E-03 0.  1.
         11   -1    0    0    0    0 -0.00000000000E+00 -0.00000000000E+00 -0.45593999997E+02  0.45594000000E+02  0.51100000000E-03 0. -1.
    9900012    2    1    2    0    0  0.66146285085E+01 -0.11987320953E+02  0.28797054834E+02  0.59301960092E+02  0.50000029297E+02 0.  0.
         12    1    1    2    0    0 -0.66146285085E+01  0.11987320953E+02 -0.28797054834E+02  0.31886039908E+02  0.00000000000E+00 0. -1.
         11    1    3    3    0    0 -0.16834591478E+01  0.22334234937E+01 -0.75840869468E+01  0.80833526635E+01  0.51100000000E-03 0. -1.
        -11    1    3    3    0    0  0.20531266518E+02 -0.10162237404E+02  0.20291302318E+02  0.30602956131E+02  0.51100000000E-03 0.  1.
         12    1    3    3    0    0 -0.12233178862E+02 -0.40585070422E+01  0.16089839463E+02  0.20615651297E+02  0.00000000000E+00 0. -1.
</event>
<event>
 7    1  0.4346085E-013  0.5930194E+02  0.7816164E-02  0.1266605E+00
        -11   -1    0    0    0    0  0.00000000000E+00  0.00000000000E+00  0.45593999997E+02  0.45594000000E+02  0.51100000000E-03 0. -1.
         11   -1    0    0    0    0 -0.00000000000E+00 -0.00000000000E+00 -0.45593999997E+02  0.45594000000E+02  0.51100000000E-03 0.  1.
    9900012    2    1    2    0    0  0.12239060363E+02 -0.23438133505E+02 -0.17820778674E+02  0.59301939514E+02  0.49999991769E+02 0.  0.
         12    1    1    2    0    0 -0.12239060363E+02  0.23438133505E+02  0.17820778674E+02  0.31886060486E+02  0.00000000000E+00 0. -1.
         11    1    3    3    0    0  0.54837699139E+01 -0.28636089646E+02  0.31285932240E+01  0.29323803616E+02  0.51100000000E-03 0. -1.
        -11    1    3    3    0    0  0.75363724286E+01  0.10528945566E+02 -0.63603733323E+01  0.14426016543E+02  0.51100000000E-03 0.  1.
         12    1    3    3    0    0 -0.78108197958E+00 -0.53309894240E+01 -0.14588998566E+02  0.15552119355E+02  0.00000000000E+00 0. -1.
</event>
<event>
 7    1  0.4346085E-013  0.5930185E+02  0.7816164E-02  0.1266605E+00
        -11   -1    0    0    0    0  0.00000000000E+00  0.00000000000E+00  0.45593999997E+02  0.45594000000E+02  0.51100000000E-03 0.  1.
         11   -1    0    0    0    0 -0.00000000000E+00 -0.00000000000E+00 -0.45593999997E+02  0.45594000000E+02  0.51100000000E-03 0. -1.
    9900012    2    1    2    0    0  0.25072253530E+02  0.12636366298E+02  0.15113931016E+02  0.59301850012E+02  0.49999828538E+02 0.  0.
         12    1    1    2    0    0 -0.25072253530E+02 -0.12636366298E+02 -0.15113931016E+02  0.31886149988E+02  0.00000000000E+00 0. -1.
         11    1    3    3    0    0  0.23884617146E+02  0.98162806713E+01  0.29487746482E+02  0.39196447483E+02  0.51100000000E-03 0.  1.
        -11    1    3    3    0    0  0.27901519816E+01  0.39828988402E+00 -0.16351061864E+02  0.16592191152E+02  0.51100000000E-03 0. -1.
         12    1    3    3    0    0 -0.16025155973E+01  0.24217957430E+01  0.19772463977E+01  0.35132113768E+01  0.00000000000E+00 0. -1.
</event>
<event>
 7    1  0.4346085E-013  0.5930196E+02  0.7816164E-02  0.1266605E+00
        -11   -1    0    0    0    0  0.00000000000E+00  0.00000000000E+00  0.45593999997E+02  0.45594000000E+02  0.51100000000E-03 0.  1.
         11   -1    0    0    0    0 -0.00000000000E+00 -0.00000000000E+00 -0.45593999997E+02  0.45594000000E+02  0.51100000000E-03 0. -1.
    9900012    2    1    2    0    0 -0.12420606179E+02 -0.20711826196E+02  0.20819907054E+02  0.59301957098E+02  0.50000023836E+02 0.  0.
         12    1    1    2    0    0  0.12420606179E+02  0.20711826196E+02 -0.20819907054E+02  0.31886042902E+02  0.00000000000E+00 0. -1.
         11    1    3    3    0    0  0.36743301795E+01  0.19525822290E+01 -0.97074205346E+01  0.10561595207E+02  0.51100000000E-03 0. -1.
        -11    1    3    3    0    0 -0.94119538581E+01 -0.18044425355E+02  0.34221260424E+02  0.39815585229E+02  0.51100000000E-03 0.  1.
        -12    1    3    3    0    0 -0.66829825004E+01 -0.46199830701E+01 -0.36939328354E+01  0.89247766617E+01  0.00000000000E+00 0.  1.
</event>
<event>
 7    1  0.4346085E-013  0.5930195E+02  0.7816164E-02  0.1266605E+00
        -11   -1    0    0    0    0  0.00000000000E+00  0.00000000000E+00  0.45593999997E+02  0.45594000000E+02  0.51100000000E-03 0.  1.
         11   -1    0    0    0    0 -0.00000000000E+00 -0.00000000000E+00 -0.45593999997E+02  0.45594000000E+02  0.51100000000E-03 0. -1.
    9900012    2    1    2    0    0 -0.16260477097E+02  0.10074532358E+02  0.25511196372E+02  0.59301945713E+02  0.50000003073E+02 0.  0.
         12    1    1    2    0    0  0.16260477097E+02 -0.10074532358E+02 -0.25511196372E+02  0.31886054287E+02  0.00000000000E+00 0. -1.
         11    1    3    3    0    0 -0.20359834715E+02  0.14282962670E+02  0.13219515881E+02  0.28165253286E+02  0.51100000000E-03 0.  1.
        -11    1    3    3    0    0  0.59520455095E+01 -0.13498580223E+02  0.15244578288E+02  0.21214044433E+02  0.51100000000E-03 0. -1.
         12    1    3    3    0    0 -0.18526878919E+01  0.92901499114E+01 -0.29528977972E+01  0.99226479935E+01  0.00000000000E+00 0. -1.
</event>
<event>
 7    1  0.4346085E-013  0.5930195E+02  0.7816164E-02  0.1266605E+00
        -11   -1    0    0    0    0  0.00000000000E+00  0.00000000000E+00  0.45593999997E+02  0.45594000000E+02  0.51100000000E-03 0.  1.
         11   -1    0    0    0    0 -0.00000000000E+00 -0.00000000000E+00 -0.45593999997E+02  0.45594000000E+02  0.51100000000E-03 0. -1.
    9900012    2    1    2    0    0  0.29514275470E+02 -0.11150428807E+01 -0.12015996714E+02  0.59301953613E+02  0.50000017482E+02 0.  0.
         12    1    1    2    0    0 -0.29514275470E+02  0.11150428807E+01  0.12015996714E+02  0.31886046387E+02  0.00000000000E+00 0. -1.
         11    1    3    3    0    0 -0.31009348447E+01  0.50574116926E+01  0.47316991161E+01  0.75882927412E+01  0.51100000000E-03 0.  1.
        -11    1    3    3    0    0  0.26190894121E+02  0.12009241407E+02 -0.14630001417E+02  0.32314420245E+02  0.51100000000E-03 0. -1.
        -12    1    3    3    0    0  0.64243161939E+01 -0.18181695981E+02 -0.21176944123E+01  0.19399240627E+02  0.00000000000E+00 0.  1.
</event>
<event>
 7    1  0.4346085E-013  0.5930191E+02  0.7816164E-02  0.1266605E+00
        -11   -1    0    0    0    0  0.00000000000E+00  0.00000000000E+00  0.45593999997E+02  0.45594000000E+02  0.51100000000E-03 0.  1.
         11   -1    0    0    0    0 -0.00000000000E+00 -0.00000000000E+00 -0.45593999997E+02  0.45594000000E+02  0.51100000000E-03 0. -1.
    9900012    2    1    2    0    0 -0.54478027746E+01 -0.21109441540E+02  0.23268774829E+02  0.59301906491E+02  0.49999931541E+02 0.  0.
         12    1    1    2    0    0  0.54478027746E+01  0.21109441540E+02 -0.23268774829E+02  0.31886093509E+02  0.00000000000E+00 0. -1.
         11    1    3    3    0    0 -0.11547141995E+02  0.26658921279E+01  0.95626007958E+01  0.15227829896E+02  0.51100000000E-03 0. -1.
        -11    1    3    3    0    0  0.82450870177E+01 -0.19505518730E+02  0.24431832336E+02  0.32332045287E+02  0.51100000000E-03 0.  1.
        -12    1    3    3    0    0 -0.21457477970E+01 -0.42698149386E+01 -0.10725658303E+02  0.11742031308E+02  0.00000000000E+00 0.  1.
</event>
<event>
 7    1  0.4346085E-013  0.5930184E+02  0.7816164E-02  0.1266605E+00
        -11   -1    0    0    0    0  0.00000000000E+00  0.00000000000E+00  0.45593999997E+02  0.45594000000E+02  0.51100000000E-03 0. -1.
         11   -1    0    0    0    0 -0.00000000000E+00 -0.00000000000E+00 -0.45593999997E+02  0.45594000000E+02  0.51100000000E-03 0.  1.
    9900012    2    1    2    0    0 -0.18105105897E+02  0.23508765665E+02  0.11673472770E+02  0.59301844867E+02  0.49999819154E+02 0.  0.
         12    1    1    2    0    0  0.18105105897E+02 -0.23508765665E+02 -0.11673472770E+02  0.31886155133E+02  0.00000000000E+00 0. -1.
         11    1    3    3    0    0 -0.17823143463E+02  0.31065672606E+02  0.85120507865E+01  0.36812979589E+02  0.51100000000E-03 0. -1.
        -11    1    3    3    0    0 -0.20070926399E+01 -0.12020294388E+02  0.88456747802E+01  0.15058614166E+02  0.51100000000E-03 0.  1.
        -12    1    3    3    0    0  0.17251302058E+01  0.44633874470E+01 -0.56842527962E+01  0.74302511115E+01  0.00000000000E+00 0.  1.
</event>
<event>
 7    1  0.4346085E-013  0.5930187E+02  0.7816164E-02  0.1266605E+00
        -11   -1    0    0    0    0  0.00000000000E+00  0.00000000000E+00  0.45593999997E+02  0.45594000000E+02  0.51100000000E-03 0.  1.
         11   -1    0    0    0    0 -0.00000000000E+00 -0.00000000000E+00 -0.45593999997E+02  0.45594000000E+02  0.51100000000E-03 0. -1.
    9900012    2    1    2    0    0  0.28085971048E+02  0.11799350147E+02  0.94169305686E+01  0.59301874256E+02  0.49999872753E+02 0.  0.
         12    1    1    2    0    0 -0.28085971048E+02 -0.11799350147E+02 -0.94169305686E+01  0.31886125744E+02  0.00000000000E+00 0. -1.
         11    1    3    3    0    0  0.25341880805E+02  0.18744900678E+02 -0.10518586982E+02  0.33229849481E+02  0.51100000000E-03 0. -1.
        -11    1    3    3    0    0 -0.36068441184E+01 -0.44359116399E+01  0.82295836217E+00  0.57761490024E+01  0.51100000000E-03 0.  1.
         12    1    3    3    0    0  0.63509343613E+01 -0.25096388914E+01  0.19112559189E+02  0.20295875772E+02  0.00000000000E+00 0. -1.
</event>
<event>
 7    1  0.4346085E-013  0.5930187E+02  0.7816164E-02  0.1266605E+00
        -11   -1    0    0    0    0  0.00000000000E+00  0.00000000000E+00  0.45593999997E+02  0.45594000000E+02  0.51100000000E-03 0. -1.
         11   -1    0    0    0    0 -0.00000000000E+00 -0.00000000000E+00 -0.45593999997E+02  0.45594000000E+02  0.51100000000E-03 0.  1.
    9900012    2    1    2    0    0 -0.31522365375E+02  0.21292315523E+01 -0.43048993607E+01  0.59301869718E+02  0.49999864477E+02 0.  0.
         12    1    1    2    0    0  0.31522365375E+02 -0.21292315523E+01  0.43048993607E+01  0.31886130282E+02  0.00000000000E+00 0. -1.
         11    1    3    3    0    0 -0.34974937282E+02  0.15924064817E+00 -0.63846560826E+01  0.35553275925E+02  0.51100000000E-03 0.  1.
        -11    1    3    3    0    0  0.57267292780E+00 -0.32137140885E+01  0.11865494857E+02  0.12306334994E+02  0.51100000000E-03 0. -1.
         12    1    3    3    0    0  0.28798989791E+01  0.51837049926E+01 -0.97857381351E+01  0.11442258799E+02  0.00000000000E+00 0. -1.
</event>
<event>
 7    1  0.4346085E-013  0.5930195E+02  0.7816164E-02  0.1266605E+00
        -11   -1    0    0    0    0  0.00000000000E+00  0.00000000000E+00  0.45593999997E+02  0.45594000000E+02  0.51100000000E-03 0. -1.
         11   -1    0    0    0    0 -0.00000000000E+00 -0.00000000000E+00 -0.45593999997E+02  0.45594000000E+02  0.51100000000E-03 0.  1.
    9900012    2    1    2    0    0  0.20328387199E+02  0.23937138070E+02 -0.55218266741E+01  0.59301945447E+02  0.50000002589E+02 0.  0.
         12    1    1    2    0    0 -0.20328387199E+02 -0.23937138070E+02  0.55218266741E+01  0.31886054553E+02  0.00000000000E+00 0. -1.
         11    1    3    3    0    0  0.17461258521E+02  0.15683264463E+02  0.20019205485E+02  0.30848483299E+02  0.51100000000E-03 0. -1.
        -11    1    3    3    0    0 -0.25698689696E+01  0.31625784854E+01 -0.15017403363E+02  0.15560479852E+02  0.51100000000E-03 0.  1.
         12    1    3    3    0    0  0.54369976477E+01  0.50912951221E+01 -0.10523628796E+02  0.12892982296E+02  0.00000000000E+00 0. -1.
</event>
<event>
 7    1  0.4346085E-013  0.5930196E+02  0.7816164E-02  0.1266605E+00
        -11   -1    0    0    0    0  0.00000000000E+00  0.00000000000E+00  0.45593999997E+02  0.45594000000E+02  0.51100000000E-03 0.  1.
         11   -1    0    0    0    0 -0.00000000000E+00 -0.00000000000E+00 -0.45593999997E+02  0.45594000000E+02  0.51100000000E-03 0. -1.
    9900012    2    1    2    0    0 -0.24477704678E+02 -0.10645771039E+02  0.17442162480E+02  0.59301960746E+02  0.50000030491E+02 0.  0.
         12    1    1    2    0    0  0.24477704678E+02  0.10645771039E+02 -0.17442162480E+02  0.31886039254E+02  0.00000000000E+00 0. -1.
         11    1    3    3    0    0  0.95739564466E+01  0.99379835996E+01  0.43420283414E+01  0.14466422172E+02  0.51100000000E-03 0. -1.
        -11    1    3    3    0    0 -0.13810276017E+02 -0.63395851160E+01 -0.27524414632E+01  0.15443121361E+02  0.51100000000E-03 0.  1.
         12    1    3    3    0    0 -0.20241385107E+02 -0.14244169522E+02  0.15852575602E+02  0.29392417214E+02  0.00000000000E+00 0. -1.
</event>
<event>
 7    1  0.4346085E-013  0.5930191E+02  0.7816164E-02  0.1266605E+00
        -11   -1    0    0    0    0  0.00000000000E+00  0.00000000000E+00  0.45593999997E+02  0.45594000000E+02  0.51100000000E-03 0.  1.
         11   -1    0    0    0    0 -0.00000000000E+00 -0.00000000000E+00 -0.45593999997E+02  0.45594000000E+02  0.51100000000E-03 0. -1.
    9900012    2    1    2    0    0  0.19007242057E+02  0.18242129706E+02 -0.17963082640E+02  0.59301907660E+02  0.49999933673E+02 0.  0.
         12    1    1    2    0    0 -0.19007242057E+02 -0.18242129706E+02  0.17963082640E+02  0.31886092340E+02  0.00000000000E+00 0. -1.
         11    1    3    3    0    0 -0.55825653865E+01 -0.84817411225E+01  0.69371735889E+00  0.10177731221E+02  0.51100000000E-03 0. -1.
        -11    1    3    3    0    0  0.25097276644E+02  0.17590491859E+02 -0.27453528565E+01  0.30770694847E+02  0.51100000000E-03 0.  1.
        -12    1    3    3    0    0 -0.50746920087E+00  0.91333789694E+01 -0.15911447142E+02  0.18353481592E+02  0.00000000000E+00 0.  1.
</event>
<event>
 7    1  0.4346085E-013  0.5930194E+02  0.7816164E-02  0.1266605E+00
        -11   -1    0    0    0    0  0.00000000000E+00  0.00000000000E+00  0.45593999997E+02  0.45594000000E+02  0.51100000000E-03 0.  1.
         11   -1    0    0    0    0 -0.00000000000E+00 -0.00000000000E+00 -0.45593999997E+02  0.45594000000E+02  0.51100000000E-03 0. -1.
    9900012    2    1    2    0    0  0.29529910398E+02  0.11988831654E+02  0.98631768125E+00  0.59301944817E+02  0.50000001440E+02 0.  0.
         12    1    1    2    0    0 -0.29529910398E+02 -0.11988831654E+02 -0.98631768125E+00  0.31886055183E+02  0.00000000000E+00 0. -1.
         11    1    3    3    0    0 -0.11601082072E+02 -0.63392974119E+01  0.30718561337E+00  0.13223696918E+02  0.51100000000E-03 0. -1.
        -11    1    3    3    0    0  0.37807793340E+02  0.19374895255E+02 -0.20516644686E+00  0.42483619160E+02  0.51100000000E-03 0.  1.
        -12    1    3    3    0    0  0.33231991300E+01 -0.10467661892E+01  0.88429851474E+00  0.35946287396E+01  0.00000000000E+00 0.  1.
</event>
<event>
 7    1  0.4346085E-013  0.5930191E+02  0.7816164E-02  0.1266605E+00
        -11   -1    0    0    0    0  0.00000000000E+00  0.00000000000E+00  0.45593999997E+02  0.45594000000E+02  0.51100000000E-03 0. -1.
         11   -1    0    0    0    0 -0.00000000000E+00 -0.00000000000E+00 -0.45593999997E+02  0.45594000000E+02  0.51100000000E-03 0.  1.
    9900012    2    1    2    0    0 -0.61080607546E+01  0.21483017404E+02 -0.22757291095E+02  0.59301909914E+02  0.49999937786E+02 0.  0.
         12    1    1    2    0    0  0.61080607546E+01 -0.21483017404E+02  0.22757291095E+02  0.31886090086E+02  0.00000000000E+00 0. -1.
         11    1    3    3    0    0  0.21678984622E+01 -0.13965402998E+02  0.23408570251E+01  0.14325218201E+02  0.51100000000E-03 0. -1.
        -11    1    3    3    0    0 -0.67294382026E+01  0.13557958415E+02 -0.77631112226E+01  0.17010863323E+02  0.51100000000E-03 0.  1.
         12    1    3    3    0    0 -0.15465210142E+01  0.21890461988E+02 -0.17335036897E+02  0.27965828390E+02  0.00000000000E+00 0. -1.
</event>
<event>
 7    1  0.4346085E-013  0.5930195E+02  0.7816164E-02  0.1266605E+00
        -11   -1    0    0    0    0  0.00000000000E+00  0.00000000000E+00  0.45593999997E+02  0.45594000000E+02  0.51100000000E-03 0.  1.
         11   -1    0    0    0    0 -0.00000000000E+00 -0.00000000000E+00 -0.45593999997E+02  0.45594000000E+02  0.51100000000E-03 0. -1.
    9900012    2    1    2    0    0  0.61525452459E-01 -0.31575169162E+02 -0.44412681096E+01  0.59301953594E+02  0.50000017447E+02 0.  0.
         12    1    1    2    0    0 -0.61525452459E-01  0.31575169162E+02  0.44412681096E+01  0.31886046406E+02  0.00000000000E+00 0. -1.
         11    1    3    3    0    0  0.81789055984E+01  0.71354144386E+01 -0.59241805105E+01  0.12365457977E+02  0.51100000000E-03 0. -1.
        -11    1    3    3    0    0  0.64918993721E+01 -0.27738229330E+02 -0.95459830175E+00  0.28503778381E+02  0.51100000000E-03 0.  1.
         12    1    3    3    0    0 -0.14609279518E+02 -0.10972354270E+02  0.24375107027E+01  0.18432717236E+02  0.00000000000E+00 0. -1.
</event>
<event>
 7    1  0.4346085E-013  0.5930194E+02  0.7816164E-02  0.1266605E+00
        -11   -1    0    0    0    0  0.00000000000E+00  0.00000000000E+00  0.45593999997E+02  0.45594000000E+02  0.51100000000E-03 0.  1.
         11   -1    0    0    0    0 -0.00000000000E+00 -0.00000000000E+00 -0.45593999997E+02  0.45594000000E+02  0.51100000000E-03 0. -1.
    9900012    2    1    2    0    0  0.23397799604E+02 -0.21316840328E+02  0.38543994437E+01  0.59301935599E+02  0.49999984628E+02 0.  0.
         12    1    1    2    0    0 -0.23397799604E+02  0.21316840328E+02 -0.38543994437E+01  0.31886064401E+02  0.00000000000E+00 0. -1.
         11    1    3    3    0    0 -0.62331728662E+01 -0.16440317247E+02 -0.14870052753E+02  0.23027265237E+02  0.51100000000E-03 0. -1.
        -11    1    3    3    0    0  0.15809178699E+02 -0.63706730662E+01  0.87106074984E+01  0.19141324137E+02  0.51100000000E-03 0.  1.
         12    1    3    3    0    0  0.13821793771E+02  0.14941499848E+01  0.10013844698E+02  0.17133346225E+02  0.00000000000E+00 0. -1.
</event>
<event>
 7    1  0.4346085E-013  0.5930194E+02  0.7816164E-02  0.1266605E+00
        -11   -1    0    0    0    0  0.00000000000E+00  0.00000000000E+00  0.45593999997E+02  0.45594000000E+02  0.51100000000E-03 0.  1.
         11   -1    0    0    0    0 -0.00000000000E+00 -0.00000000000E+00 -0.45593999997E+02  0.45594000000E+02  0.51100000000E-03 0. -1.
    9900012    2    1    2    0    0 -0.23024246296E+02 -0.15587313207E+02  0.15608990738E+02  0.59301939686E+02  0.49999992082E+02 0.  0.
         12    1    1    2    0    0  0.23024246296E+02  0.15587313207E+02 -0.15608990738E+02  0.31886060314E+02  0.00000000000E+00 0. -1.
         11    1    3    3    0    0 -0.63947014201E+01 -0.15649495916E+02 -0.10087141198E+02  0.19686273047E+02  0.51100000000E-03 0. -1.
        -11    1    3    3    0    0 -0.21092737655E+02 -0.55488116530E+01  0.14064584155E+02  0.25951982974E+02  0.51100000000E-03 0.  1.
         12    1    3    3    0    0  0.44631927800E+01  0.56109943614E+01  0.11631547781E+02  0.13663683665E+02  0.00000000000E+00 0. -1.
</event>
<event>
 7    1  0.4346085E-013  0.5930198E+02  0.7816164E-02  0.1266605E+00
        -11   -1    0    0    0    0  0.00000000000E+00  0.00000000000E+00  0.45593999997E+02  0.45594000000E+02  0.51100000000E-03 0.  1.
         11   -1    0    0    0    0 -0.00000000000E+00 -0.00000000000E+00 -0.45593999997E+02  0.45594000000E+02  0.51100000000E-03 0. -1.
    9900012    2    1    2    0    0 -0.25065929742E+02 -0.34104923914E+01  0.19410970727E+02  0.59301983053E+02  0.50000071173E+02 0.  0.
         12    1    1    2    0    0  0.25065929742E+02  0.34104923914E+01 -0.19410970727E+02  0.31886016947E+02  0.00000000000E+00 0. -1.
         11    1    3    3    0    0  0.12437772533E+02  0.74493474648E+01  0.18918907076E+01  0.14620882803E+02  0.51100000000E-03 0. -1.
        -11    1    3    3    0    0 -0.31615079402E+02 -0.12395821890E+02  0.18250056447E+02  0.38551708218E+02  0.51100000000E-03 0.  1.
         12    1    3    3    0    0 -0.58886228727E+01  0.15359820335E+01 -0.73097642805E+00  0.61293920320E+01  0.00000000000E+00 0. -1.
</event>
<event>
 7    1  0.4346085E-013  0.5930196E+02  0.7816164E-02  0.1266605E+00
        -11   -1    0    0    0    0  0.00000000000E+00  0.00000000000E+00  0.45593999997E+02  0.45594000000E+02  0.51100000000E-03 0. -1.
         11   -1    0    0    0    0 -0.00000000000E+00 -0.00000000000E+00 -0.45593999997E+02  0.45594000000E+02  0.51100000000E-03 0.  1.
    9900012    2    1    2    0    0  0.18064346715E+02 -0.11673223288E+02 -0.23540062340E+02  0.59301963884E+02  0.50000036214E+02 0.  0.
         12    1    1    2    0    0 -0.18064346715E+02  0.11673223288E+02  0.23540062340E+02  0.31886036116E+02  0.00000000000E+00 0. -1.
         11    1    3    3    0    0  0.20639952349E+02 -0.10897107126E+01 -0.30387442909E+02  0.36750398491E+02  0.51100000000E-03 0.  1.
        -11    1    3    3    0    0 -0.76545409030E+01 -0.37435914821E+01  0.10292493228E+02  0.13361956845E+02  0.51100000000E-03 0. -1.
        -12    1    3    3    0    0  0.50789352687E+01 -0.68399210936E+01 -0.34451126598E+01  0.91896085482E+01  0.00000000000E+00 0.  1.
</event>
<event>
 7    1  0.4346085E-013  0.5930195E+02  0.7816164E-02  0.1266605E+00
        -11   -1    0    0    0    0  0.00000000000E+00  0.00000000000E+00  0.45593999997E+02  0.45594000000E+02  0.51100000000E-03 0.  1.
         11   -1    0    0    0    0 -0.00000000000E+00 -0.00000000000E+00 -0.45593999997E+02  0.45594000000E+02  0.51100000000E-03 0. -1.
    9900012    2    1    2    0    0 -0.13372470151E+02  0.11354970076E+01  0.28924177431E+02  0.59301947384E+02  0.50000006121E+02 0.  0.
         12    1    1    2    0    0  0.13372470151E+02 -0.11354970076E+01 -0.28924177431E+02  0.31886052616E+02  0.00000000000E+00 0. -1.
         11    1    3    3    0    0 -0.23929372163E+02  0.15464970912E+02  0.73312355288E+01  0.29419843509E+02  0.51100000000E-03 0. -1.
        -11    1    3    3    0    0  0.83229589837E+01 -0.90564813819E+01  0.20710706920E+02  0.24087857577E+02  0.51100000000E-03 0.  1.
         12    1    3    3    0    0  0.22339430287E+01 -0.52729925229E+01  0.88223498208E+00  0.57942462984E+01  0.00000000000E+00 0. -1.
</event>
<event>
 7    1  0.4346085E-013  0.5930194E+02  0.7816164E-02  0.1266605E+00
        -11   -1    0    0    0    0  0.00000000000E+00  0.00000000000E+00  0.45593999997E+02  0.45594000000E+02  0.51100000000E-03 0. -1.
         11   -1    0    0    0    0 -0.00000000000E+00 -0.00000000000E+00 -0.45593999997E+02  0.45594000000E+02  0.51100000000E-03 0.  1.
    9900012    2    1    2    0    0  0.30008628716E+02  0.88165762761E+01  0.62024890036E+01  0.59301942161E+02  0.49999996596E+02 0.  0.
         12    1    1    2    0    0 -0.30008628716E+02 -0.88165762761E+01 -0.62024890036E+01  0.31886057839E+02  0.00000000000E+00 0. -1.
         11    1    3    3    0    0  0.25994541196E+02  0.91448462930E+01  0.86608857361E+01  0.28885209498E+02  0.51100000000E-03 0. -1.
        -11    1    3    3    0    0  0.18334951189E+01  0.10989246752E+02 -0.11316411518E+02  0.15880378410E+02  0.51100000000E-03 0.  1.
         12    1    3    3    0    0  0.21805924012E+01 -0.11317516769E+02  0.88580147856E+01  0.14536354254E+02  0.00000000000E+00 0. -1.
</event>
<event>
 7    1  0.4346085E-013  0.5930193E+02  0.7816164E-02  0.1266605E+00
        -11   -1    0    0    0    0  0.00000000000E+00  0.00000000000E+00  0.45593999997E+02  0.45594000000E+02  0.51100000000E-03 0.  1.
         11   -1    0    0    0    0 -0.00000000000E+00 -0.00000000000E+00 -0.45593999997E+02  0.45594000000E+02  0.51100000000E-03 0. -1.
    9900012    2    1    2    0    0  0.31221607099E+02  0.39829305225E+01 -0.51057804920E+01  0.59301929690E+02  0.49999973851E+02 0.  0.
         12    1    1    2    0    0 -0.31221607099E+02 -0.39829305225E+01  0.51057804920E+01  0.31886070310E+02  0.00000000000E+00 0. -1.
         11    1    3    3    0    0  0.10004777869E+02 -0.17665255875E+02  0.53810094810E+01  0.21002669083E+02  0.51100000000E-03 0. -1.
        -11    1    3    3    0    0  0.18776464871E+02  0.14717787032E+02 -0.16330590375E+02  0.28911192823E+02  0.51100000000E-03 0.  1.
         12    1    3    3    0    0  0.24403643594E+01  0.69303993657E+01  0.58438004023E+01  0.93880677840E+01  0.00000000000E+00 0. -1.
</event>
<event>
 7    1  0.4346085E-013  0.5930195E+02  0.7816164E-02  0.1266605E+00
        -11   -1    0    0    0    0  0.00000000000E+00  0.00000000000E+00  0.45593999997E+02  0.45594000000E+02  0.51100000000E-03 0.  1.
         11   -1    0    0    0    0 -0.00000000000E+00 -0.00000000000E+00 -0.45593999997E+02  0.45594000000E+02  0.51100000000E-03 0. -1.
    9900012    2    1    2    0    0  0.79003038822E+00  0.47041892257E+01  0.31527237913E+02  0.59301948587E+02  0.50000008315E+02 0.  0.
         12    1    1    2    0    0 -0.79003038822E+00 -0.47041892257E+01 -0.31527237913E+02  0.31886051413E+02  0.00000000000E+00 0. -1.
         11    1    3    3    0    0  0.11190064009E+02 -0.15329990490E+02  0.15399176309E+02  0.24440965042E+02  0.51100000000E-03 0. -1.
        -11    1    3    3    0    0 -0.14887769181E+02  0.67318313978E+01  0.11852961068E+02  0.20185537186E+02  0.51100000000E-03 0.  1.
        -12    1    3    3    0    0  0.44877355605E+01  0.13302348318E+02  0.42751005367E+01  0.14675446359E+02  0.00000000000E+00 0.  1.
</event>
<event>
 7    1  0.4346085E-013  0.5930193E+02  0.7816164E-02  0.1266605E+00
        -11   -1    0    0    0    0  0.00000000000E+00  0.00000000000E+00  0.45593999997E+02  0.45594000000E+02  0.51100000000E-03 0. -1.
         11   -1    0    0    0    0 -0.00000000000E+00 -0.00000000000E+00 -0.45593999997E+02  0.45594000000E+02  0.51100000000E-03 0.  1.
    9900012    2    1    2    0    0  0.90572530644E+01 -0.28905685642E+02 -0.99573496097E+01  0.59301932404E+02  0.49999978800E+02 0.  0.
         12    1    1    2    0    0 -0.90572530644E+01  0.28905685642E+02  0.99573496097E+01  0.31886067596E+02  0.00000000000E+00 0. -1.
         11    1    3    3    0    0  0.14274880367E+02  0.33350310239E+00 -0.68962868753E+00  0.14295419609E+02  0.51100000000E-03 0. -1.
        -11    1    3    3    0    0 -0.73759967014E+01 -0.33002539969E+02 -0.15671489630E+02  0.37271551607E+02  0.51100000000E-03 0.  1.
        -12    1    3    3    0    0  0.21583693985E+01  0.37633512240E+01  0.64037687081E+01  0.77349611869E+01  0.00000000000E+00 0.  1.
</event>
<event>
 7    1  0.4346085E-013  0.5930217E+02  0.7816164E-02  0.1266604E+00
        -11   -1    0    0    0    0  0.00000000000E+00  0.00000000000E+00  0.45593999997E+02  0.45594000000E+02  0.51100000000E-03 0.  1.
         11   -1    0    0    0    0 -0.00000000000E+00 -0.00000000000E+00 -0.45593999997E+02  0.45594000000E+02  0.51100000000E-03 0. -1.
    9900012    2    1    2    0    0  0.11581208573E+02 -0.18962380247E+02  0.22869407179E+02  0.59302171779E+02  0.50000415361E+02 0.  0.
         12    1    1    2    0    0 -0.11581208573E+02  0.18962380247E+02 -0.22869407179E+02  0.31885828221E+02  0.00000000000E+00 0. -1.
         11    1    3    3    0    0  0.66706054961E+01 -0.12497188614E+02  0.31350456724E+02  0.34402439420E+02  0.51100000000E-03 0.  1.
        -11    1    3    3    0    0  0.82044453281E+00  0.63963103592E+01 -0.93695763788E+01  0.11374307769E+02  0.51100000000E-03 0. -1.
        -12    1    3    3    0    0  0.40901585443E+01 -0.12861501992E+02  0.88852683360E+00  0.13525424590E+02  0.00000000000E+00 0.  1.
</event>
<event>
 7    1  0.4346085E-013  0.5930213E+02  0.7816164E-02  0.1266604E+00
        -11   -1    0    0    0    0  0.00000000000E+00  0.00000000000E+00  0.45593999997E+02  0.45594000000E+02  0.51100000000E-03 0. -1.
         11   -1    0    0    0    0 -0.00000000000E+00 -0.00000000000E+00 -0.45593999997E+02  0.45594000000E+02  0.51100000000E-03 0.  1.
    9900012    2    1    2    0    0  0.25761497539E+02 -0.13310890700E+02 -0.13261747149E+02  0.59302133160E+02  0.50000344930E+02 0.  0.
         12    1    1    2    0    0 -0.25761497539E+02  0.13310890700E+02  0.13261747149E+02  0.31885866840E+02  0.00000000000E+00 0. -1.
         11    1    3    3    0    0  0.84733781528E-02 -0.20693069349E+02  0.71440467711E+01  0.21891564480E+02  0.51100000000E-03 0. -1.
        -11    1    3    3    0    0  0.16268877183E+02 -0.23115460909E+01 -0.16525488696E+02  0.23304750310E+02  0.51100000000E-03 0.  1.
         12    1    3    3    0    0  0.94841469786E+01  0.96937247392E+01 -0.38803052237E+01  0.14105818369E+02  0.00000000000E+00 0. -1.
</event>
<event>
 7    1  0.4346085E-013  0.5930193E+02  0.7816164E-02  0.1266605E+00
        -11   -1    0    0    0    0  0.00000000000E+00  0.00000000000E+00  0.45593999997E+02  0.45594000000E+02  0.51100000000E-03 0.  1.
         11   -1    0    0    0    0 -0.00000000000E+00 -0.00000000000E+00 -0.45593999997E+02  0.45594000000E+02  0.51100000000E-03 0. -1.
    9900012    2    1    2    0    0  0.30009001491E+02  0.10500927728E+02 -0.24314330189E+01  0.59301929057E+02  0.49999972697E+02 0.  0.
         12    1    1    2    0    0 -0.30009001491E+02 -0.10500927728E+02  0.24314330189E+01  0.31886070943E+02  0.00000000000E+00 0. -1.
         11    1    3    3    0    0  0.17504296559E+02  0.25288490014E+02 -0.85021240171E+01  0.31909156026E+02  0.51100000000E-03 0. -1.
        -11    1    3    3    0    0  0.19831889164E+01 -0.15225389444E+02  0.68925793868E+01  0.16830126941E+02  0.51100000000E-03 0.  1.
         12    1    3    3    0    0  0.10521516016E+02  0.43782715771E+00 -0.82188838864E+00  0.10562646089E+02  0.00000000000E+00 0. -1.
</event>
<event>
 7    1  0.4346085E-013  0.5930197E+02  0.7816164E-02  0.1266605E+00
        -11   -1    0    0    0    0  0.00000000000E+00  0.00000000000E+00  0.45593999997E+02  0.45594000000E+02  0.51100000000E-03 0.  1.
         11   -1    0    0    0    0 -0.00000000000E+00 -0.00000000000E+00 -0.45593999997E+02  0.45594000000E+02  0.51100000000E-03 0. -1.
    9900012    2    1    2    0    0  0.11935838965E+02  0.15063850406E+02  0.25442782219E+02  0.59301968451E+02  0.50000044543E+02 0.  0.
         12    1    1    2    0    0 -0.11935838965E+02 -0.15063850406E+02 -0.25442782219E+02  0.31886031549E+02  0.00000000000E+00 0. -1.
         11    1    3    3    0    0  0.18111421243E+02  0.11795685566E+02  0.30248788476E+02  0.37177291213E+02  0.51100000000E-03 0. -1.
        -11    1    3    3    0    0 -0.48887702844E+01 -0.82608113174E+01 -0.82645268752E-01  0.95993702406E+01  0.51100000000E-03 0.  1.
         12    1    3    3    0    0 -0.12868119941E+01  0.11528976158E+02 -0.47233609882E+01  0.12525306998E+02  0.00000000000E+00 0. -1.
</event>
<event>
 7    1  0.4346085E-013  0.5930194E+02  0.7816164E-02  0.1266605E+00
        -11   -1    0    0    0    0  0.00000000000E+00  0.00000000000E+00  0.45593999997E+02  0.45594000000E+02  0.51100000000E-03 0. -1.
         11   -1    0    0    0    0 -0.00000000000E+00 -0.00000000000E+00 -0.45593999997E+02  0.45594000000E+02  0.51100000000E-03 0.  1.
    9900012    2    1    2    0    0  0.16845561993E+02  0.23379391837E+02  0.13651077274E+02  0.59301939844E+02  0.49999992370E+02 0.  0.
         12    1    1    2    0    0 -0.16845561993E+02 -0.23379391837E+02 -0.13651077274E+02  0.31886060156E+02  0.00000000000E+00 0. -1.
         11    1    3    3    0    0  0.20921753518E+02 -0.27514746404E+01  0.12928299537E+02  0.24747349599E+02  0.51100000000E-03 0. -1.
        -11    1    3    3    0    0 -0.13751833637E+01  0.11556054277E+02 -0.10724825744E+02  0.15825782990E+02  0.51100000000E-03 0.  1.
         12    1    3    3    0    0 -0.27010081613E+01  0.14574812200E+02  0.11447603481E+02  0.18728807256E+02  0.00000000000E+00 0. -1.
</event>
<event>
 7    1  0.4346085E-013  0.5930195E+02  0.7816164E-02  0.1266605E+00
        -11   -1    0    0    0    0  0.00000000000E+00  0.00000000000E+00  0.45593999997E+02  0.45594000000E+02  0.51100000000E-03 0. -1.
         11   -1    0    0    0    0 -0.00000000000E+00 -0.00000000000E+00 -0.45593999997E+02  0.45594000000E+02  0.51100000000E-03 0.  1.
    9900012    2    1    2    0    0 -0.30969940245E+02  0.60238497894E+01  0.46148126237E+01  0.59301945672E+02  0.50000002999E+02 0.  0.
         12    1    1    2    0    0  0.30969940245E+02 -0.60238497894E+01 -0.46148126237E+01  0.31886054328E+02  0.00000000000E+00 0. -1.
         11    1    3    3    0    0 -0.43207938566E+01 -0.17549664314E+02  0.71796784811E+01  0.19447564383E+02  0.51100000000E-03 0. -1.
        -11    1    3    3    0    0 -0.17344988579E+02  0.51148561334E+01 -0.56699603935E+01  0.18951486306E+02  0.51100000000E-03 0.  1.
         12    1    3    3    0    0 -0.93041578086E+01  0.18458657970E+02  0.31050945361E+01  0.20902894983E+02  0.00000000000E+00 0. -1.
</event>
<event>
 7    1  0.4346085E-013  0.5930193E+02  0.7816164E-02  0.1266605E+00
        -11   -1    0    0    0    0  0.00000000000E+00  0.00000000000E+00  0.45593999997E+02  0.45594000000E+02  0.51100000000E-03 0. -1.
         11   -1    0    0    0    0 -0.00000000000E+00 -0.00000000000E+00 -0.45593999997E+02  0.45594000000E+02  0.51100000000E-03 0.  1.
    9900012    2    1    2    0    0 -0.52875585108E+01 -0.10626974538E+02 -0.29594435078E+02  0.59301930151E+02  0.49999974692E+02 0.  0.
         12    1    1    2    0    0  0.52875585108E+01  0.10626974538E+02  0.29594435078E+02  0.31886069849E+02  0.00000000000E+00 0. -1.
         11    1    3    3    0    0 -0.11333855242E+02  0.15411324892E+01 -0.24903444281E+01  0.11706117189E+02  0.51100000000E-03 0. -1.
        -11    1    3    3    0    0  0.17240505540E+02  0.54703914042E+01 -0.14634343732E+02  0.23266375526E+02  0.51100000000E-03 0.  1.
        -12    1    3    3    0    0 -0.11194208809E+02 -0.17638498431E+02 -0.12469746918E+02  0.24329437436E+02  0.00000000000E+00 0.  1.
</event>
<event>
 7    1  0.4346085E-013  0.5930167E+02  0.7816164E-02  0.1266606E+00
        -11   -1    0    0    0    0  0.00000000000E+00  0.00000000000E+00  0.45593999997E+02  0.45594000000E+02  0.51100000000E-03 0.  1.
         11   -1    0    0    0    0 -0.00000000000E+00 -0.00000000000E+00 -0.45593999997E+02  0.45594000000E+02  0.51100000000E-03 0. -1.
    9900012    2    1    2    0    0  0.59409903758E+01  0.24933441093E+02  0.18967502733E+02  0.59301670464E+02  0.49999501083E+02 0.  0.
         12    1    1    2    0    0 -0.59409903758E+01 -0.24933441093E+02 -0.18967502733E+02  0.31886329536E+02  0.00000000000E+00 0. -1.
         11    1    3    3    0    0  0.10422598727E+02  0.13733202285E+02 -0.50942999400E+01  0.17977299613E+02  0.51100000000E-03 0. -1.
        -11    1    3    3    0    0  0.90238797862E+00  0.11400194236E+01  0.28895773238E+02  0.28932328970E+02  0.51100000000E-03 0.  1.
        -12    1    3    3    0    0 -0.53839963302E+01  0.10060219384E+02 -0.48339705658E+01  0.12392041881E+02  0.00000000000E+00 0.  1.
</event>
<event>
 7    1  0.4346085E-013  0.5930180E+02  0.7816164E-02  0.1266605E+00
        -11   -1    0    0    0    0  0.00000000000E+00  0.00000000000E+00  0.45593999997E+02  0.45594000000E+02  0.51100000000E-03 0.  1.
         11   -1    0    0    0    0 -0.00000000000E+00 -0.00000000000E+00 -0.45593999997E+02  0.45594000000E+02  0.51100000000E-03 0. -1.
    9900012    2    1    2    0    0 -0.15758611287E+02 -0.12890584294E+02  0.24540349978E+02  0.59301799690E+02  0.49999736762E+02 0.  0.
         12    1    1    2    0    0  0.15758611287E+02  0.12890584294E+02 -0.24540349978E+02  0.31886200310E+02  0.00000000000E+00 0. -1.
         11    1    3    3    0    0 -0.29129700578E+02 -0.20798504067E+02  0.24256781753E+02  0.43237815492E+02  0.51100000000E-03 0.  1.
        -11    1    3    3    0    0  0.96182430057E+01  0.74469672737E+01  0.10379650458E+01  0.12208410699E+02  0.51100000000E-03 0. -1.
        -12    1    3    3    0    0  0.37528462854E+01  0.46095249908E+00 -0.75439682114E+00  0.38555734997E+01  0.00000000000E+00 0.  1.
</event>
<event>
 7    1  0.4346085E-013  0.5930195E+02  0.7816164E-02  0.1266605E+00
        -11   -1    0    0    0    0  0.00000000000E+00  0.00000000000E+00  0.45593999997E+02  0.45594000000E+02  0.51100000000E-03 0. -1.
         11   -1    0    0    0    0 -0.00000000000E+00 -0.00000000000E+00 -0.45593999997E+02  0.45594000000E+02  0.51100000000E-03 0.  1.
    9900012    2    1    2    0    0 -0.31172411478E+02  0.23070673320E+01 -0.62990886106E+01  0.59301947966E+02  0.50000007182E+02 0.  0.
         12    1    1    2    0    0  0.31172411478E+02 -0.23070673320E+01  0.62990886106E+01  0.31886052034E+02  0.00000000000E+00 0. -1.
         11    1    3    3    0    0 -0.34472592484E+02  0.15540233053E+02  0.69169170433E+01  0.38440892517E+02  0.51100000000E-03 0. -1.
        -11    1    3    3    0    0  0.62126737341E+01 -0.82641178383E+01 -0.77562569045E+01  0.12924878336E+02  0.51100000000E-03 0.  1.
         12    1    3    3    0    0 -0.29124927285E+01 -0.49690478824E+01 -0.54597487495E+01  0.79361771123E+01  0.00000000000E+00 0. -1.
</event>
<event>
 7    1  0.4346085E-013  0.5930196E+02  0.7816164E-02  0.1266605E+00
        -11   -1    0    0    0    0  0.00000000000E+00  0.00000000000E+00  0.45593999997E+02  0.45594000000E+02  0.51100000000E-03 0. -1.
         11   -1    0    0    0    0 -0.00000000000E+00 -0.00000000000E+00 -0.45593999997E+02  0.45594000000E+02  0.51100000000E-03 0.  1.
    9900012    2    1    2    0    0  0.20337547995E+02 -0.15169261787E+02  0.19313141195E+02  0.59301956275E+02  0.50000022337E+02 0.  0.
         12    1    1    2    0    0 -0.20337547995E+02  0.15169261787E+02 -0.19313141195E+02  0.31886043725E+02  0.00000000000E+00 0. -1.
         11    1    3    3    0    0 -0.90747739893E+01  0.95349890074E+01  0.17714416449E+01  0.13281774885E+02  0.51100000000E-03 0. -1.
        -11    1    3    3    0    0  0.20282197885E+02 -0.11567951664E+02  0.18794539466E+02  0.29973651275E+02  0.51100000000E-03 0.  1.
        -12    1    3    3    0    0  0.91301240992E+01 -0.13136299130E+02 -0.12528399161E+01  0.16046530116E+02  0.00000000000E+00 0.  1.
</event>
<event>
 7    1  0.4346085E-013  0.5930194E+02  0.7816164E-02  0.1266605E+00
        -11   -1    0    0    0    0  0.00000000000E+00  0.00000000000E+00  0.45593999997E+02  0.45594000000E+02  0.51100000000E-03 0.  1.
         11   -1    0    0    0    0 -0.00000000000E+00 -0.00000000000E+00 -0.45593999997E+02  0.45594000000E+02  0.51100000000E-03 0. -1.
    9900012    2    1    2    0    0 -0.14176321280E+02 -0.14440571298E+02  0.24641887992E+02  0.59301939907E+02  0.49999992484E+02 0.  0.
         12    1    1    2    0    0  0.14176321280E+02  0.14440571298E+02 -0.24641887992E+02  0.31886060093E+02  0.00000000000E+00 0. -1.
         11    1    3    3    0    0  0.82664545697E+00 -0.50353834099E+01  0.32039100740E+02  0.32442909939E+02  0.51100000000E-03 0. -1.
        -11    1    3    3    0    0 -0.10120075796E+02 -0.11244939414E+02  0.28178105756E+01  0.15388458443E+02  0.51100000000E-03 0.  1.
         12    1    3    3    0    0 -0.48828909403E+01  0.18397515257E+01 -0.10215023323E+02  0.11470571525E+02  0.00000000000E+00 0. -1.
</event>
<event>
 7    1  0.4346085E-013  0.5930194E+02  0.7816164E-02  0.1266605E+00
        -11   -1    0    0    0    0  0.00000000000E+00  0.00000000000E+00  0.45593999997E+02  0.45594000000E+02  0.51100000000E-03 0. -1.
         11   -1    0    0    0    0 -0.00000000000E+00 -0.00000000000E+00 -0.45593999997E+02  0.45594000000E+02  0.51100000000E-03 0.  1.
    9900012    2    1    2    0    0  0.31631227254E+02  0.27303693068E+01 -0.29549041858E+01  0.59301938580E+02  0.49999990064E+02 0.  0.
         12    1    1    2    0    0 -0.31631227254E+02 -0.27303693068E+01  0.29549041858E+01  0.31886061420E+02  0.00000000000E+00 0. -1.
         11    1    3    3    0    0  0.12611785750E+02 -0.19417848041E+02  0.47218370809E+01  0.23630609557E+02  0.51100000000E-03 0. -1.
        -11    1    3    3    0    0  0.17243800736E+02  0.21855529536E+02 -0.54066586884E-01  0.27839104846E+02  0.51100000000E-03 0.  1.
         12    1    3    3    0    0  0.17756407679E+01  0.29268781148E+00 -0.76226746798E+01  0.78322241774E+01  0.00000000000E+00 0. -1.
</event>
<event>
 7    1  0.4346085E-013  0.5930209E+02  0.7816164E-02  0.1266604E+00
        -11   -1    0    0    0    0  0.00000000000E+00  0.00000000000E+00  0.45593999997E+02  0.45594000000E+02  0.51100000000E-03 0.  1.
         11   -1    0    0    0    0 -0.00000000000E+00 -0.00000000000E+00 -0.45593999997E+02  0.45594000000E+02  0.51100000000E-03 0. -1.
    9900012    2    1    2    0    0  0.32541660749E+01 -0.29813596427E+02  0.10829173204E+02  0.59302092125E+02  0.50000270093E+02 0.  0.
         12    1    1    2    0    0 -0.32541660749E+01  0.29813596427E+02 -0.10829173204E+02  0.31885907875E+02  0.00000000000E+00 0. -1.
         11    1    3    3    0    0 -0.18388212138E+02  0.28129911542E+01  0.47224762686E+01  0.19192213193E+02  0.51100000000E-03 0. -1.
        -11    1    3    3    0    0  0.85311772924E+01 -0.14311481337E+02 -0.39477013738E+00  0.16665993153E+02  0.51100000000E-03 0.  1.
         12    1    3    3    0    0  0.13111200921E+02 -0.18315106245E+02  0.65014670725E+01  0.23443885779E+02  0.00000000000E+00 0. -1.
</event>
<event>
 7    1  0.4346085E-013  0.5930200E+02  0.7816164E-02  0.1266605E+00
        -11   -1    0    0    0    0  0.00000000000E+00  0.00000000000E+00  0.45593999997E+02  0.45594000000E+02  0.51100000000E-03 0.  1.
         11   -1    0    0    0    0 -0.00000000000E+00 -0.00000000000E+00 -0.45593999997E+02  0.45594000000E+02  0.51100000000E-03 0. -1.
    9900012    2    1    2    0    0 -0.34636278442E+00 -0.23557763959E+01  0.31796972458E+02  0.59301998258E+02  0.50000098903E+02 0.  0.
         12    1    1    2    0    0  0.34636278442E+00  0.23557763959E+01 -0.31796972458E+02  0.31886001742E+02  0.00000000000E+00 0. -1.
         11    1    3    3    0    0 -0.80546920763E+01  0.87170760670E+01 -0.45575044313E+01  0.12713627590E+02  0.51100000000E-03 0. -1.
        -11    1    3    3    0    0  0.35954502201E+01 -0.22808431758E+01  0.36631342563E+02  0.36877971285E+02  0.51100000000E-03 0.  1.
         12    1    3    3    0    0  0.41128790718E+01 -0.87920092871E+01 -0.27686567436E+00  0.97103993824E+01  0.00000000000E+00 0. -1.
</event>
<event>
 7    1  0.4346085E-013  0.5930194E+02  0.7816164E-02  0.1266605E+00
        -11   -1    0    0    0    0  0.00000000000E+00  0.00000000000E+00  0.45593999997E+02  0.45594000000E+02  0.51100000000E-03 0. -1.
         11   -1    0    0    0    0 -0.00000000000E+00 -0.00000000000E+00 -0.45593999997E+02  0.45594000000E+02  0.51100000000E-03 0.  1.
    9900012    2    1    2    0    0  0.15854482609E+02  0.13467114402E+02  0.24165943002E+02  0.59301943638E+02  0.49999999290E+02 0.  0.
         12    1    1    2    0    0 -0.15854482609E+02 -0.13467114402E+02 -0.24165943002E+02  0.31886056362E+02  0.00000000000E+00 0. -1.
         11    1    3    3    0    0  0.17248867317E+02  0.46979689614E+01  0.85709294868E+01  0.19825618997E+02  0.51100000000E-03 0. -1.
        -11    1    3    3    0    0 -0.15085756529E+02  0.14799990184E+02  0.72307496239E+01  0.22336147830E+02  0.51100000000E-03 0.  1.
        -12    1    3    3    0    0  0.13691371821E+02 -0.60308447433E+01  0.83642638915E+01  0.17140176811E+02  0.00000000000E+00 0.  1.
</event>
<event>
 7    1  0.4346085E-013  0.5930232E+02  0.7816164E-02  0.1266603E+00
        -11   -1    0    0    0    0  0.00000000000E+00  0.00000000000E+00  0.45593999997E+02  0.45594000000E+02  0.51100000000E-03 0.  1.
         11   -1    0    0    0    0 -0.00000000000E+00 -0.00000000000E+00 -0.45593999997E+02  0.45594000000E+02  0.51100000000E-03 0. -1.
    9900012    2    1    2    0    0  0.19428664667E+02  0.74037952377E+01  0.24174518505E+02  0.59302320775E+02  0.50000687093E+02 0.  0.
         12    1    1    2    0    0 -0.19428664667E+02 -0.74037952377E+01 -0.24174518505E+02  0.31885679225E+02  0.00000000000E+00 0. -1.
         11    1    3    3    0    0  0.17347442492E+02  0.60201043879E+00  0.34401985818E+02  0.38533009305E+02  0.51100000000E-03 0. -1.
        -11    1    3    3    0    0  0.62603672908E+00  0.10051870555E+02 -0.12864723096E+02  0.16338088145E+02  0.51100000000E-03 0.  1.
        -12    1    3    3    0    0  0.14551854454E+01 -0.32500857559E+01  0.26372557829E+01  0.44312233261E+01  0.00000000000E+00 0.  1.
</event>
<event>
 7    1  0.4346085E-013  0.5930193E+02  0.7816164E-02  0.1266605E+00
        -11   -1    0    0    0    0  0.00000000000E+00  0.00000000000E+00  0.45593999997E+02  0.45594000000E+02  0.51100000000E-03 0. -1.
         11   -1    0    0    0    0 -0.00000000000E+00 -0.00000000000E+00 -0.45593999997E+02  0.45594000000E+02  0.51100000000E-03 0.  1.
    9900012    2    1    2    0    0 -0.30777303579E+02  0.78951170211E+01  0.26731877997E+01  0.59301933743E+02  0.49999981243E+02 0.  0.
         12    1    1    2    0    0  0.30777303579E+02 -0.78951170211E+01 -0.26731877997E+01  0.31886066257E+02  0.00000000000E+00 0. -1.
         11    1    3    3    0    0  0.58076875555E+00 -0.98587107748E+01  0.13631788818E+01  0.99694396740E+01  0.51100000000E-03 0. -1.
        -11    1    3    3    0    0 -0.17780894355E+02  0.14062347882E+02  0.16942032389E+02  0.28300923903E+02  0.51100000000E-03 0.  1.
        -12    1    3    3    0    0 -0.13577177979E+02  0.36914799142E+01 -0.15632023472E+02  0.21031570166E+02  0.00000000000E+00 0.  1.
</event>
<event>
 7    1  0.4346085E-013  0.5930195E+02  0.7816164E-02  0.1266605E+00
        -11   -1    0    0    0    0  0.00000000000E+00  0.00000000000E+00  0.45593999997E+02  0.45594000000E+02  0.51100000000E-03 0. -1.
         11   -1    0    0    0    0 -0.00000000000E+00 -0.00000000000E+00 -0.45593999997E+02  0.45594000000E+02  0.51100000000E-03 0.  1.
    9900012    2    1    2    0    0  0.64382138500E+01  0.27440302598E+02 -0.14909717954E+02  0.59301945153E+02  0.50000002052E+02 0.  0.
         12    1    1    2    0    0 -0.64382138500E+01 -0.27440302598E+02  0.14909717954E+02  0.31886054847E+02  0.00000000000E+00 0. -1.
         11    1    3    3    0    0 -0.76007724590E+01  0.18070688839E+02 -0.23287753372E+02  0.30440778480E+02  0.51100000000E-03 0.  1.
        -11    1    3    3    0    0  0.91371355704E+01 -0.23258577646E+01  0.12381795972E+02  0.15562960275E+02  0.51100000000E-03 0. -1.
         12    1    3    3    0    0  0.49018507386E+01  0.11695471524E+02 -0.40037605538E+01  0.13298206398E+02  0.00000000000E+00 0. -1.
</event>
<event>
 7    1  0.4346085E-013  0.5930197E+02  0.7816164E-02  0.1266605E+00
        -11   -1    0    0    0    0  0.00000000000E+00  0.00000000000E+00  0.45593999997E+02  0.45594000000E+02  0.51100000000E-03 0.  1.
         11   -1    0    0    0    0 -0.00000000000E+00 -0.00000000000E+00 -0.45593999997E+02  0.45594000000E+02  0.51100000000E-03 0. -1.
    9900012    2    1    2    0    0  0.14837684672E+02  0.67019329101E+01  0.27416161235E+02  0.59301973468E+02  0.50000053692E+02 0.  0.
         12    1    1    2    0    0 -0.14837684672E+02 -0.67019329101E+01 -0.27416161235E+02  0.31886026532E+02  0.00000000000E+00 0. -1.
         11    1    3    3    0    0 -0.35242192802E+01 -0.12449100897E+02  0.12445723686E+02  0.17952611871E+02  0.51100000000E-03 0. -1.
        -11    1    3    3    0    0  0.97281732228E+01  0.25673022937E+02  0.84908823961E+01  0.28737371924E+02  0.51100000000E-03 0.  1.
        -12    1    3    3    0    0  0.86337307293E+01 -0.65219891301E+01  0.64795551530E+01  0.12611989673E+02  0.00000000000E+00 0.  1.
</event>
<event>
 7    1  0.4346085E-013  0.5930193E+02  0.7816164E-02  0.1266605E+00
        -11   -1    0    0    0    0  0.00000000000E+00  0.00000000000E+00  0.45593999997E+02  0.45594000000E+02  0.51100000000E-03 0.  1.
         11   -1    0    0    0    0 -0.00000000000E+00 -0.00000000000E+00 -0.45593999997E+02  0.45594000000E+02  0.51100000000E-03 0. -1.
    9900012    2    1    2    0    0  0.13810740226E+02 -0.13733825601E+02  0.25246129725E+02  0.59301928161E+02  0.49999971063E+02 0.  0.
         12    1    1    2    0    0 -0.13810740226E+02  0.13733825601E+02 -0.25246129725E+02  0.31886071839E+02  0.00000000000E+00 0. -1.
         11    1    3    3    0    0 -0.54287356187E+01 -0.65163712376E+01 -0.80595508472E+01  0.11700026694E+02  0.51100000000E-03 0. -1.
        -11    1    3    3    0    0 -0.12324304589E+01  0.73554884650E+01  0.14182753260E+02  0.16024125114E+02  0.51100000000E-03 0.  1.
         12    1    3    3    0    0  0.20471906303E+02 -0.14572942828E+02  0.19122927312E+02  0.31577776353E+02  0.00000000000E+00 0. -1.
</event>
<event>
 7    1  0.4346085E-013  0.5930195E+02  0.7816164E-02  0.1266605E+00
        -11   -1    0    0    0    0  0.00000000000E+00  0.00000000000E+00  0.45593999997E+02  0.45594000000E+02  0.51100000000E-03 0.  1.
         11   -1    0    0    0    0 -0.00000000000E+00 -0.00000000000E+00 -0.45593999997E+02  0.45594000000E+02  0.51100000000E-03 0. -1.
    9900012    2    1    2    0    0  0.39941424565E+01 -0.26473664478E+02  0.17317974522E+02  0.59301947776E+02  0.50000006836E+02 0.  0.
         12    1    1    2    0    0 -0.39941424565E+01  0.26473664478E+02 -0.17317974522E+02  0.31886052224E+02  0.00000000000E+00 0. -1.
         11    1    3    3    0    0 -0.16950142623E+02 -0.19439017840E+01  0.29158380446E+01  0.17308616376E+02  0.51100000000E-03 0. -1.
        -11    1    3    3    0    0  0.19614319974E+01 -0.18879566588E+02  0.32310058075E+01  0.19254211197E+02  0.51100000000E-03 0.  1.
         12    1    3    3    0    0  0.18982853082E+02 -0.56501961058E+01  0.11171130670E+02  0.22739120203E+02  0.00000000000E+00 0. -1.
</event>
<event>
 7    1  0.4346085E-013  0.5930222E+02  0.7816164E-02  0.1266604E+00
        -11   -1    0    0    0    0  0.00000000000E+00  0.00000000000E+00  0.45593999997E+02  0.45594000000E+02  0.51100000000E-03 0. -1.
         11   -1    0    0    0    0 -0.00000000000E+00 -0.00000000000E+00 -0.45593999997E+02  0.45594000000E+02  0.51100000000E-03 0.  1.
    9900012    2    1    2    0    0 -0.13668442378E+02 -0.27479750674E+02 -0.86452170702E+01  0.59302222727E+02  0.50000508278E+02 0.  0.
         12    1    1    2    0    0  0.13668442378E+02  0.27479750674E+02  0.86452170702E+01  0.31885777273E+02  0.00000000000E+00 0. -1.
         11    1    3    3    0    0  0.15160005195E+01 -0.23283582990E+02  0.10091530018E+02  0.25421692957E+02  0.51100000000E-03 0. -1.
        -11    1    3    3    0    0 -0.21328217310E+02 -0.26166346591E+01 -0.11936667194E+02  0.24580961221E+02  0.51100000000E-03 0.  1.
         12    1    3    3    0    0  0.61437744132E+01 -0.15795330242E+01 -0.68000798950E+01  0.92995685488E+01  0.00000000000E+00 0. -1.
</event>
<event>
 7    1  0.4346085E-013  0.5930194E+02  0.7816164E-02  0.1266605E+00
        -11   -1    0    0    0    0  0.00000000000E+00  0.00000000000E+00  0.45593999997E+02  0.45594000000E+02  0.51100000000E-03 0. -1.
         11   -1    0    0    0    0 -0.00000000000E+00 -0.00000000000E+00 -0.45593999997E+02  0.45594000000E+02  0.51100000000E-03 0.  1.
    9900012    2    1    2    0    0 -0.25005460246E+02 -0.67343226183E+01 -0.18603668840E+02  0.59301942897E+02  0.49999997938E+02 0.  0.
         12    1    1    2    0    0  0.25005460246E+02  0.67343226183E+01  0.18603668840E+02  0.31886057103E+02  0.00000000000E+00 0. -1.
         11    1    3    3    0    0 -0.28920414973E+02 -0.14291867326E+01 -0.20389768078E+02  0.35414342002E+02  0.51100000000E-03 0.  1.
        -11    1    3    3    0    0  0.73921095491E+01 -0.28449654441E+01 -0.91791528991E+01  0.12124106572E+02  0.51100000000E-03 0. -1.
         12    1    3    3    0    0 -0.34771548224E+01 -0.24601704416E+01  0.10965252137E+02  0.11763494323E+02  0.00000000000E+00 0. -1.
</event>
<event>
 7    1  0.4346085E-013  0.5930194E+02  0.7816164E-02  0.1266605E+00
        -11   -1    0    0    0    0  0.00000000000E+00  0.00000000000E+00  0.45593999997E+02  0.45594000000E+02  0.51100000000E-03 0.  1.
         11   -1    0    0    0    0 -0.00000000000E+00 -0.00000000000E+00 -0.45593999997E+02  0.45594000000E+02  0.51100000000E-03 0. -1.
    9900012    2    1    2    0    0 -0.28700706563E+02 -0.10957058826E+02  0.85400739509E+01  0.59301944138E+02  0.50000000201E+02 0.  0.
         12    1    1    2    0    0  0.28700706563E+02  0.10957058826E+02 -0.85400739509E+01  0.31886055862E+02  0.00000000000E+00 0. -1.
         11    1    3    3    0    0  0.41591409481E+01  0.19927697331E+01  0.38097188717E+01  0.59819347019E+01  0.51100000000E-03 0. -1.
        -11    1    3    3    0    0 -0.11180671083E+02 -0.25495430493E+02  0.49259965371E+01  0.28271714204E+02  0.51100000000E-03 0.  1.
        -12    1    3    3    0    0 -0.21679176428E+02  0.12545601933E+02 -0.19564145788E+00  0.25048295232E+02  0.00000000000E+00 0.  1.
</event>
<event>
 7    1  0.4346085E-013  0.5930196E+02  0.7816164E-02  0.1266605E+00
        -11   -1    0    0    0    0  0.00000000000E+00  0.00000000000E+00  0.45593999997E+02  0.45594000000E+02  0.51100000000E-03 0.  1.
         11   -1    0    0    0    0 -0.00000000000E+00 -0.00000000000E+00 -0.45593999997E+02  0.45594000000E+02  0.51100000000E-03 0. -1.
    9900012    2    1    2    0    0  0.14834338420E+02 -0.26841870028E+02 -0.87278921709E+01  0.59301957839E+02  0.50000025188E+02 0.  0.
         12    1    1    2    0    0 -0.14834338420E+02  0.26841870028E+02  0.87278921709E+01  0.31886042161E+02  0.00000000000E+00 0. -1.
         11    1    3    3    0    0  0.20736471079E+02  0.20317393670E+01 -0.87090614971E+01  0.22582669242E+02  0.51100000000E-03 0. -1.
        -11    1    3    3    0    0  0.57080953221E+01 -0.20030852163E+02  0.47549210009E+01  0.21364144368E+02  0.51100000000E-03 0.  1.
         12    1    3    3    0    0 -0.11610227981E+02 -0.88427572320E+01 -0.47737516747E+01  0.15355144229E+02  0.00000000000E+00 0. -1.
</event>
<event>
 7    1  0.4346085E-013  0.5930195E+02  0.7816164E-02  0.1266605E+00
        -11   -1    0    0    0    0  0.00000000000E+00  0.00000000000E+00  0.45593999997E+02  0.45594000000E+02  0.51100000000E-03 0.  1.
         11   -1    0    0    0    0 -0.00000000000E+00 -0.00000000000E+00 -0.45593999997E+02  0.45594000000E+02  0.51100000000E-03 0. -1.
    9900012    2    1    2    0    0  0.16314835111E+02 -0.27046318140E+02  0.43638467739E+01  0.59301947746E+02  0.50000006782E+02 0.  0.
         12    1    1    2    0    0 -0.16314835111E+02  0.27046318140E+02 -0.43638467739E+01  0.31886052254E+02  0.00000000000E+00 0. -1.
         11    1    3    3    0    0  0.20309223458E+02 -0.16694292848E+02 -0.11633856370E+02  0.28749097124E+02  0.51100000000E-03 0. -1.
        -11    1    3    3    0    0 -0.81438394916E+01 -0.15025589667E+02  0.17134087037E+02  0.24200566220E+02  0.51100000000E-03 0.  1.
         12    1    3    3    0    0  0.41494511443E+01  0.46735643752E+01 -0.11363838935E+01  0.63522844018E+01  0.00000000000E+00 0. -1.
</event>
<event>
 7    1  0.4346085E-013  0.5930200E+02  0.7816164E-02  0.1266605E+00
        -11   -1    0    0    0    0  0.00000000000E+00  0.00000000000E+00  0.45593999997E+02  0.45594000000E+02  0.51100000000E-03 0.  1.
         11   -1    0    0    0    0 -0.00000000000E+00 -0.00000000000E+00 -0.45593999997E+02  0.45594000000E+02  0.51100000000E-03 0. -1.
    9900012    2    1    2    0    0  0.70725027721E+01  0.30119805106E+02 -0.77132532164E+01  0.59301996327E+02  0.50000095380E+02 0.  0.
         12    1    1    2    0    0 -0.70725027721E+01 -0.30119805106E+02  0.77132532164E+01  0.31886003673E+02  0.00000000000E+00 0. -1.
         11    1    3    3    0    0  0.15306134644E+02  0.13811004965E+02 -0.25105927561E+02  0.32485830987E+02  0.51100000000E-03 0. -1.
        -11    1    3    3    0    0 -0.12201586264E+00  0.48124155409E+01  0.51266699604E+00  0.48411836279E+01  0.51100000000E-03 0.  1.
         12    1    3    3    0    0 -0.81116160096E+01  0.11496384600E+02  0.16880007349E+02  0.21974981712E+02  0.00000000000E+00 0. -1.
</event>
<event>
 7    1  0.4346085E-013  0.5930200E+02  0.7816164E-02  0.1266605E+00
        -11   -1    0    0    0    0  0.00000000000E+00  0.00000000000E+00  0.45593999997E+02  0.45594000000E+02  0.51100000000E-03 0.  1.
         11   -1    0    0    0    0 -0.00000000000E+00 -0.00000000000E+00 -0.45593999997E+02  0.45594000000E+02  0.51100000000E-03 0. -1.
    9900012    2    1    2    0    0  0.24086027149E+02  0.64863691727E+01  0.19862214184E+02  0.59301996156E+02  0.50000095069E+02 0.  0.
         12    1    1    2    0    0 -0.24086027149E+02 -0.64863691727E+01 -0.19862214184E+02  0.31886003844E+02  0.00000000000E+00 0. -1.
         11    1    3    3    0    0 -0.20592901961E+01  0.99354709369E+01 -0.80938941424E+01  0.12979421462E+02  0.51100000000E-03 0. -1.
        -11    1    3    3    0    0  0.31113283903E+02 -0.30865369910E+01  0.26866900214E+02  0.41223700382E+02  0.51100000000E-03 0.  1.
        -12    1    3    3    0    0 -0.49679665576E+01 -0.36256477318E+00  0.10892081122E+01  0.50988743114E+01  0.00000000000E+00 0.  1.
</event>
<event>
 7    1  0.4346085E-013  0.5930185E+02  0.7816164E-02  0.1266605E+00
        -11   -1    0    0    0    0  0.00000000000E+00  0.00000000000E+00  0.45593999997E+02  0.45594000000E+02  0.51100000000E-03 0. -1.
         11   -1    0    0    0    0 -0.00000000000E+00 -0.00000000000E+00 -0.45593999997E+02  0.45594000000E+02  0.51100000000E-03 0.  1.
    9900012    2    1    2    0    0  0.15152032769E+02  0.23113210352E+02 -0.15903522984E+02  0.59301848882E+02  0.49999826476E+02 0.  0.
         12    1    1    2    0    0 -0.15152032769E+02 -0.23113210352E+02  0.15903522984E+02  0.31886151118E+02  0.00000000000E+00 0. -1.
         11    1    3    3    0    0 -0.50528492701E+01  0.75206430031E+01  0.10867550676E+02  0.14149028761E+02  0.51100000000E-03 0. -1.
        -11    1    3    3    0    0  0.17580659992E+02  0.14124119205E+02 -0.31983848276E+02  0.39134855307E+02  0.51100000000E-03 0.  1.
        -12    1    3    3    0    0  0.26242220465E+01  0.14684481440E+01  0.52127746155E+01  0.60179648132E+01  0.00000000000E+00 0.  1.
</event>
<event>
 7    1  0.4346085E-013  0.5930197E+02  0.7816164E-02  0.1266605E+00
        -11   -1    0    0    0    0  0.00000000000E+00  0.00000000000E+00  0.45593999997E+02  0.45594000000E+02  0.51100000000E-03 0.  1.
         11   -1    0    0    0    0 -0.00000000000E+00 -0.00000000000E+00 -0.45593999997E+02  0.45594000000E+02  0.51100000000E-03 0. -1.
    9900012    2    1    2    0    0 -0.19429407017E+02 -0.24742619830E+02  0.51980372463E+01  0.59301973526E+02  0.50000053798E+02 0.  0.
         12    1    1    2    0    0  0.19429407017E+02  0.24742619830E+02 -0.51980372463E+01  0.31886026474E+02  0.00000000000E+00 0. -1.
         11    1    3    3    0    0 -0.15932659197E+02 -0.35367156787E+02 -0.10696322380E+01  0.38805019285E+02  0.51100000000E-03 0. -1.
        -11    1    3    3    0    0 -0.74808798019E+01  0.75221010963E+00 -0.10315270622E+01  0.75890336012E+01  0.51100000000E-03 0.  1.
         12    1    3    3    0    0  0.39841319817E+01  0.98723268474E+01  0.72991965465E+01  0.12907920640E+02  0.00000000000E+00 0. -1.
</event>
<event>
 7    1  0.4346085E-013  0.5930193E+02  0.7816164E-02  0.1266605E+00
        -11   -1    0    0    0    0  0.00000000000E+00  0.00000000000E+00  0.45593999997E+02  0.45594000000E+02  0.51100000000E-03 0.  1.
         11   -1    0    0    0    0 -0.00000000000E+00 -0.00000000000E+00 -0.45593999997E+02  0.45594000000E+02  0.51100000000E-03 0. -1.
    9900012    2    1    2    0    0 -0.18158929344E+02  0.21103349703E+02  0.15544244853E+02  0.59301927309E+02  0.49999969509E+02 0.  0.
         12    1    1    2    0    0  0.18158929344E+02 -0.21103349703E+02 -0.15544244853E+02  0.31886072691E+02  0.00000000000E+00 0. -1.
         11    1    3    3    0    0 -0.28792134578E+02  0.18550039219E+02  0.22080141153E+02  0.40750749713E+02  0.51100000000E-03 0. -1.
        -11    1    3    3    0    0  0.95496377950E+01  0.55929451340E+01  0.21462502435E+00  0.11068996407E+02  0.51100000000E-03 0.  1.
         12    1    3    3    0    0  0.10835674399E+01 -0.30396346505E+01 -0.67505213237E+01  0.74821811892E+01  0.00000000000E+00 0. -1.
</event>
<event>
 7    1  0.4346085E-013  0.5930193E+02  0.7816164E-02  0.1266605E+00
        -11   -1    0    0    0    0  0.00000000000E+00  0.00000000000E+00  0.45593999997E+02  0.45594000000E+02  0.51100000000E-03 0. -1.
         11   -1    0    0    0    0 -0.00000000000E+00 -0.00000000000E+00 -0.45593999997E+02  0.45594000000E+02  0.51100000000E-03 0.  1.
    9900012    2    1    2    0    0 -0.27360619703E+02  0.24935776911E+01 -0.16183320407E+02  0.59301932516E+02  0.49999979005E+02 0.  0.
         12    1    1    2    0    0  0.27360619703E+02 -0.24935776911E+01  0.16183320407E+02  0.31886067484E+02  0.00000000000E+00 0. -1.
         11    1    3    3    0    0 -0.22341404824E+02 -0.11961903830E+02 -0.16664270168E+02  0.30330239255E+02  0.51100000000E-03 0. -1.
        -11    1    3    3    0    0  0.34040141610E+00  0.89553297812E+01 -0.11598694135E+02  0.14657541080E+02  0.51100000000E-03 0.  1.
         12    1    3    3    0    0 -0.53596162947E+01  0.55001517397E+01  0.12079643896E+02  0.14314152181E+02  0.00000000000E+00 0. -1.
</event>
<event>
 7    1  0.4346085E-013  0.5930196E+02  0.7816164E-02  0.1266605E+00
        -11   -1    0    0    0    0  0.00000000000E+00  0.00000000000E+00  0.45593999997E+02  0.45594000000E+02  0.51100000000E-03 0.  1.
         11   -1    0    0    0    0 -0.00000000000E+00 -0.00000000000E+00 -0.45593999997E+02  0.45594000000E+02  0.51100000000E-03 0. -1.
    9900012    2    1    2    0    0  0.13353515382E+02  0.20640048861E+02  0.20307422571E+02  0.59301962279E+02  0.50000033287E+02 0.  0.
         12    1    1    2    0    0 -0.13353515382E+02 -0.20640048861E+02 -0.20307422571E+02  0.31886037721E+02  0.00000000000E+00 0. -1.
         11    1    3    3    0    0 -0.20878090006E+01  0.43811237134E+01 -0.34038242548E+00  0.48650849809E+01  0.51100000000E-03 0. -1.
        -11    1    3    3    0    0  0.11927209356E+02  0.25647018809E+02  0.29640172160E+02  0.40970327101E+02  0.51100000000E-03 0.  1.
        -12    1    3    3    0    0  0.35141150264E+01 -0.93880936621E+01 -0.89923671630E+01  0.13466550197E+02  0.00000000000E+00 0.  1.
</event>
<event>
 7    1  0.4346085E-013  0.5930210E+02  0.7816164E-02  0.1266604E+00
        -11   -1    0    0    0    0  0.00000000000E+00  0.00000000000E+00  0.45593999997E+02  0.45594000000E+02  0.51100000000E-03 0.  1.
         11   -1    0    0    0    0 -0.00000000000E+00 -0.00000000000E+00 -0.45593999997E+02  0.45594000000E+02  0.51100000000E-03 0. -1.
    9900012    2    1    2    0    0  0.21679190505E+02  0.22977443753E+02 -0.43313574847E+01  0.59302095904E+02  0.50000276985E+02 0.  0.
         12    1    1    2    0    0 -0.21679190505E+02 -0.22977443753E+02  0.43313574847E+01  0.31885904096E+02  0.00000000000E+00 0. -1.
         11    1    3    3    0    0  0.97340830589E+01 -0.81466697924E+01 -0.45235626165E+01  0.13475281842E+02  0.51100000000E-03 0. -1.
        -11    1    3    3    0    0  0.35666839668E+01  0.27771052906E+02  0.12419379650E+02  0.30629946216E+02  0.51100000000E-03 0.  1.
        -12    1    3    3    0    0  0.83784234791E+01  0.33530606392E+01 -0.12227174518E+02  0.15196867847E+02  0.00000000000E+00 0.  1.
</event>
<event>
 7    1  0.4346085E-013  0.5930196E+02  0.7816164E-02  0.1266605E+00
        -11   -1    0    0    0    0  0.00000000000E+00  0.00000000000E+00  0.45593999997E+02  0.45594000000E+02  0.51100000000E-03 0. -1.
         11   -1    0    0    0    0 -0.00000000000E+00 -0.00000000000E+00 -0.45593999997E+02  0.45594000000E+02  0.51100000000E-03 0.  1.
    9900012    2    1    2    0    0 -0.23901588515E+02 -0.15486139377E+02 -0.14339215403E+02  0.59301960034E+02  0.50000029191E+02 0.  0.
         12    1    1    2    0    0  0.23901588515E+02  0.15486139377E+02  0.14339215403E+02  0.31886039966E+02  0.00000000000E+00 0. -1.
         11    1    3    3    0    0 -0.25460874540E+02 -0.18133611883E+02  0.64493999779E+01  0.31916747526E+02  0.51100000000E-03 0. -1.
        -11    1    3    3    0    0  0.37832934751E+00  0.45278556422E+01 -0.23468872074E+02  0.23904655749E+02  0.51100000000E-03 0.  1.
         12    1    3    3    0    0  0.11809566772E+01 -0.18803831362E+01  0.26802566930E+01  0.34805567590E+01  0.00000000000E+00 0. -1.
</event>
<event>
 7    1  0.4346085E-013  0.5930194E+02  0.7816164E-02  0.1266605E+00
        -11   -1    0    0    0    0  0.00000000000E+00  0.00000000000E+00  0.45593999997E+02  0.45594000000E+02  0.51100000000E-03 0.  1.
         11   -1    0    0    0    0 -0.00000000000E+00 -0.00000000000E+00 -0.45593999997E+02  0.45594000000E+02  0.51100000000E-03 0. -1.
    9900012    2    1    2    0    0 -0.72020958725E+01  0.16995083154E+02  0.26000339441E+02  0.59301942116E+02  0.49999996513E+02 0.  0.
         12    1    1    2    0    0  0.72020958725E+01 -0.16995083154E+02 -0.26000339441E+02  0.31886057884E+02  0.00000000000E+00 0. -1.
         11    1    3    3    0    0 -0.35359741088E+01 -0.42031911045E+01 -0.30761127208E+00  0.55013228695E+01  0.51100000000E-03 0. -1.
        -11    1    3    3    0    0 -0.16094297549E+02  0.27469874634E+02  0.12530171631E+02  0.34214406722E+02  0.51100000000E-03 0.  1.
        -12    1    3    3    0    0  0.12428175785E+02 -0.62716003747E+01  0.13777779082E+02  0.19586212524E+02  0.00000000000E+00 0.  1.
</event>
<event>
 7    1  0.4346085E-013  0.5930194E+02  0.7816164E-02  0.1266605E+00
        -11   -1    0    0    0    0  0.00000000000E+00  0.00000000000E+00  0.45593999997E+02  0.45594000000E+02  0.51100000000E-03 0.  1.
         11   -1    0    0    0    0 -0.00000000000E+00 -0.00000000000E+00 -0.45593999997E+02  0.45594000000E+02  0.51100000000E-03 0. -1.
    9900012    2    1    2    0    0 -0.19300051258E+02 -0.25358230329E+02 -0.10904110986E+01  0.59301940031E+02  0.49999992710E+02 0.  0.
         12    1    1    2    0    0  0.19300051258E+02  0.25358230329E+02  0.10904110986E+01  0.31886059969E+02  0.00000000000E+00 0. -1.
         11    1    3    3    0    0 -0.17046831034E+02 -0.42855106387E+01 -0.16232521193E+02  0.23926027549E+02  0.51100000000E-03 0. -1.
        -11    1    3    3    0    0 -0.78412999243E+01 -0.18771630500E+02  0.19298779857E+02  0.28041094849E+02  0.51100000000E-03 0.  1.
        -12    1    3    3    0    0  0.55880796996E+01 -0.23010891908E+01 -0.41566697618E+01  0.73348176325E+01  0.00000000000E+00 0.  1.
</event>
<event>
 7    1  0.4346085E-013  0.5930197E+02  0.7816164E-02  0.1266605E+00
        -11   -1    0    0    0    0  0.00000000000E+00  0.00000000000E+00  0.45593999997E+02  0.45594000000E+02  0.51100000000E-03 0.  1.
         11   -1    0    0    0    0 -0.00000000000E+00 -0.00000000000E+00 -0.45593999997E+02  0.45594000000E+02  0.51100000000E-03 0. -1.
    9900012    2    1    2    0    0 -0.28085807717E+02  0.10346312123E+02  0.10993630843E+02  0.59301973456E+02  0.50000053670E+02 0.  0.
         12    1    1    2    0    0  0.28085807717E+02 -0.10346312123E+02 -0.10993630843E+02  0.31886026544E+02  0.00000000000E+00 0. -1.
         11    1    3    3    0    0 -0.30756570690E+02  0.41015239931E+01 -0.38604933899E+00  0.31031245125E+02  0.51100000000E-03 0. -1.
        -11    1    3    3    0    0 -0.72403117286E+01  0.11387926478E+02  0.10446645411E+02  0.17065737136E+02  0.51100000000E-03 0.  1.
         12    1    3    3    0    0  0.99110747012E+01 -0.51431383477E+01  0.93303477094E+00  0.11204991195E+02  0.00000000000E+00 0. -1.
</event>
<event>
 7    1  0.4346085E-013  0.5930193E+02  0.7816164E-02  0.1266605E+00
        -11   -1    0    0    0    0  0.00000000000E+00  0.00000000000E+00  0.45593999997E+02  0.45594000000E+02  0.51100000000E-03 0. -1.
         11   -1    0    0    0    0 -0.00000000000E+00 -0.00000000000E+00 -0.45593999997E+02  0.45594000000E+02  0.51100000000E-03 0.  1.
    9900012    2    1    2    0    0 -0.12936532617E+02 -0.26298976965E+02 -0.12559127011E+02  0.59301925660E+02  0.49999966502E+02 0.  0.
         12    1    1    2    0    0  0.12936532617E+02  0.26298976965E+02  0.12559127011E+02  0.31886074340E+02  0.00000000000E+00 0. -1.
         11    1    3    3    0    0 -0.22698246120E+02 -0.31339210991E+02 -0.84967426664E+01  0.39617561241E+02  0.51100000000E-03 0. -1.
        -11    1    3    3    0    0  0.59274366026E+01 -0.17037216689E+01  0.48664294112E+01  0.78561636743E+01  0.51100000000E-03 0.  1.
         12    1    3    3    0    0  0.38342769006E+01  0.67439556956E+01 -0.89288137556E+01  0.11828200745E+02  0.00000000000E+00 0. -1.
</event>
<event>
 7    1  0.4346085E-013  0.5930206E+02  0.7816164E-02  0.1266604E+00
        -11   -1    0    0    0    0  0.00000000000E+00  0.00000000000E+00  0.45593999997E+02  0.45594000000E+02  0.51100000000E-03 0. -1.
         11   -1    0    0    0    0 -0.00000000000E+00 -0.00000000000E+00 -0.45593999997E+02  0.45594000000E+02  0.51100000000E-03 0.  1.
    9900012    2    1    2    0    0  0.15189383874E+02 -0.67969989219E+01 -0.27199196961E+02  0.59302064352E+02  0.50000219443E+02 0.  0.
         12    1    1    2    0    0 -0.15189383874E+02  0.67969989219E+01  0.27199196961E+02  0.31885935648E+02  0.00000000000E+00 0. -1.
         11    1    3    3    0    0  0.15482070450E+01  0.12005463653E+01  0.72919526530E+01  0.75505516609E+01  0.51100000000E-03 0. -1.
        -11    1    3    3    0    0  0.14227841184E+02 -0.17789239058E+02 -0.35187950522E+02  0.41917542309E+02  0.51100000000E-03 0.  1.
        -12    1    3    3    0    0 -0.58666435526E+00  0.97916937712E+01  0.69680090821E+00  0.98339703823E+01  0.00000000000E+00 0.  1.
</event>
<event>
 7    1  0.4346085E-013  0.5930217E+02  0.7816164E-02  0.1266604E+00
        -11   -1    0    0    0    0  0.00000000000E+00  0.00000000000E+00  0.45593999997E+02  0.45594000000E+02  0.51100000000E-03 0.  1.
         11   -1    0    0    0    0 -0.00000000000E+00 -0.00000000000E+00 -0.45593999997E+02  0.45594000000E+02  0.51100000000E-03 0. -1.
    9900012    2    1    2    0    0 -0.28049486068E+02 -0.14721271394E+02 -0.36354444798E+01  0.59302173107E+02  0.50000417783E+02 0.  0.
         12    1    1    2    0    0  0.28049486068E+02  0.14721271394E+02  0.36354444798E+01  0.31885826893E+02  0.00000000000E+00 0. -1.
         11    1    3    3    0    0  0.10613776201E+02 -0.42162164259E+01  0.14391634185E+01  0.11510860863E+02  0.51100000000E-03 0. -1.
        -11    1    3    3    0    0 -0.31394121011E+02 -0.45005782128E+01  0.69933368731E+01  0.32476957973E+02  0.51100000000E-03 0.  1.
        -12    1    3    3    0    0 -0.72691412575E+01 -0.60044767552E+01 -0.12067944771E+02  0.15314354271E+02  0.00000000000E+00 0.  1.
</event>
<event>
 7    1  0.4346085E-013  0.5930194E+02  0.7816164E-02  0.1266605E+00
        -11   -1    0    0    0    0  0.00000000000E+00  0.00000000000E+00  0.45593999997E+02  0.45594000000E+02  0.51100000000E-03 0. -1.
         11   -1    0    0    0    0 -0.00000000000E+00 -0.00000000000E+00 -0.45593999997E+02  0.45594000000E+02  0.51100000000E-03 0.  1.
    9900012    2    1    2    0    0  0.17354240374E+02 -0.22348834990E+02 -0.14699695747E+02  0.59301935028E+02  0.49999983586E+02 0.  0.
         12    1    1    2    0    0 -0.17354240374E+02  0.22348834990E+02  0.14699695747E+02  0.31886064972E+02  0.00000000000E+00 0. -1.
         11    1    3    3    0    0  0.16302096784E+02 -0.10281119281E+02  0.87479132820E+01  0.21165674104E+02  0.51100000000E-03 0. -1.
        -11    1    3    3    0    0 -0.66675845489E+01 -0.18013547746E+02 -0.20177378800E+02  0.27858054519E+02  0.51100000000E-03 0.  1.
        -12    1    3    3    0    0  0.77197281388E+01  0.59458320368E+01 -0.32702302291E+01  0.10278206405E+02  0.00000000000E+00 0.  1.
</event>
<event>
 7    1  0.4346085E-013  0.5930196E+02  0.7816164E-02  0.1266605E+00
        -11   -1    0    0    0    0  0.00000000000E+00  0.00000000000E+00  0.45593999997E+02  0.45594000000E+02  0.51100000000E-03 0.  1.
         11   -1    0    0    0    0 -0.00000000000E+00 -0.00000000000E+00 -0.45593999997E+02  0.45594000000E+02  0.51100000000E-03 0. -1.
    9900012    2    1    2    0    0 -0.22549758556E+02 -0.21844242956E+02  0.55729048435E+01  0.59301955566E+02  0.50000021042E+02 0.  0.
         12    1    1    2    0    0  0.22549758556E+02  0.21844242956E+02 -0.55729048435E+01  0.31886044434E+02  0.00000000000E+00 0. -1.
         11    1    3    3    0    0 -0.96821772348E+01  0.66449200751E+01 -0.99345026207E+01  0.15381607894E+02  0.51100000000E-03 0. -1.
        -11    1    3    3    0    0 -0.69265191878E+01 -0.83153921497E+01  0.19699239714E+02  0.22476264374E+02  0.51100000000E-03 0.  1.
        -12    1    3    3    0    0 -0.59410621336E+01 -0.20173770882E+02 -0.41918322496E+01  0.21444083298E+02  0.00000000000E+00 0.  1.
</event>
<event>
 7    1  0.4346085E-013  0.5930195E+02  0.7816164E-02  0.1266605E+00
        -11   -1    0    0    0    0  0.00000000000E+00  0.00000000000E+00  0.45593999997E+02  0.45594000000E+02  0.51100000000E-03 0.  1.
         11   -1    0    0    0    0 -0.00000000000E+00 -0.00000000000E+00 -0.45593999997E+02  0.45594000000E+02  0.51100000000E-03 0. -1.
    9900012    2    1    2    0    0 -0.10750444847E+02 -0.34263544199E+01  0.29822945219E+02  0.59301952416E+02  0.50000015297E+02 0.  0.
         12    1    1    2    0    0  0.10750444847E+02  0.34263544199E+01 -0.29822945219E+02  0.31886047584E+02  0.00000000000E+00 0. -1.
         11    1    3    3    0    0 -0.24465920240E+00  0.29213456965E+01 -0.19555027270E+01  0.35239338785E+01  0.51100000000E-03 0. -1.
        -11    1    3    3    0    0 -0.73831670118E+01 -0.22433328244E+02  0.46281877363E+01  0.24066272940E+02  0.51100000000E-03 0.  1.
        -12    1    3    3    0    0 -0.31226186330E+01  0.16085628128E+02  0.27150260210E+02  0.31711745597E+02  0.00000000000E+00 0.  1.
</event>
<event>
 7    1  0.4346085E-013  0.5930194E+02  0.7816164E-02  0.1266605E+00
        -11   -1    0    0    0    0  0.00000000000E+00  0.00000000000E+00  0.45593999997E+02  0.45594000000E+02  0.51100000000E-03 0.  1.
         11   -1    0    0    0    0 -0.00000000000E+00 -0.00000000000E+00 -0.45593999997E+02  0.45594000000E+02  0.51100000000E-03 0. -1.
    9900012    2    1    2    0    0 -0.16808821957E+02  0.21571465651E+02  0.16396836321E+02  0.59301939296E+02  0.49999991370E+02 0.  0.
         12    1    1    2    0    0  0.16808821957E+02 -0.21571465651E+02 -0.16396836321E+02  0.31886060704E+02  0.00000000000E+00 0. -1.
         11    1    3    3    0    0 -0.22955481560E+02  0.67916977826E+01  0.13415610108E+02  0.27441936653E+02  0.51100000000E-03 0. -1.
        -11    1    3    3    0    0  0.10936963990E+00  0.89023837601E+01  0.14844157432E+02  0.17309344542E+02  0.51100000000E-03 0.  1.
         12    1    3    3    0    0  0.60372899639E+01  0.58773841087E+01 -0.11862931219E+02  0.14550658101E+02  0.00000000000E+00 0. -1.
</event>
<event>
 7    1  0.4346085E-013  0.5930195E+02  0.7816164E-02  0.1266605E+00
        -11   -1    0    0    0    0  0.00000000000E+00  0.00000000000E+00  0.45593999997E+02  0.45594000000E+02  0.51100000000E-03 0. -1.
         11   -1    0    0    0    0 -0.00000000000E+00 -0.00000000000E+00 -0.45593999997E+02  0.45594000000E+02  0.51100000000E-03 0.  1.
    9900012    2    1    2    0    0  0.29089299321E+02  0.11135226349E+02 -0.68219752553E+01  0.59301953723E+02  0.50000017681E+02 0.  0.
         12    1    1    2    0    0 -0.29089299321E+02 -0.11135226349E+02  0.68219752553E+01  0.31886046277E+02  0.00000000000E+00 0. -1.
         11    1    3    3    0    0  0.25275653765E+01 -0.64127161439E+01 -0.52643169797E+01  0.86732086680E+01  0.51100000000E-03 0. -1.
        -11    1    3    3    0    0  0.19270844468E+02  0.28956084191E+02 -0.79147812945E+01  0.35671613664E+02  0.51100000000E-03 0.  1.
        -12    1    3    3    0    0  0.72908894763E+01 -0.11408141698E+02  0.63571230190E+01  0.14957131391E+02  0.00000000000E+00 0.  1.
</event>
<event>
 7    1  0.4346085E-013  0.5930196E+02  0.7816164E-02  0.1266605E+00
        -11   -1    0    0    0    0  0.00000000000E+00  0.00000000000E+00  0.45593999997E+02  0.45594000000E+02  0.51100000000E-03 0.  1.
         11   -1    0    0    0    0 -0.00000000000E+00 -0.00000000000E+00 -0.45593999997E+02  0.45594000000E+02  0.51100000000E-03 0. -1.
    9900012    2    1    2    0    0 -0.25030832948E+02 -0.42542558744E+00 -0.19748315941E+02  0.59301959677E+02  0.50000028541E+02 0.  0.
         12    1    1    2    0    0  0.25030832948E+02  0.42542558744E+00  0.19748315941E+02  0.31886040323E+02  0.00000000000E+00 0. -1.
         11    1    3    3    0    0 -0.25692226520E+02 -0.10986354696E+02 -0.19929377589E+02  0.34321576077E+02  0.51100000000E-03 0. -1.
        -11    1    3    3    0    0 -0.19960375278E+01  0.16176735266E+02 -0.48283953317E+01  0.16999539153E+02  0.51100000000E-03 0.  1.
         12    1    3    3    0    0  0.26574310998E+01 -0.56158061577E+01  0.50094569800E+01  0.79808444469E+01  0.00000000000E+00 0. -1.
</event>
<event>
 7    1  0.4346085E-013  0.5930192E+02  0.7816164E-02  0.1266605E+00
        -11   -1    0    0    0    0  0.00000000000E+00  0.00000000000E+00  0.45593999997E+02  0.45594000000E+02  0.51100000000E-03 0. -1.
         11   -1    0    0    0    0 -0.00000000000E+00 -0.00000000000E+00 -0.45593999997E+02  0.45594000000E+02  0.51100000000E-03 0.  1.
    9900012    2    1    2    0    0  0.27570535204E+02 -0.14759559453E+01  0.15950201594E+02  0.59301924853E+02  0.49999965030E+02 0.  0.
         12    1    1    2    0    0 -0.27570535204E+02  0.14759559453E+01 -0.15950201594E+02  0.31886075147E+02  0.00000000000E+00 0. -1.
         11    1    3    3    0    0  0.14455224624E+02  0.13988651284E+02  0.12871526034E+02  0.23881207389E+02  0.51100000000E-03 0. -1.
        -11    1    3    3    0    0 -0.69864144736E+01 -0.12677648307E+02 -0.16911775300E+01  0.14573703562E+02  0.51100000000E-03 0.  1.
        -12    1    3    3    0    0  0.20101725053E+02 -0.27869589213E+01  0.47698530909E+01  0.20847013902E+02  0.00000000000E+00 0.  1.
</event>
<event>
 7    1  0.4346085E-013  0.5930196E+02  0.7816164E-02  0.1266605E+00
        -11   -1    0    0    0    0  0.00000000000E+00  0.00000000000E+00  0.45593999997E+02  0.45594000000E+02  0.51100000000E-03 0. -1.
         11   -1    0    0    0    0 -0.00000000000E+00 -0.00000000000E+00 -0.45593999997E+02  0.45594000000E+02  0.51100000000E-03 0.  1.
    9900012    2    1    2    0    0  0.68639388983E+01 -0.78964199101E+01  0.30120626249E+02  0.59301964966E+02  0.50000038186E+02 0.  0.
         12    1    1    2    0    0 -0.68639388983E+01  0.78964199101E+01 -0.30120626249E+02  0.31886035034E+02  0.00000000000E+00 0. -1.
         11    1    3    3    0    0  0.15681328762E+01 -0.11250224969E+02  0.34724247408E+02  0.36534914272E+02  0.51100000000E-03 0. -1.
        -11    1    3    3    0    0 -0.58963638745E+01  0.34103981071E+01 -0.85210241612E+01  0.10908976818E+02  0.51100000000E-03 0.  1.
        -12    1    3    3    0    0  0.11192169897E+02 -0.56593048591E-01  0.39174030017E+01  0.11858073876E+02  0.00000000000E+00 0.  1.
</event>
<event>
 7    1  0.4346085E-013  0.5930194E+02  0.7816164E-02  0.1266605E+00
        -11   -1    0    0    0    0  0.00000000000E+00  0.00000000000E+00  0.45593999997E+02  0.45594000000E+02  0.51100000000E-03 0. -1.
         11   -1    0    0    0    0 -0.00000000000E+00 -0.00000000000E+00 -0.45593999997E+02  0.45594000000E+02  0.51100000000E-03 0.  1.
    9900012    2    1    2    0    0 -0.11184326827E+02 -0.29520116033E+02 -0.44938254581E+01  0.59301939026E+02  0.49999990878E+02 0.  0.
         12    1    1    2    0    0  0.11184326827E+02  0.29520116033E+02  0.44938254581E+01  0.31886060974E+02  0.00000000000E+00 0. -1.
         11    1    3    3    0    0 -0.36671482588E+01  0.28966643968E+01  0.14092809259E+02  0.14847421124E+02  0.51100000000E-03 0. -1.
        -11    1    3    3    0    0 -0.12132975057E+02 -0.24439112459E+02 -0.21554426393E+02  0.34771721253E+02  0.51100000000E-03 0.  1.
         12    1    3    3    0    0  0.46157964894E+01 -0.79776679714E+01  0.29677916765E+01  0.96827966482E+01  0.00000000000E+00 0. -1.
</event>
<event>
 7    1  0.4346085E-013  0.5930202E+02  0.7816164E-02  0.1266604E+00
        -11   -1    0    0    0    0  0.00000000000E+00  0.00000000000E+00  0.45593999997E+02  0.45594000000E+02  0.51100000000E-03 0.  1.
         11   -1    0    0    0    0 -0.00000000000E+00 -0.00000000000E+00 -0.45593999997E+02  0.45594000000E+02  0.51100000000E-03 0. -1.
    9900012    2    1    2    0    0 -0.17707418671E+02  0.24479382273E+02  0.10194254823E+02  0.59302020889E+02  0.50000140177E+02 0.  0.
         12    1    1    2    0    0  0.17707418671E+02 -0.24479382273E+02 -0.10194254823E+02  0.31885979111E+02  0.00000000000E+00 0. -1.
         11    1    3    3    0    0 -0.97554745157E+01  0.14021562948E+01  0.14885331666E+01  0.99675000151E+01  0.51100000000E-03 0. -1.
        -11    1    3    3    0    0  0.12774303889E+01  0.25508054062E+02 -0.10713977598E+02  0.27696244631E+02  0.51100000000E-03 0.  1.
        -12    1    3    3    0    0 -0.92293745439E+01 -0.24308280840E+01  0.19419699254E+02  0.21638276243E+02  0.00000000000E+00 0.  1.
</event>
<event>
 7    1  0.4346085E-013  0.5930191E+02  0.7816164E-02  0.1266605E+00
        -11   -1    0    0    0    0  0.00000000000E+00  0.00000000000E+00  0.45593999997E+02  0.45594000000E+02  0.51100000000E-03 0.  1.
         11   -1    0    0    0    0 -0.00000000000E+00 -0.00000000000E+00 -0.45593999997E+02  0.45594000000E+02  0.51100000000E-03 0. -1.
    9900012    2    1    2    0    0 -0.13263574943E+02 -0.24693037020E+02  0.15200476989E+02  0.59301905880E+02  0.49999930427E+02 0.  0.
         12    1    1    2    0    0  0.13263574943E+02  0.24693037020E+02 -0.15200476989E+02  0.31886094120E+02  0.00000000000E+00 0. -1.
         11    1    3    3    0    0  0.76399861452E+01 -0.75851252111E+01 -0.12056265528E+02  0.16163448008E+02  0.51100000000E-03 0. -1.
        -11    1    3    3    0    0 -0.92103233799E+01  0.13358165267E+01  0.16146461775E+02  0.18636595469E+02  0.51100000000E-03 0.  1.
         12    1    3    3    0    0 -0.11693237708E+02 -0.18443728336E+02  0.11110280742E+02  0.24501862403E+02  0.00000000000E+00 0. -1.
</event>
<event>
 7    1  0.4346085E-013  0.5930195E+02  0.7816164E-02  0.1266605E+00
        -11   -1    0    0    0    0  0.00000000000E+00  0.00000000000E+00  0.45593999997E+02  0.45594000000E+02  0.51100000000E-03 0. -1.
         11   -1    0    0    0    0 -0.00000000000E+00 -0.00000000000E+00 -0.45593999997E+02  0.45594000000E+02  0.51100000000E-03 0.  1.
    9900012    2    1    2    0    0  0.27885668205E+02 -0.13050764254E+02 -0.82938092860E+01  0.59301949581E+02  0.50000010128E+02 0.  0.
         12    1    1    2    0    0 -0.27885668205E+02  0.13050764254E+02  0.82938092860E+01  0.31886050419E+02  0.00000000000E+00 0. -1.
         11    1    3    3    0    0  0.33305135562E+02 -0.23665348647E+02 -0.84504745130E+01  0.41721592745E+02  0.51100000000E-03 0. -1.
        -11    1    3    3    0    0 -0.13214252694E+01  0.84684930231E+01 -0.55675917420E+01  0.10220548757E+02  0.51100000000E-03 0.  1.
         12    1    3    3    0    0 -0.40980420876E+01  0.21460913698E+01  0.57242569691E+01  0.73598080795E+01  0.00000000000E+00 0. -1.
</event>
<event>
 7    1  0.4346085E-013  0.5930188E+02  0.7816164E-02  0.1266605E+00
        -11   -1    0    0    0    0  0.00000000000E+00  0.00000000000E+00  0.45593999997E+02  0.45594000000E+02  0.51100000000E-03 0. -1.
         11   -1    0    0    0    0 -0.00000000000E+00 -0.00000000000E+00 -0.45593999997E+02  0.45594000000E+02  0.51100000000E-03 0.  1.
    9900012    2    1    2    0    0  0.30948135723E+02 -0.67862589367E+01 -0.35895049300E+01  0.59301875107E+02  0.49999874304E+02 0.  0.
         12    1    1    2    0    0 -0.30948135723E+02  0.67862589367E+01  0.35895049300E+01  0.31886124893E+02  0.00000000000E+00 0. -1.
         11    1    3    3    0    0 -0.32038950927E+00 -0.11759943593E+02  0.76572457755E+01  0.14036820718E+02  0.51100000000E-03 0. -1.
        -11    1    3    3    0    0  0.29597027188E+02  0.85997865447E+01  0.25267368079E+01  0.30924500742E+02  0.51100000000E-03 0.  1.
        -12    1    3    3    0    0  0.16714980445E+01 -0.36261018884E+01 -0.13773487513E+02  0.14340553647E+02  0.00000000000E+00 0.  1.
</event>
<event>
 7    1  0.4346085E-013  0.5930198E+02  0.7816164E-02  0.1266605E+00
        -11   -1    0    0    0    0  0.00000000000E+00  0.00000000000E+00  0.45593999997E+02  0.45594000000E+02  0.51100000000E-03 0.  1.
         11   -1    0    0    0    0 -0.00000000000E+00 -0.00000000000E+00 -0.45593999997E+02  0.45594000000E+02  0.51100000000E-03 0. -1.
    9900012    2    1    2    0    0  0.46869207686E+01  0.95147801019E+01  0.30070248719E+02  0.59301982301E+02  0.50000069802E+02 0.  0.
         12    1    1    2    0    0 -0.46869207686E+01 -0.95147801019E+01 -0.30070248719E+02  0.31886017699E+02  0.00000000000E+00 0. -1.
         11    1    3    3    0    0  0.43824933133E+01 -0.37602642108E+01 -0.11437061395E+01  0.58867562010E+01  0.51100000000E-03 0. -1.
        -11    1    3    3    0    0  0.14812168919E+02  0.71582684028E+01  0.33675871143E+02  0.37479400370E+02  0.51100000000E-03 0.  1.
        -12    1    3    3    0    0 -0.14507741464E+02  0.61167759099E+01 -0.24619162843E+01  0.15935825730E+02  0.00000000000E+00 0.  1.
</event>
<event>
 7    1  0.4346085E-013  0.5930207E+02  0.7816164E-02  0.1266604E+00
        -11   -1    0    0    0    0  0.00000000000E+00  0.00000000000E+00  0.45593999997E+02  0.45594000000E+02  0.51100000000E-03 0.  1.
         11   -1    0    0    0    0 -0.00000000000E+00 -0.00000000000E+00 -0.45593999997E+02  0.45594000000E+02  0.51100000000E-03 0. -1.
    9900012    2    1    2    0    0 -0.26359279790E+02 -0.17705877866E+02  0.28987566403E+01  0.59302069998E+02  0.50000229739E+02 0.  0.
         12    1    1    2    0    0  0.26359279790E+02  0.17705877866E+02 -0.28987566403E+01  0.31885930002E+02  0.00000000000E+00 0. -1.
         11    1    3    3    0    0  0.34307938546E+01 -0.10977056286E+02 -0.39569856591E+01  0.12162394786E+02  0.51100000000E-03 0. -1.
        -11    1    3    3    0    0 -0.13233388559E+02  0.23467270193E+01  0.20026923646E+02  0.24118610479E+02  0.51100000000E-03 0.  1.
        -12    1    3    3    0    0 -0.16556685085E+02 -0.90755485996E+01 -0.13171181346E+02  0.23021064733E+02  0.00000000000E+00 0.  1.
</event>
<event>
 7    1  0.4346085E-013  0.5930195E+02  0.7816164E-02  0.1266605E+00
        -11   -1    0    0    0    0  0.00000000000E+00  0.00000000000E+00  0.45593999997E+02  0.45594000000E+02  0.51100000000E-03 0.  1.
         11   -1    0    0    0    0 -0.00000000000E+00 -0.00000000000E+00 -0.45593999997E+02  0.45594000000E+02  0.51100000000E-03 0. -1.
    9900012    2    1    2    0    0  0.27316590444E+01  0.26238009005E+02  0.17911598337E+02  0.59301946110E+02  0.50000003798E+02 0.  0.
         12    1    1    2    0    0 -0.27316590444E+01 -0.26238009005E+02 -0.17911598337E+02  0.31886053890E+02  0.00000000000E+00 0. -1.
         11    1    3    3    0    0 -0.59060496394E+01  0.11367319235E+02 -0.83060501434E+01  0.15267214487E+02  0.51100000000E-03 0. -1.
        -11    1    3    3    0    0 -0.96037292766E+01  0.85899624918E+01  0.19951127031E+02  0.23750085088E+02  0.51100000000E-03 0.  1.
        -12    1    3    3    0    0  0.18241437960E+02  0.62807272779E+01  0.62665214493E+01  0.20284646536E+02  0.00000000000E+00 0.  1.
</event>
<event>
 7    1  0.4346085E-013  0.5930196E+02  0.7816164E-02  0.1266605E+00
        -11   -1    0    0    0    0  0.00000000000E+00  0.00000000000E+00  0.45593999997E+02  0.45594000000E+02  0.51100000000E-03 0. -1.
         11   -1    0    0    0    0 -0.00000000000E+00 -0.00000000000E+00 -0.45593999997E+02  0.45594000000E+02  0.51100000000E-03 0.  1.
    9900012    2    1    2    0    0 -0.29748812743E+02  0.11469587799E+02 -0.41994296219E+00  0.59301958289E+02  0.50000026009E+02 0.  0.
         12    1    1    2    0    0  0.29748812743E+02 -0.11469587799E+02  0.41994296219E+00  0.31886041711E+02  0.00000000000E+00 0. -1.
         11    1    3    3    0    0  0.97495601643E+00  0.10940394662E+02 -0.17924094624E+02  0.21021796853E+02  0.51100000000E-03 0. -1.
        -11    1    3    3    0    0 -0.18558972265E+02 -0.24300897425E+01  0.27309418295E+01  0.18915571131E+02  0.51100000000E-03 0.  1.
         12    1    3    3    0    0 -0.12164796495E+02  0.29592828791E+01  0.14773209832E+02  0.19364590304E+02  0.00000000000E+00 0. -1.
</event>
<event>
 7    1  0.4346085E-013  0.5930165E+02  0.7816164E-02  0.1266606E+00
        -11   -1    0    0    0    0  0.00000000000E+00  0.00000000000E+00  0.45593999997E+02  0.45594000000E+02  0.51100000000E-03 0.  1.
         11   -1    0    0    0    0 -0.00000000000E+00 -0.00000000000E+00 -0.45593999997E+02  0.45594000000E+02  0.51100000000E-03 0. -1.
    9900012    2    1    2    0    0  0.78928329223E+00  0.16619544836E+02  0.27201231146E+02  0.59301651597E+02  0.49999466673E+02 0.  0.
         12    1    1    2    0    0 -0.78928329223E+00 -0.16619544836E+02 -0.27201231146E+02  0.31886348403E+02  0.00000000000E+00 0. -1.
         11    1    3    3    0    0  0.76216883561E+00 -0.12898354166E+02  0.78370021512E+01  0.15111818041E+02  0.51100000000E-03 0. -1.
        -11    1    3    3    0    0  0.66112518041E+01  0.24834680014E+02  0.23752703129E+02  0.34995155208E+02  0.51100000000E-03 0.  1.
        -12    1    3    3    0    0 -0.65841373475E+01  0.46832189871E+01 -0.43884741349E+01  0.91946783480E+01  0.00000000000E+00 0.  1.
</event>
<event>
 7    1  0.4346085E-013  0.5930194E+02  0.7816164E-02  0.1266605E+00
        -11   -1    0    0    0    0  0.00000000000E+00  0.00000000000E+00  0.45593999997E+02  0.45594000000E+02  0.51100000000E-03 0.  1.
         11   -1    0    0    0    0 -0.00000000000E+00 -0.00000000000E+00 -0.45593999997E+02  0.45594000000E+02  0.51100000000E-03 0. -1.
    9900012    2    1    2    0    0  0.37280524581E+01 -0.23651172921E+02  0.21058127646E+02  0.59301935715E+02  0.49999984839E+02 0.  0.
         12    1    1    2    0    0 -0.37280524581E+01  0.23651172921E+02 -0.21058127646E+02  0.31886064285E+02  0.00000000000E+00 0. -1.
         11    1    3    3    0    0  0.26993980419E+01 -0.24467023673E+02 -0.75559052250E+01  0.25749052434E+02  0.51100000000E-03 0. -1.
        -11    1    3    3    0    0 -0.47887944294E+01 -0.36720547488E+01  0.26886505119E+01  0.66064650155E+01  0.51100000000E-03 0.  1.
         12    1    3    3    0    0  0.58174488456E+01  0.44879055015E+01  0.25925382359E+02  0.26946418265E+02  0.00000000000E+00 0. -1.
</event>
<event>
 7    1  0.4346085E-013  0.5930196E+02  0.7816164E-02  0.1266605E+00
        -11   -1    0    0    0    0  0.00000000000E+00  0.00000000000E+00  0.45593999997E+02  0.45594000000E+02  0.51100000000E-03 0.  1.
         11   -1    0    0    0    0 -0.00000000000E+00 -0.00000000000E+00 -0.45593999997E+02  0.45594000000E+02  0.51100000000E-03 0. -1.
    9900012    2    1    2    0    0  0.12702113547E+02 -0.27949356014E+02 -0.86144965619E+01  0.59301956953E+02  0.50000023573E+02 0.  0.
         12    1    1    2    0    0 -0.12702113547E+02  0.27949356014E+02  0.86144965619E+01  0.31886043047E+02  0.00000000000E+00 0. -1.
         11    1    3    3    0    0 -0.31244468792E+01 -0.25439466914E+01  0.38206486723E+01  0.55525840478E+01  0.51100000000E-03 0. -1.
        -11    1    3    3    0    0  0.28781001842E+02 -0.15366144247E+02 -0.16927034498E+02  0.36755801627E+02  0.51100000000E-03 0.  1.
        -12    1    3    3    0    0 -0.12954441416E+02 -0.10039265075E+02  0.44918892641E+01  0.16993571279E+02  0.00000000000E+00 0.  1.
</event>
<event>
 7    1  0.4346085E-013  0.5930194E+02  0.7816164E-02  0.1266605E+00
        -11   -1    0    0    0    0  0.00000000000E+00  0.00000000000E+00  0.45593999997E+02  0.45594000000E+02  0.51100000000E-03 0.  1.
         11   -1    0    0    0    0 -0.00000000000E+00 -0.00000000000E+00 -0.45593999997E+02  0.45594000000E+02  0.51100000000E-03 0. -1.
    9900012    2    1    2    0    0 -0.99515806533E+01 -0.12323057402E+02  0.27673621923E+02  0.59301936405E+02  0.49999986099E+02 0.  0.
         12    1    1    2    0    0  0.99515806533E+01  0.12323057402E+02 -0.27673621923E+02  0.31886063595E+02  0.00000000000E+00 0. -1.
         11    1    3    3    0    0  0.35079252556E+01  0.16619659956E+01 -0.12193019751E+02  0.12795991618E+02  0.51100000000E-03 0. -1.
        -11    1    3    3    0    0 -0.15660770604E+02 -0.14087318014E+02  0.31800860086E+02  0.38144553572E+02  0.51100000000E-03 0.  1.
         12    1    3    3    0    0  0.22012646946E+01  0.10229461678E+00  0.80657815875E+01  0.83613912157E+01  0.00000000000E+00 0. -1.
</event>
<event>
 7    1  0.4346085E-013  0.5930194E+02  0.7816164E-02  0.1266605E+00
        -11   -1    0    0    0    0  0.00000000000E+00  0.00000000000E+00  0.45593999997E+02  0.45594000000E+02  0.51100000000E-03 0.  1.
         11   -1    0    0    0    0 -0.00000000000E+00 -0.00000000000E+00 -0.45593999997E+02  0.45594000000E+02  0.51100000000E-03 0. -1.
    9900012    2    1    2    0    0  0.17713879356E+02 -0.24714062132E+02  0.95996955797E+01  0.59301944363E+02  0.50000000611E+02 0.  0.
         12    1    1    2    0    0 -0.17713879356E+02  0.24714062132E+02 -0.95996955797E+01  0.31886055637E+02  0.00000000000E+00 0. -1.
         11    1    3    3    0    0  0.28212213030E+02 -0.31669807534E+02  0.23043153583E+01  0.42476058466E+02  0.51100000000E-03 0. -1.
        -11    1    3    3    0    0 -0.59874208091E+01  0.74057266876E+01  0.77384192403E+01  0.12270987259E+02  0.51100000000E-03 0.  1.
         12    1    3    3    0    0 -0.45109128643E+01 -0.44998128522E+00 -0.44303901883E+00  0.45548986376E+01  0.00000000000E+00 0. -1.
</event>
<event>
 7    1  0.4346085E-013  0.5930195E+02  0.7816164E-02  0.1266605E+00
        -11   -1    0    0    0    0  0.00000000000E+00  0.00000000000E+00  0.45593999997E+02  0.45594000000E+02  0.51100000000E-03 0.  1.
         11   -1    0    0    0    0 -0.00000000000E+00 -0.00000000000E+00 -0.45593999997E+02  0.45594000000E+02  0.51100000000E-03 0. -1.
    9900012    2    1    2    0    0 -0.85895862466E+01  0.15564643326E+02  0.26470384959E+02  0.59301946723E+02  0.50000004915E+02 0.  0.
         12    1    1    2    0    0  0.85895862466E+01 -0.15564643326E+02 -0.26470384959E+02  0.31886053277E+02  0.00000000000E+00 0. -1.
         11    1    3    3    0    0 -0.56064034510E+01  0.11586751315E+02 -0.13047888966E+02  0.18328447082E+02  0.51100000000E-03 0. -1.
        -11    1    3    3    0    0 -0.24252976117E+01  0.71357347899E+01  0.25335133304E+02  0.26432361970E+02  0.51100000000E-03 0.  1.
         12    1    3    3    0    0 -0.55788518392E+00 -0.31578427792E+01  0.14183140621E+02  0.14541137671E+02  0.00000000000E+00 0. -1.
</event>
<event>
 7    1  0.4346085E-013  0.5930190E+02  0.7816164E-02  0.1266605E+00
        -11   -1    0    0    0    0  0.00000000000E+00  0.00000000000E+00  0.45593999997E+02  0.45594000000E+02  0.51100000000E-03 0. -1.
         11   -1    0    0    0    0 -0.00000000000E+00 -0.00000000000E+00 -0.45593999997E+02  0.45594000000E+02  0.51100000000E-03 0.  1.
    9900012    2    1    2    0    0  0.10346905411E+02  0.22401006823E+02 -0.20195543656E+02  0.59301897356E+02  0.49999914882E+02 0.  0.
         12    1    1    2    0    0 -0.10346905411E+02 -0.22401006823E+02  0.20195543656E+02  0.31886102644E+02  0.00000000000E+00 0. -1.
         11    1    3    3    0    0  0.30640583982E+01  0.16462890254E+02  0.77903565300E+01  0.18469024460E+02  0.51100000000E-03 0. -1.
        -11    1    3    3    0    0 -0.88174072006E+00  0.78744526248E+01 -0.30938841561E+02  0.31937382301E+02  0.51100000000E-03 0.  1.
        -12    1    3    3    0    0  0.81645877328E+01 -0.19363360553E+01  0.29529413753E+01  0.88954905953E+01  0.00000000000E+00 0.  1.
</event>
<event>
 7    1  0.4346085E-013  0.5930195E+02  0.7816164E-02  0.1266605E+00
        -11   -1    0    0    0    0  0.00000000000E+00  0.00000000000E+00  0.45593999997E+02  0.45594000000E+02  0.51100000000E-03 0.  1.
         11   -1    0    0    0    0 -0.00000000000E+00 -0.00000000000E+00 -0.45593999997E+02  0.45594000000E+02  0.51100000000E-03 0. -1.
    9900012    2    1    2    0    0  0.19633334172E+02 -0.82543485000E+01  0.23730114931E+02  0.59301946081E+02  0.50000003745E+02 0.  0.
         12    1    1    2    0    0 -0.19633334172E+02  0.82543485000E+01 -0.23730114931E+02  0.31886053919E+02  0.00000000000E+00 0. -1.
         11    1    3    3    0    0  0.29227720290E+02  0.91642272665E+01  0.84890250546E+01  0.31785314870E+02  0.51100000000E-03 0. -1.
        -11    1    3    3    0    0 -0.82448844626E+01 -0.14359427677E+02  0.17006255612E+02  0.23735711770E+02  0.51100000000E-03 0.  1.
        -12    1    3    3    0    0 -0.13495016552E+01 -0.30591480892E+01 -0.17651657356E+01  0.37809194415E+01  0.00000000000E+00 0.  1.
</event>
<event>
 7    1  0.4346085E-013  0.5930198E+02  0.7816164E-02  0.1266605E+00
        -11   -1    0    0    0    0  0.00000000000E+00  0.00000000000E+00  0.45593999997E+02  0.45594000000E+02  0.51100000000E-03 0. -1.
         11   -1    0    0    0    0 -0.00000000000E+00 -0.00000000000E+00 -0.45593999997E+02  0.45594000000E+02  0.51100000000E-03 0.  1.
    9900012    2    1    2    0    0  0.28691508438E+02  0.99029715339E+01 -0.97696929606E+01  0.59301977949E+02  0.50000061865E+02 0.  0.
         12    1    1    2    0    0 -0.28691508438E+02 -0.99029715339E+01  0.97696929606E+01  0.31886022051E+02  0.00000000000E+00 0. -1.
         11    1    3    3    0    0  0.85925552116E+01  0.95727400186E+01  0.39557797553E+01  0.13457992059E+02  0.51100000000E-03 0. -1.
        -11    1    3    3    0    0  0.20082768946E+02 -0.98366454009E+01  0.64308485745E+01  0.23268713220E+02  0.51100000000E-03 0.  1.
        -12    1    3    3    0    0  0.16184280833E-01  0.10166876916E+02 -0.20156321290E+02  0.22575272670E+02  0.00000000000E+00 0.  1.
</event>
<event>
 7    1  0.4346085E-013  0.5930193E+02  0.7816164E-02  0.1266605E+00
        -11   -1    0    0    0    0  0.00000000000E+00  0.00000000000E+00  0.45593999997E+02  0.45594000000E+02  0.51100000000E-03 0.  1.
         11   -1    0    0    0    0 -0.00000000000E+00 -0.00000000000E+00 -0.45593999997E+02  0.45594000000E+02  0.51100000000E-03 0. -1.
    9900012    2    1    2    0    0 -0.69814047975E+01 -0.33831986481E+01  0.30927901822E+02  0.59301934750E+02  0.49999983079E+02 0.  0.
         12    1    1    2    0    0  0.69814047975E+01  0.33831986481E+01 -0.30927901822E+02  0.31886065250E+02  0.00000000000E+00 0. -1.
         11    1    3    3    0    0  0.53601695112E+01  0.14245447483E+01  0.13620466167E+01  0.57110345976E+01  0.51100000000E-03 0. -1.
        -11    1    3    3    0    0 -0.13186043571E+02 -0.15617247575E+02  0.35697377684E+02  0.41134814217E+02  0.51100000000E-03 0.  1.
        -12    1    3    3    0    0  0.84446926258E+00  0.10809504179E+02 -0.61315224784E+01  0.12456085935E+02  0.00000000000E+00 0.  1.
</event>
<event>
 7    1  0.4346085E-013  0.5930194E+02  0.7816164E-02  0.1266605E+00
        -11   -1    0    0    0    0  0.00000000000E+00  0.00000000000E+00  0.45593999997E+02  0.45594000000E+02  0.51100000000E-03 0.  1.
         11   -1    0    0    0    0 -0.00000000000E+00 -0.00000000000E+00 -0.45593999997E+02  0.45594000000E+02  0.51100000000E-03 0. -1.
    9900012    2    1    2    0    0  0.40518911418E+01  0.22468646674E+02  0.22259001039E+02  0.59301936705E+02  0.49999986645E+02 0.  0.
         12    1    1    2    0    0 -0.40518911418E+01 -0.22468646674E+02 -0.22259001039E+02  0.31886063295E+02  0.00000000000E+00 0. -1.
         11    1    3    3    0    0  0.17851226577E+02  0.13796449140E+02 -0.51184006197E+01  0.23134526672E+02  0.51100000000E-03 0. -1.
        -11    1    3    3    0    0 -0.12988876921E+02 -0.18142533525E+01  0.15371714028E+02  0.20206237436E+02  0.51100000000E-03 0.  1.
         12    1    3    3    0    0 -0.81045851390E+00  0.10486450886E+02  0.12005687631E+02  0.15961172597E+02  0.00000000000E+00 0. -1.
</event>
<event>
 7    1  0.4346085E-013  0.5930191E+02  0.7816164E-02  0.1266605E+00
        -11   -1    0    0    0    0  0.00000000000E+00  0.00000000000E+00  0.45593999997E+02  0.45594000000E+02  0.51100000000E-03 0.  1.
         11   -1    0    0    0    0 -0.00000000000E+00 -0.00000000000E+00 -0.45593999997E+02  0.45594000000E+02  0.51100000000E-03 0. -1.
    9900012    2    1    2    0    0  0.92758646759E+01 -0.50679294789E+01  0.30083170675E+02  0.59301910046E+02  0.49999938026E+02 0.  0.
         12    1    1    2    0    0 -0.92758646759E+01  0.50679294789E+01 -0.30083170675E+02  0.31886089954E+02  0.00000000000E+00 0. -1.
         11    1    3    3    0    0  0.12974164571E+02 -0.15816439692E+02 -0.62887487341E+00  0.20466660566E+02  0.51100000000E-03 0. -1.
        -11    1    3    3    0    0 -0.20333962036E+01 -0.90559566884E+00  0.26095066490E+02  0.26189831978E+02  0.51100000000E-03 0.  1.
         12    1    3    3    0    0 -0.16649036918E+01  0.11654105882E+02  0.46169790583E+01  0.12645417503E+02  0.00000000000E+00 0. -1.
</event>
<event>
 7    1  0.4346085E-013  0.5930201E+02  0.7816164E-02  0.1266605E+00
        -11   -1    0    0    0    0  0.00000000000E+00  0.00000000000E+00  0.45593999997E+02  0.45594000000E+02  0.51100000000E-03 0.  1.
         11   -1    0    0    0    0 -0.00000000000E+00 -0.00000000000E+00 -0.45593999997E+02  0.45594000000E+02  0.51100000000E-03 0. -1.
    9900012    2    1    2    0    0  0.25114916249E+02 -0.19513090365E+02  0.22796028327E+01  0.59302010869E+02  0.50000121902E+02 0.  0.
         12    1    1    2    0    0 -0.25114916249E+02  0.19513090365E+02 -0.22796028327E+01  0.31885989131E+02  0.00000000000E+00 0. -1.
         11    1    3    3    0    0  0.45847216557E+01 -0.48373445260E+01 -0.11445956048E+02  0.13244979608E+02  0.51100000000E-03 0. -1.
        -11    1    3    3    0    0 -0.68672992321E+00 -0.41669939059E+01  0.20895811739E+02  0.21318311019E+02  0.51100000000E-03 0.  1.
        -12    1    3    3    0    0  0.21216924516E+02 -0.10508751933E+02 -0.71702528592E+01  0.24738720242E+02  0.00000000000E+00 0.  1.
</event>
<event>
 7    1  0.4346085E-013  0.5930195E+02  0.7816164E-02  0.1266605E+00
        -11   -1    0    0    0    0  0.00000000000E+00  0.00000000000E+00  0.45593999997E+02  0.45594000000E+02  0.51100000000E-03 0.  1.
         11   -1    0    0    0    0 -0.00000000000E+00 -0.00000000000E+00 -0.45593999997E+02  0.45594000000E+02  0.51100000000E-03 0. -1.
    9900012    2    1    2    0    0  0.20180824572E+02 -0.14564192146E+02  0.19933355773E+02  0.59301952179E+02  0.50000014866E+02 0.  0.
         12    1    1    2    0    0 -0.20180824572E+02  0.14564192146E+02 -0.19933355773E+02  0.31886047821E+02  0.00000000000E+00 0. -1.
         11    1    3    3    0    0 -0.98748875767E+01 -0.15024160305E+01 -0.26108977964E-01  0.99885604830E+01  0.51100000000E-03 0. -1.
        -11    1    3    3    0    0  0.23587902650E+02  0.59013439422E+01  0.15348174764E+02  0.28753808106E+02  0.51100000000E-03 0.  1.
        -12    1    3    3    0    0  0.64678094985E+01 -0.18963120058E+02  0.46112899864E+01  0.20559583590E+02  0.00000000000E+00 0.  1.
</event>
<event>
 7    1  0.4346085E-013  0.5930197E+02  0.7816164E-02  0.1266605E+00
        -11   -1    0    0    0    0  0.00000000000E+00  0.00000000000E+00  0.45593999997E+02  0.45594000000E+02  0.51100000000E-03 0. -1.
         11   -1    0    0    0    0 -0.00000000000E+00 -0.00000000000E+00 -0.45593999997E+02  0.45594000000E+02  0.51100000000E-03 0.  1.
    9900012    2    1    2    0    0  0.12982281996E+01  0.31658762504E+02 -0.35716158360E+01  0.59301967330E+02  0.50000042498E+02 0.  0.
         12    1    1    2    0    0 -0.12982281996E+01 -0.31658762504E+02  0.35716158360E+01  0.31886032670E+02  0.00000000000E+00 0. -1.
         11    1    3    3    0    0  0.68809821490E+01 -0.51626792864E+01  0.14800034473E+02  0.17118475207E+02  0.51100000000E-03 0. -1.
        -11    1    3    3    0    0 -0.53848009065E+01  0.24746015954E+02 -0.89287125218E+01  0.26852994133E+02  0.51100000000E-03 0.  1.
         12    1    3    3    0    0 -0.19795304293E+00  0.12075425837E+02 -0.94429377875E+01  0.15330497990E+02  0.00000000000E+00 0. -1.
</event>
<event>
 7    1  0.4346085E-013  0.5930192E+02  0.7816164E-02  0.1266605E+00
        -11   -1    0    0    0    0  0.00000000000E+00  0.00000000000E+00  0.45593999997E+02  0.45594000000E+02  0.51100000000E-03 0.  1.
         11   -1    0    0    0    0 -0.00000000000E+00 -0.00000000000E+00 -0.45593999997E+02  0.45594000000E+02  0.51100000000E-03 0. -1.
    9900012    2    1    2    0    0  0.25554961355E+02  0.39002765028E+01  0.18666919656E+02  0.59301920026E+02  0.49999956227E+02 0.  0.
         12    1    1    2    0    0 -0.25554961355E+02 -0.39002765028E+01 -0.18666919656E+02  0.31886079974E+02  0.00000000000E+00 0. -1.
         11    1    3    3    0    0  0.47409803605E+01 -0.20949920454E+02  0.12216204810E+02  0.24710558918E+02  0.51100000000E-03 0.  1.
        -11    1    3    3    0    0  0.93746916443E+01  0.17854946917E+02  0.64825385010E+01  0.21182711784E+02  0.51100000000E-03 0. -1.
        -12    1    3    3    0    0  0.11439289350E+02  0.69952500395E+01 -0.31823655109E-01  0.13408649324E+02  0.00000000000E+00 0.  1.
</event>
<event>
 7    1  0.4346085E-013  0.5930195E+02  0.7816164E-02  0.1266605E+00
        -11   -1    0    0    0    0  0.00000000000E+00  0.00000000000E+00  0.45593999997E+02  0.45594000000E+02  0.51100000000E-03 0.  1.
         11   -1    0    0    0    0 -0.00000000000E+00 -0.00000000000E+00 -0.45593999997E+02  0.45594000000E+02  0.51100000000E-03 0. -1.
    9900012    2    1    2    0    0  0.10098096822E+02 -0.26164076522E+02  0.15172014642E+02  0.59301945243E+02  0.50000002216E+02 0.  0.
         12    1    1    2    0    0 -0.10098096822E+02  0.26164076522E+02 -0.15172014642E+02  0.31886054757E+02  0.00000000000E+00 0. -1.
         11    1    3    3    0    0  0.13306770680E+02 -0.26395986260E+02 -0.10645550977E+02  0.31418879554E+02  0.51100000000E-03 0. -1.
        -11    1    3    3    0    0  0.32337491371E+01  0.15886778812E+01  0.59798608093E+01  0.69813871437E+01  0.51100000000E-03 0.  1.
         12    1    3    3    0    0 -0.64424229944E+01 -0.13567681432E+01  0.19837704811E+02  0.20901678545E+02  0.00000000000E+00 0. -1.
</event>
<event>
 7    1  0.4346085E-013  0.5930188E+02  0.7816164E-02  0.1266605E+00
        -11   -1    0    0    0    0  0.00000000000E+00  0.00000000000E+00  0.45593999997E+02  0.45594000000E+02  0.51100000000E-03 0.  1.
         11   -1    0    0    0    0 -0.00000000000E+00 -0.00000000000E+00 -0.45593999997E+02  0.45594000000E+02  0.51100000000E-03 0. -1.
    9900012    2    1    2    0    0  0.17042881644E+00 -0.31228796830E+02 -0.64387939458E+01  0.59301876609E+02  0.49999877045E+02 0.  0.
         12    1    1    2    0    0 -0.17042881644E+00  0.31228796830E+02  0.64387939458E+01  0.31886123391E+02  0.00000000000E+00 0. -1.
         11    1    3    3    0    0 -0.19155321848E+02 -0.70408456996E+01 -0.76999644619E+01  0.21812595358E+02  0.51100000000E-03 0. -1.
        -11    1    3    3    0    0  0.24522192278E+01 -0.19478257464E+02  0.30972982695E+01  0.19874837101E+02  0.51100000000E-03 0.  1.
         12    1    3    3    0    0  0.16873531437E+02 -0.47096936660E+01 -0.18361277533E+01  0.17614444150E+02  0.00000000000E+00 0. -1.
</event>
<event>
 7    1  0.4346085E-013  0.5930196E+02  0.7816164E-02  0.1266605E+00
        -11   -1    0    0    0    0  0.00000000000E+00  0.00000000000E+00  0.45593999997E+02  0.45594000000E+02  0.51100000000E-03 0. -1.
         11   -1    0    0    0    0 -0.00000000000E+00 -0.00000000000E+00 -0.45593999997E+02  0.45594000000E+02  0.51100000000E-03 0.  1.
    9900012    2    1    2    0    0 -0.20462688058E+02 -0.21539006968E+02 -0.11578834578E+02  0.59301955499E+02  0.50000020921E+02 0.  0.
         12    1    1    2    0    0  0.20462688058E+02  0.21539006968E+02  0.11578834578E+02  0.31886044501E+02  0.00000000000E+00 0. -1.
         11    1    3    3    0    0 -0.31587147306E+02 -0.16802514812E+02  0.65214685955E+01  0.36367594529E+02  0.51100000000E-03 0. -1.
        -11    1    3    3    0    0  0.50367873166E+01  0.46813501049E+00 -0.11473253970E+02  0.12538896833E+02  0.51100000000E-03 0.  1.
         12    1    3    3    0    0  0.60876719313E+01 -0.52046271668E+01 -0.66270492034E+01  0.10395464137E+02  0.00000000000E+00 0. -1.
</event>
<event>
 7    1  0.4346085E-013  0.5930192E+02  0.7816164E-02  0.1266605E+00
        -11   -1    0    0    0    0  0.00000000000E+00  0.00000000000E+00  0.45593999997E+02  0.45594000000E+02  0.51100000000E-03 0. -1.
         11   -1    0    0    0    0 -0.00000000000E+00 -0.00000000000E+00 -0.45593999997E+02  0.45594000000E+02  0.51100000000E-03 0.  1.
    9900012    2    1    2    0    0  0.15668086642E+02  0.21931488546E+02 -0.17036527943E+02  0.59301915053E+02  0.49999947157E+02 0.  0.
         12    1    1    2    0    0 -0.15668086642E+02 -0.21931488546E+02  0.17036527943E+02  0.31886084947E+02  0.00000000000E+00 0. -1.
         11    1    3    3    0    0  0.20069358767E+02  0.12243184143E+02  0.12650263343E+02  0.26696514420E+02  0.51100000000E-03 0. -1.
        -11    1    3    3    0    0 -0.51244840078E+01  0.37075802692E+01 -0.21689692264E+02  0.22593123701E+02  0.51100000000E-03 0.  1.
        -12    1    3    3    0    0  0.72321188287E+00  0.59807241347E+01 -0.79970990212E+01  0.10012276932E+02  0.00000000000E+00 0.  1.
</event>
<event>
 7    1  0.4346085E-013  0.5930194E+02  0.7816164E-02  0.1266605E+00
        -11   -1    0    0    0    0  0.00000000000E+00  0.00000000000E+00  0.45593999997E+02  0.45594000000E+02  0.51100000000E-03 0.  1.
         11   -1    0    0    0    0 -0.00000000000E+00 -0.00000000000E+00 -0.45593999997E+02  0.45594000000E+02  0.51100000000E-03 0. -1.
    9900012    2    1    2    0    0 -0.12514161256E+02 -0.95790055742E+01  0.27719294563E+02  0.59301939240E+02  0.49999991268E+02 0.  0.
         12    1    1    2    0    0  0.12514161256E+02  0.95790055742E+01 -0.27719294563E+02  0.31886060760E+02  0.00000000000E+00 0. -1.
         11    1    3    3    0    0  0.14277171594E+02 -0.63726177960E+01  0.26996864509E+01  0.15866196567E+02  0.51100000000E-03 0. -1.
        -11    1    3    3    0    0 -0.19207323053E+02 -0.10060863087E+01  0.22852142761E+01  0.19368935775E+02  0.51100000000E-03 0.  1.
        -12    1    3    3    0    0 -0.75840097972E+01 -0.22003014694E+01  0.22734393836E+02  0.24066806898E+02  0.00000000000E+00 0.  1.
</event>
<event>
 7    1  0.4346085E-013  0.5930196E+02  0.7816164E-02  0.1266605E+00
        -11   -1    0    0    0    0  0.00000000000E+00  0.00000000000E+00  0.45593999997E+02  0.45594000000E+02  0.51100000000E-03 0.  1.
         11   -1    0    0    0    0 -0.00000000000E+00 -0.00000000000E+00 -0.45593999997E+02  0.45594000000E+02  0.51100000000E-03 0. -1.
    9900012    2    1    2    0    0 -0.99719883804E+01  0.58324045201E+01  0.29719719917E+02  0.59301964707E+02  0.50000037714E+02 0.  0.
         12    1    1    2    0    0  0.99719883804E+01 -0.58324045201E+01 -0.29719719917E+02  0.31886035293E+02  0.00000000000E+00 0. -1.
         11    1    3    3    0    0 -0.55092162939E+01  0.12486506054E+02 -0.96957775867E+01  0.16741338085E+02  0.51100000000E-03 0. -1.
        -11    1    3    3    0    0 -0.92668040015E+01 -0.39916255332E+01  0.30103918791E+02  0.31749845002E+02  0.51100000000E-03 0.  1.
         12    1    3    3    0    0  0.48040319151E+01 -0.26624760011E+01  0.93115787130E+01  0.10810781620E+02  0.00000000000E+00 0. -1.
</event>
<event>
 7    1  0.4346085E-013  0.5930212E+02  0.7816164E-02  0.1266604E+00
        -11   -1    0    0    0    0  0.00000000000E+00  0.00000000000E+00  0.45593999997E+02  0.45594000000E+02  0.51100000000E-03 0.  1.
         11   -1    0    0    0    0 -0.00000000000E+00 -0.00000000000E+00 -0.45593999997E+02  0.45594000000E+02  0.51100000000E-03 0. -1.
    9900012    2    1    2    0    0 -0.28468412811E+02  0.14361656214E+02 -0.43102404568E-01  0.59302116681E+02  0.50000314877E+02 0.  0.
         12    1    1    2    0    0  0.28468412811E+02 -0.14361656214E+02  0.43102404568E-01  0.31885883319E+02  0.00000000000E+00 0. -1.
         11    1    3    3    0    0 -0.22997408372E+02  0.19531964690E+02 -0.17715196841E+02  0.34988664391E+02  0.51100000000E-03 0. -1.
        -11    1    3    3    0    0  0.65746877827E+00 -0.80343674977E+01  0.15021830342E+02  0.17048129321E+02  0.51100000000E-03 0.  1.
         12    1    3    3    0    0 -0.61284732177E+01  0.28640590224E+01  0.26502640950E+01  0.72653229685E+01  0.00000000000E+00 0. -1.
</event>
<event>
 7    1  0.4346085E-013  0.5930194E+02  0.7816164E-02  0.1266605E+00
        -11   -1    0    0    0    0  0.00000000000E+00  0.00000000000E+00  0.45593999997E+02  0.45594000000E+02  0.51100000000E-03 0.  1.
         11   -1    0    0    0    0 -0.00000000000E+00 -0.00000000000E+00 -0.45593999997E+02  0.45594000000E+02  0.51100000000E-03 0. -1.
    9900012    2    1    2    0    0 -0.11320607099E+02 -0.23696231001E+02  0.18084611435E+02  0.59301942240E+02  0.49999996739E+02 0.  0.
         12    1    1    2    0    0  0.11320607099E+02  0.23696231001E+02 -0.18084611435E+02  0.31886057760E+02  0.00000000000E+00 0. -1.
         11    1    3    3    0    0 -0.67778865858E+00 -0.23352916497E+02 -0.36389482501E+01  0.23644450745E+02  0.51100000000E-03 0. -1.
        -11    1    3    3    0    0 -0.33943940848E+01 -0.39330990542E+01  0.25995833018E+02  0.26509894642E+02  0.51100000000E-03 0.  1.
        -12    1    3    3    0    0 -0.72484243555E+01  0.35897845505E+01 -0.42722733325E+01  0.91475968530E+01  0.00000000000E+00 0.  1.
</event>
<event>
 7    1  0.4346085E-013  0.5930194E+02  0.7816164E-02  0.1266605E+00
        -11   -1    0    0    0    0  0.00000000000E+00  0.00000000000E+00  0.45593999997E+02  0.45594000000E+02  0.51100000000E-03 0. -1.
         11   -1    0    0    0    0 -0.00000000000E+00 -0.00000000000E+00 -0.45593999997E+02  0.45594000000E+02  0.51100000000E-03 0.  1.
    9900012    2    1    2    0    0 -0.20273263469E+02  0.18366110218E+02 -0.16382961510E+02  0.59301942796E+02  0.49999997753E+02 0.  0.
         12    1    1    2    0    0  0.20273263469E+02 -0.18366110218E+02  0.16382961510E+02  0.31886057204E+02  0.00000000000E+00 0. -1.
         11    1    3    3    0    0 -0.32535840242E+02  0.41132294610E+01 -0.69384249324E+01  0.33520759204E+02  0.51100000000E-03 0. -1.
        -11    1    3    3    0    0  0.97727139477E+01  0.46822888658E+01 -0.11369357788E+02  0.15706433832E+02  0.51100000000E-03 0.  1.
        -12    1    3    3    0    0  0.24898628251E+01  0.95705918908E+01  0.19248212110E+01  0.10074749760E+02  0.00000000000E+00 0.  1.
</event>
<event>
 7    1  0.4346085E-013  0.5930199E+02  0.7816164E-02  0.1266605E+00
        -11   -1    0    0    0    0  0.00000000000E+00  0.00000000000E+00  0.45593999997E+02  0.45594000000E+02  0.51100000000E-03 0.  1.
         11   -1    0    0    0    0 -0.00000000000E+00 -0.00000000000E+00 -0.45593999997E+02  0.45594000000E+02  0.51100000000E-03 0. -1.
    9900012    2    1    2    0    0  0.19412338002E+02  0.11437694613E+02  0.22562312865E+02  0.59301989171E+02  0.50000082331E+02 0.  0.
         12    1    1    2    0    0 -0.19412338002E+02 -0.11437694613E+02 -0.22562312865E+02  0.31886010829E+02  0.00000000000E+00 0. -1.
         11    1    3    3    0    0  0.26800765453E+01 -0.18717951112E+02  0.18401378618E+01  0.18998173905E+02  0.51100000000E-03 0. -1.
        -11    1    3    3    0    0  0.15488556313E+02  0.28522154480E+02  0.20019481885E+02  0.38133821315E+02  0.51100000000E-03 0.  1.
         12    1    3    3    0    0  0.12437051436E+01  0.16334912445E+01  0.70269311798E+00  0.21699939511E+01  0.00000000000E+00 0. -1.
</event>
<event>
 7    1  0.4346085E-013  0.5930196E+02  0.7816164E-02  0.1266605E+00
        -11   -1    0    0    0    0  0.00000000000E+00  0.00000000000E+00  0.45593999997E+02  0.45594000000E+02  0.51100000000E-03 0.  1.
         11   -1    0    0    0    0 -0.00000000000E+00 -0.00000000000E+00 -0.45593999997E+02  0.45594000000E+02  0.51100000000E-03 0. -1.
    9900012    2    1    2    0    0 -0.11997813901E+00 -0.21442645491E+02  0.23599109764E+02  0.59301961957E+02  0.50000032699E+02 0.  0.
         12    1    1    2    0    0  0.11997813901E+00  0.21442645491E+02 -0.23599109764E+02  0.31886038043E+02  0.00000000000E+00 0. -1.
         11    1    3    3    0    0 -0.36139581094E+01  0.99626478125E+00  0.10641656872E+02  0.11282645877E+02  0.51100000000E-03 0. -1.
        -11    1    3    3    0    0  0.20353390377E+02 -0.19909778027E+02  0.12138435885E+02  0.30951597486E+02  0.51100000000E-03 0.  1.
        -12    1    3    3    0    0 -0.16859410407E+02 -0.25291322457E+01  0.81901700709E+00  0.17067718595E+02  0.00000000000E+00 0.  1.
</event>
<event>
 7    1  0.4346085E-013  0.5930192E+02  0.7816164E-02  0.1266605E+00
        -11   -1    0    0    0    0  0.00000000000E+00  0.00000000000E+00  0.45593999997E+02  0.45594000000E+02  0.51100000000E-03 0. -1.
         11   -1    0    0    0    0 -0.00000000000E+00 -0.00000000000E+00 -0.45593999997E+02  0.45594000000E+02  0.51100000000E-03 0.  1.
    9900012    2    1    2    0    0 -0.11516708197E+02  0.11320505384E+02 -0.27494250140E+02  0.59301918387E+02  0.49999953238E+02 0.  0.
         12    1    1    2    0    0  0.11516708197E+02 -0.11320505384E+02  0.27494250140E+02  0.31886081613E+02  0.00000000000E+00 0. -1.
         11    1    3    3    0    0 -0.23804738693E+01 -0.13350074754E+02 -0.17179891661E+02  0.21886978538E+02  0.51100000000E-03 0. -1.
        -11    1    3    3    0    0  0.64445173976E+01  0.17381758737E+02 -0.74391460429E+01  0.19974940185E+02  0.51100000000E-03 0.  1.
         12    1    3    3    0    0 -0.15580751725E+02  0.72888214013E+01 -0.28752124361E+01  0.17439999664E+02  0.00000000000E+00 0. -1.
</event>
<event>
 7    1  0.4346085E-013  0.5930205E+02  0.7816164E-02  0.1266604E+00
        -11   -1    0    0    0    0  0.00000000000E+00  0.00000000000E+00  0.45593999997E+02  0.45594000000E+02  0.51100000000E-03 0.  1.
         11   -1    0    0    0    0 -0.00000000000E+00 -0.00000000000E+00 -0.45593999997E+02  0.45594000000E+02  0.51100000000E-03 0. -1.
    9900012    2    1    2    0    0  0.12695859242E+02 -0.12821264480E+02  0.26289624384E+02  0.59302046745E+02  0.50000187331E+02 0.  0.
         12    1    1    2    0    0 -0.12695859242E+02  0.12821264480E+02 -0.26289624384E+02  0.31885953255E+02  0.00000000000E+00 0. -1.
         11    1    3    3    0    0 -0.59809733459E+01  0.57833099494E+01  0.98366598170E+00  0.83777273267E+01  0.51100000000E-03 0. -1.
        -11    1    3    3    0    0  0.83107280199E+01 -0.28449689496E+02  0.19589946984E+02  0.35527722356E+02  0.51100000000E-03 0.  1.
        -12    1    3    3    0    0  0.10366104568E+02  0.98451150668E+01  0.57160114175E+01  0.15396597063E+02  0.00000000000E+00 0.  1.
</event>
<event>
 7    1  0.4346085E-013  0.5930193E+02  0.7816164E-02  0.1266605E+00
        -11   -1    0    0    0    0  0.00000000000E+00  0.00000000000E+00  0.45593999997E+02  0.45594000000E+02  0.51100000000E-03 0. -1.
         11   -1    0    0    0    0 -0.00000000000E+00 -0.00000000000E+00 -0.45593999997E+02  0.45594000000E+02  0.51100000000E-03 0.  1.
    9900012    2    1    2    0    0 -0.73876061509E+01 -0.96766993745E+01 -0.29470428210E+02  0.59301931344E+02  0.49999976869E+02 0.  0.
         12    1    1    2    0    0  0.73876061509E+01  0.96766993745E+01  0.29470428210E+02  0.31886068656E+02  0.00000000000E+00 0. -1.
         11    1    3    3    0    0  0.58339816766E+01 -0.19195021696E+02  0.44101106259E+01  0.20541014486E+02  0.51100000000E-03 0. -1.
        -11    1    3    3    0    0 -0.65572833331E+01  0.99412886816E+01 -0.18612433159E+02  0.22096376484E+02  0.51100000000E-03 0.  1.
         12    1    3    3    0    0 -0.66643044944E+01 -0.42296636015E+00 -0.15268105677E+02  0.16664540375E+02  0.00000000000E+00 0. -1.
</event>
<event>
 7    1  0.4346085E-013  0.5930198E+02  0.7816164E-02  0.1266605E+00
        -11   -1    0    0    0    0  0.00000000000E+00  0.00000000000E+00  0.45593999997E+02  0.45594000000E+02  0.51100000000E-03 0. -1.
         11   -1    0    0    0    0 -0.00000000000E+00 -0.00000000000E+00 -0.45593999997E+02  0.45594000000E+02  0.51100000000E-03 0.  1.
    9900012    2    1    2    0    0  0.27022264123E+02  0.11590980345E+01  0.16887039694E+02  0.59301978357E+02  0.50000062609E+02 0.  0.
         12    1    1    2    0    0 -0.27022264123E+02 -0.11590980345E+01 -0.16887039694E+02  0.31886021643E+02  0.00000000000E+00 0. -1.
         11    1    3    3    0    0 -0.61724830165E+01  0.30353897810E+01  0.15421536450E+02  0.16885997882E+02  0.51100000000E-03 0. -1.
        -11    1    3    3    0    0  0.21227447412E+02 -0.13894013249E+02 -0.23155067373E+00  0.25371277929E+02  0.51100000000E-03 0.  1.
        -12    1    3    3    0    0  0.11967299728E+02  0.12017721503E+02  0.16970539178E+01  0.17044702546E+02  0.00000000000E+00 0.  1.
</event>
<event>
 7    1  0.4346085E-013  0.5930196E+02  0.7816164E-02  0.1266605E+00
        -11   -1    0    0    0    0  0.00000000000E+00  0.00000000000E+00  0.45593999997E+02  0.45594000000E+02  0.51100000000E-03 0.  1.
         11   -1    0    0    0    0 -0.00000000000E+00 -0.00000000000E+00 -0.45593999997E+02  0.45594000000E+02  0.51100000000E-03 0. -1.
    9900012    2    1    2    0    0  0.26135602575E+02 -0.12621214163E+02  0.13204358076E+02  0.59301955386E+02  0.50000020715E+02 0.  0.
         12    1    1    2    0    0 -0.26135602575E+02  0.12621214163E+02 -0.13204358076E+02  0.31886044614E+02  0.00000000000E+00 0. -1.
         11    1    3    3    0    0 -0.40426810004E+00  0.88891063419E+00 -0.10041597982E+02  0.10088968485E+02  0.51100000000E-03 0. -1.
        -11    1    3    3    0    0  0.18154669080E+02  0.15352365965E+01  0.26022244874E+02  0.31766431800E+02  0.51100000000E-03 0.  1.
         12    1    3    3    0    0  0.83852015954E+01 -0.15045361394E+02 -0.27762888161E+01  0.17446555100E+02  0.00000000000E+00 0. -1.
</event>
<event>
 7    1  0.4346085E-013  0.5930194E+02  0.7816164E-02  0.1266605E+00
        -11   -1    0    0    0    0  0.00000000000E+00  0.00000000000E+00  0.45593999997E+02  0.45594000000E+02  0.51100000000E-03 0. -1.
         11   -1    0    0    0    0 -0.00000000000E+00 -0.00000000000E+00 -0.45593999997E+02  0.45594000000E+02  0.51100000000E-03 0.  1.
    9900012    2    1    2    0    0  0.28730387740E+02  0.11776057273E+02 -0.72532760712E+01  0.59301941631E+02  0.49999995628E+02 0.  0.
         12    1    1    2    0    0 -0.28730387740E+02 -0.11776057273E+02  0.72532760712E+01  0.31886058369E+02  0.00000000000E+00 0. -1.
         11    1    3    3    0    0  0.26214054080E+02  0.20965411264E+02  0.85519739485E+01  0.34639014990E+02  0.51100000000E-03 0. -1.
        -11    1    3    3    0    0  0.71467301929E+01 -0.37432956405E+01 -0.15540184680E+02  0.17509578946E+02  0.51100000000E-03 0.  1.
         12    1    3    3    0    0 -0.46303965329E+01 -0.54460583508E+01 -0.26506533942E+00  0.71533476951E+01  0.00000000000E+00 0. -1.
</event>
<event>
 7    1  0.4346085E-013  0.5930192E+02  0.7816164E-02  0.1266605E+00
        -11   -1    0    0    0    0  0.00000000000E+00  0.00000000000E+00  0.45593999997E+02  0.45594000000E+02  0.51100000000E-03 0. -1.
         11   -1    0    0    0    0 -0.00000000000E+00 -0.00000000000E+00 -0.45593999997E+02  0.45594000000E+02  0.51100000000E-03 0.  1.
    9900012    2    1    2    0    0  0.16893103369E+01 -0.24579033795E+02  0.20242022747E+02  0.59301919077E+02  0.49999954497E+02 0.  0.
         12    1    1    2    0    0 -0.16893103369E+01  0.24579033795E+02 -0.20242022747E+02  0.31886080923E+02  0.00000000000E+00 0. -1.
         11    1    3    3    0    0 -0.12779102527E+02 -0.25695463844E+02  0.56962302673E+00  0.28703428265E+02  0.51100000000E-03 0. -1.
        -11    1    3    3    0    0  0.17612334121E+02 -0.19507835481E+01  0.10943762018E+02  0.20827044846E+02  0.51100000000E-03 0.  1.
        -12    1    3    3    0    0 -0.31439212577E+01  0.30672135970E+01  0.87286377030E+01  0.97714459664E+01  0.00000000000E+00 0.  1.
</event>
<event>
 7    1  0.4346085E-013  0.5930195E+02  0.7816164E-02  0.1266605E+00
        -11   -1    0    0    0    0  0.00000000000E+00  0.00000000000E+00  0.45593999997E+02  0.45594000000E+02  0.51100000000E-03 0. -1.
         11   -1    0    0    0    0 -0.00000000000E+00 -0.00000000000E+00 -0.45593999997E+02  0.45594000000E+02  0.51100000000E-03 0.  1.
    9900012    2    1    2    0    0  0.14552929039E+01  0.31816090704E+02  0.15293495772E+01  0.59301946383E+02  0.50000004295E+02 0.  0.
         12    1    1    2    0    0 -0.14552929039E+01 -0.31816090704E+02 -0.15293495772E+01  0.31886053617E+02  0.00000000000E+00 0. -1.
         11    1    3    3    0    0 -0.41679819031E+01 -0.55023822288E+01 -0.10897116356E+02  0.12899435200E+02  0.51100000000E-03 0. -1.
        -11    1    3    3    0    0  0.13501667635E+02  0.19086321533E+02  0.80959981493E+00  0.23393121867E+02  0.51100000000E-03 0.  1.
        -12    1    3    3    0    0 -0.78783928280E+01  0.18232151401E+02  0.11616866119E+02  0.23009389315E+02  0.00000000000E+00 0.  1.
</event>
<event>
 7    1  0.4346085E-013  0.5930196E+02  0.7816164E-02  0.1266605E+00
        -11   -1    0    0    0    0  0.00000000000E+00  0.00000000000E+00  0.45593999997E+02  0.45594000000E+02  0.51100000000E-03 0.  1.
         11   -1    0    0    0    0 -0.00000000000E+00 -0.00000000000E+00 -0.45593999997E+02  0.45594000000E+02  0.51100000000E-03 0. -1.
    9900012    2    1    2    0    0 -0.24744647402E+02  0.30414382228E+01  0.19878924563E+02  0.59301959742E+02  0.50000028660E+02 0.  0.
         12    1    1    2    0    0  0.24744647402E+02 -0.30414382228E+01 -0.19878924563E+02  0.31886040258E+02  0.00000000000E+00 0. -1.
         11    1    3    3    0    0 -0.54040893735E+01 -0.48317426708E+01 -0.67979594746E+01  0.99379159019E+01  0.51100000000E-03 0. -1.
        -11    1    3    3    0    0 -0.23509623097E+02 -0.79110869574E+01  0.19398464623E+02  0.31489491977E+02  0.51100000000E-03 0.  1.
        -12    1    3    3    0    0  0.41690650681E+01  0.15784267851E+02  0.72784194152E+01  0.17874551863E+02  0.00000000000E+00 0.  1.
</event>
<event>
 7    1  0.4346085E-013  0.5930194E+02  0.7816164E-02  0.1266605E+00
        -11   -1    0    0    0    0  0.00000000000E+00  0.00000000000E+00  0.45593999997E+02  0.45594000000E+02  0.51100000000E-03 0. -1.
         11   -1    0    0    0    0 -0.00000000000E+00 -0.00000000000E+00 -0.45593999997E+02  0.45594000000E+02  0.51100000000E-03 0.  1.
    9900012    2    1    2    0    0 -0.79205612332E+01 -0.26954297109E+02 -0.15081482111E+02  0.59301944654E+02  0.50000001141E+02 0.  0.
         12    1    1    2    0    0  0.79205612332E+01  0.26954297109E+02  0.15081482111E+02  0.31886055346E+02  0.00000000000E+00 0. -1.
         11    1    3    3    0    0 -0.25474638172E+01 -0.12124742505E+02  0.16938716318E+02  0.20986163619E+02  0.51100000000E-03 0. -1.
        -11    1    3    3    0    0 -0.30555622083E+01  0.22577405148E+01 -0.58027262070E+01  0.69358117287E+01  0.51100000000E-03 0.  1.
         12    1    3    3    0    0 -0.23175352076E+01 -0.17087295119E+02 -0.26217472221E+02  0.31379969305E+02  0.00000000000E+00 0. -1.
</event>
<event>
 7    1  0.4346085E-013  0.5930194E+02  0.7816164E-02  0.1266605E+00
        -11   -1    0    0    0    0  0.00000000000E+00  0.00000000000E+00  0.45593999997E+02  0.45594000000E+02  0.51100000000E-03 0. -1.
         11   -1    0    0    0    0 -0.00000000000E+00 -0.00000000000E+00 -0.45593999997E+02  0.45594000000E+02  0.51100000000E-03 0.  1.
    9900012    2    1    2    0    0  0.45764561762E+01 -0.30305458020E+02  0.87952315055E+01  0.59301939814E+02  0.49999992316E+02 0.  0.
         12    1    1    2    0    0 -0.45764561762E+01  0.30305458020E+02 -0.87952315055E+01  0.31886060186E+02  0.00000000000E+00 0. -1.
         11    1    3    3    0    0  0.60831058589E+01  0.80617607447E+01 -0.24837258785E+01  0.10400243156E+02  0.51100000000E-03 0. -1.
        -11    1    3    3    0    0  0.28190693544E+01 -0.34451637730E+02  0.18827042481E+02  0.39361402708E+02  0.51100000000E-03 0.  1.
        -12    1    3    3    0    0 -0.43257190371E+01 -0.39155810346E+01 -0.75480850971E+01  0.95402939503E+01  0.00000000000E+00 0.  1.
</event>
<event>
 7    1  0.4346085E-013  0.5930195E+02  0.7816164E-02  0.1266605E+00
        -11   -1    0    0    0    0  0.00000000000E+00  0.00000000000E+00  0.45593999997E+02  0.45594000000E+02  0.51100000000E-03 0.  1.
         11   -1    0    0    0    0 -0.00000000000E+00 -0.00000000000E+00 -0.45593999997E+02  0.45594000000E+02  0.51100000000E-03 0. -1.
    9900012    2    1    2    0    0  0.14933741458E+02  0.26032058017E+02  0.10771969322E+02  0.59301952869E+02  0.50000016125E+02 0.  0.
         12    1    1    2    0    0 -0.14933741458E+02 -0.26032058017E+02 -0.10771969322E+02  0.31886047131E+02  0.00000000000E+00 0. -1.
         11    1    3    3    0    0  0.28478011629E+02  0.48487307232E+01  0.17793952064E+01  0.28942591169E+02  0.51100000000E-03 0. -1.
        -11    1    3    3    0    0 -0.97005646323E-01  0.11005642893E+02  0.77263548470E+01  0.13447309956E+02  0.51100000000E-03 0.  1.
         12    1    3    3    0    0 -0.13447264525E+02  0.10177684401E+02  0.12662192690E+01  0.16912051745E+02  0.00000000000E+00 0. -1.
</event>
<event>
 7    1  0.4346085E-013  0.5930193E+02  0.7816164E-02  0.1266605E+00
        -11   -1    0    0    0    0  0.00000000000E+00  0.00000000000E+00  0.45593999997E+02  0.45594000000E+02  0.51100000000E-03 0. -1.
         11   -1    0    0    0    0 -0.00000000000E+00 -0.00000000000E+00 -0.45593999997E+02  0.45594000000E+02  0.51100000000E-03 0.  1.
    9900012    2    1    2    0    0  0.30276815918E+01  0.52227821895E+01 -0.31309374006E+02  0.59301933917E+02  0.49999981560E+02 0.  0.
         12    1    1    2    0    0 -0.30276815918E+01 -0.52227821895E+01  0.31309374006E+02  0.31886066083E+02  0.00000000000E+00 0. -1.
         11    1    3    3    0    0 -0.69123959198E+01 -0.76508350811E+01 -0.29073847822E+02  0.30848097547E+02  0.51100000000E-03 0. -1.
        -11    1    3    3    0    0  0.17514515420E+02  0.76417514309E+01 -0.23078154309E+01  0.19247873328E+02  0.51100000000E-03 0.  1.
        -12    1    3    3    0    0 -0.75744379084E+01  0.52318658398E+01  0.72289247394E-01  0.92059630418E+01  0.00000000000E+00 0.  1.
</event>
<event>
 7    1  0.4346085E-013  0.5930194E+02  0.7816164E-02  0.1266605E+00
        -11   -1    0    0    0    0  0.00000000000E+00  0.00000000000E+00  0.45593999997E+02  0.45594000000E+02  0.51100000000E-03 0.  1.
         11   -1    0    0    0    0 -0.00000000000E+00 -0.00000000000E+00 -0.45593999997E+02  0.45594000000E+02  0.51100000000E-03 0. -1.
    9900012    2    1    2    0    0 -0.25381042701E+02  0.47028119628E+01  0.18719162627E+02  0.59301940061E+02  0.49999992766E+02 0.  0.
         12    1    1    2    0    0  0.25381042701E+02 -0.47028119628E+01 -0.18719162627E+02  0.31886059939E+02  0.00000000000E+00 0. -1.
         11    1    3    3    0    0 -0.91130651662E+01  0.73741906867E+01  0.13798665772E+01  0.11803841622E+02  0.51100000000E-03 0. -1.
        -11    1    3    3    0    0  0.12359863080E+02 -0.75876299755E+01  0.97512505052E+01  0.17476419275E+02  0.51100000000E-03 0.  1.
        -12    1    3    3    0    0 -0.28627840615E+02  0.49162512517E+01  0.75880455446E+01  0.30021679164E+02  0.00000000000E+00 0.  1.
</event>
<event>
 7    1  0.4346085E-013  0.5930195E+02  0.7816164E-02  0.1266605E+00
        -11   -1    0    0    0    0  0.00000000000E+00  0.00000000000E+00  0.45593999997E+02  0.45594000000E+02  0.51100000000E-03 0.  1.
         11   -1    0    0    0    0 -0.00000000000E+00 -0.00000000000E+00 -0.45593999997E+02  0.45594000000E+02  0.51100000000E-03 0. -1.
    9900012    2    1    2    0    0  0.22398228645E+02 -0.12601037197E+00  0.22694128165E+02  0.59301953236E+02  0.50000016794E+02 0.  0.
         12    1    1    2    0    0 -0.22398228645E+02  0.12601037197E+00 -0.22694128165E+02  0.31886046764E+02  0.00000000000E+00 0. -1.
         11    1    3    3    0    0  0.13588354317E+02 -0.71437165558E+01  0.24155599452E+02  0.28621129335E+02  0.51100000000E-03 0. -1.
        -11    1    3    3    0    0 -0.42012430023E+01  0.13818993801E+02  0.40472751681E+01  0.14999848965E+02  0.51100000000E-03 0.  1.
         12    1    3    3    0    0  0.13011117330E+02 -0.68012876170E+01 -0.55087464550E+01  0.15680974936E+02  0.00000000000E+00 0. -1.
</event>
<event>
 7    1  0.4346085E-013  0.5930176E+02  0.7816164E-02  0.1266605E+00
        -11   -1    0    0    0    0  0.00000000000E+00  0.00000000000E+00  0.45593999997E+02  0.45594000000E+02  0.51100000000E-03 0.  1.
         11   -1    0    0    0    0 -0.00000000000E+00 -0.00000000000E+00 -0.45593999997E+02  0.45594000000E+02  0.51100000000E-03 0. -1.
    9900012    2    1    2    0    0 -0.17736634271E+02  0.20222579677E+02  0.17122824669E+02  0.59301763961E+02  0.49999671601E+02 0.  0.
         12    1    1    2    0    0  0.17736634271E+02 -0.20222579677E+02 -0.17122824669E+02  0.31886236039E+02  0.00000000000E+00 0. -1.
         11    1    3    3    0    0  0.62722253930E+01 -0.16098387431E+01 -0.86104202127E+01  0.10773659019E+02  0.51100000000E-03 0. -1.
        -11    1    3    3    0    0 -0.22390267050E+02  0.12494085608E+02  0.28806454989E+02  0.38564725891E+02  0.51100000000E-03 0.  1.
         12    1    3    3    0    0 -0.16185926144E+01  0.93383328117E+01 -0.30732101071E+01  0.99633790511E+01  0.00000000000E+00 0. -1.
</event>
<event>
 7    1  0.4346085E-013  0.5930195E+02  0.7816164E-02  0.1266605E+00
        -11   -1    0    0    0    0  0.00000000000E+00  0.00000000000E+00  0.45593999997E+02  0.45594000000E+02  0.51100000000E-03 0. -1.
         11   -1    0    0    0    0 -0.00000000000E+00 -0.00000000000E+00 -0.45593999997E+02  0.45594000000E+02  0.51100000000E-03 0.  1.
    9900012    2    1    2    0    0  0.30178717137E+02 -0.26032644727E+01 -0.99593332958E+01  0.59301948604E+02  0.50000008345E+02 0.  0.
         12    1    1    2    0    0 -0.30178717137E+02  0.26032644727E+01  0.99593332958E+01  0.31886051396E+02  0.00000000000E+00 0. -1.
         11    1    3    3    0    0  0.22538268779E+02  0.24504181068E+01  0.43935869558E+01  0.23092893172E+02  0.51100000000E-03 0. -1.
        -11    1    3    3    0    0  0.71192597000E+01 -0.28933477508E+01 -0.24574835193E+02  0.25748356159E+02  0.51100000000E-03 0.  1.
         12    1    3    3    0    0  0.52118865817E+00 -0.21603348287E+01  0.10221914942E+02  0.10460699272E+02  0.00000000000E+00 0. -1.
</event>
<event>
 7    1  0.4346085E-013  0.5930197E+02  0.7816164E-02  0.1266605E+00
        -11   -1    0    0    0    0  0.00000000000E+00  0.00000000000E+00  0.45593999997E+02  0.45594000000E+02  0.51100000000E-03 0.  1.
         11   -1    0    0    0    0 -0.00000000000E+00 -0.00000000000E+00 -0.45593999997E+02  0.45594000000E+02  0.51100000000E-03 0. -1.
    9900012    2    1    2    0    0  0.11886827421E+01  0.20214797848E+02  0.24630633545E+02  0.59301966576E+02  0.50000041122E+02 0.  0.
         12    1    1    2    0    0 -0.11886827421E+01 -0.20214797848E+02 -0.24630633545E+02  0.31886033424E+02  0.00000000000E+00 0. -1.
         11    1    3    3    0    0  0.12301259682E+02  0.13394922680E+02  0.44057874266E+00  0.18191730354E+02  0.51100000000E-03 0. -1.
        -11    1    3    3    0    0 -0.52622241732E+01 -0.11802399778E+02  0.14139828888E+02  0.19155218741E+02  0.51100000000E-03 0.  1.
         12    1    3    3    0    0 -0.58503527673E+01  0.18622274946E+02  0.10050225915E+02  0.21955017481E+02  0.00000000000E+00 0. -1.
</event>
<event>
 7    1  0.4346085E-013  0.5930194E+02  0.7816164E-02  0.1266605E+00
        -11   -1    0    0    0    0  0.00000000000E+00  0.00000000000E+00  0.45593999997E+02  0.45594000000E+02  0.51100000000E-03 0. -1.
         11   -1    0    0    0    0 -0.00000000000E+00 -0.00000000000E+00 -0.45593999997E+02  0.45594000000E+02  0.51100000000E-03 0.  1.
    9900012    2    1    2    0    0  0.17386020476E+02  0.17886570223E+02 -0.19862469736E+02  0.59301940250E+02  0.49999993110E+02 0.  0.
         12    1    1    2    0    0 -0.17386020476E+02 -0.17886570223E+02  0.19862469736E+02  0.31886059750E+02  0.00000000000E+00 0. -1.
         11    1    3    3    0    0 -0.39787550622E+01 -0.24150396785E+01 -0.33078167906E+01  0.57100403392E+01  0.51100000000E-03 0. -1.
        -11    1    3    3    0    0  0.26645257991E+02  0.28004059403E+02 -0.20142091947E+02  0.43587853637E+02  0.51100000000E-03 0.  1.
        -12    1    3    3    0    0 -0.52804824521E+01 -0.77024495013E+01  0.35874390014E+01  0.10004046273E+02  0.00000000000E+00 0.  1.
</event>
<event>
 7    1  0.4346085E-013  0.5930200E+02  0.7816164E-02  0.1266605E+00
        -11   -1    0    0    0    0  0.00000000000E+00  0.00000000000E+00  0.45593999997E+02  0.45594000000E+02  0.51100000000E-03 0.  1.
         11   -1    0    0    0    0 -0.00000000000E+00 -0.00000000000E+00 -0.45593999997E+02  0.45594000000E+02  0.51100000000E-03 0. -1.
    9900012    2    1    2    0    0 -0.26600088568E+02  0.93024349516E+01  0.14920363587E+02  0.59301995901E+02  0.50000094605E+02 0.  0.
         12    1    1    2    0    0  0.26600088568E+02 -0.93024349516E+01 -0.14920363587E+02  0.31886004099E+02  0.00000000000E+00 0. -1.
         11    1    3    3    0    0 -0.95078912866E+01  0.83881667155E+00 -0.76336191740E+01  0.12221937329E+02  0.51100000000E-03 0. -1.
        -11    1    3    3    0    0 -0.63746976524E+01  0.10354880786E+02  0.31002947439E+02  0.33302298366E+02  0.51100000000E-03 0.  1.
        -12    1    3    3    0    0 -0.10717499629E+02 -0.18912625064E+01 -0.84489646787E+01  0.13777760206E+02  0.00000000000E+00 0.  1.
</event>
<event>
 7    1  0.4346085E-013  0.5930193E+02  0.7816164E-02  0.1266605E+00
        -11   -1    0    0    0    0  0.00000000000E+00  0.00000000000E+00  0.45593999997E+02  0.45594000000E+02  0.51100000000E-03 0.  1.
         11   -1    0    0    0    0 -0.00000000000E+00 -0.00000000000E+00 -0.45593999997E+02  0.45594000000E+02  0.51100000000E-03 0. -1.
    9900012    2    1    2    0    0 -0.27838117311E+01  0.15456529137E+02  0.27750095517E+02  0.59301926207E+02  0.49999967500E+02 0.  0.
         12    1    1    2    0    0  0.27838117311E+01 -0.15456529137E+02 -0.27750095517E+02  0.31886073793E+02  0.00000000000E+00 0. -1.
         11    1    3    3    0    0 -0.22109475411E+01 -0.12066903119E+02  0.11448421584E+02  0.16779892638E+02  0.51100000000E-03 0. -1.
        -11    1    3    3    0    0  0.10004297913E+01  0.21560527707E+02  0.24248514289E+02  0.32463019888E+02  0.51100000000E-03 0.  1.
        -12    1    3    3    0    0 -0.15732939813E+01  0.59629045489E+01 -0.79468403557E+01  0.10059013682E+02  0.00000000000E+00 0.  1.
</event>
<event>
 7    1  0.4346085E-013  0.5930195E+02  0.7816164E-02  0.1266605E+00
        -11   -1    0    0    0    0  0.00000000000E+00  0.00000000000E+00  0.45593999997E+02  0.45594000000E+02  0.51100000000E-03 0.  1.
         11   -1    0    0    0    0 -0.00000000000E+00 -0.00000000000E+00 -0.45593999997E+02  0.45594000000E+02  0.51100000000E-03 0. -1.
    9900012    2    1    2    0    0 -0.44119644283E+01  0.81012253667E+01  0.30522530282E+02  0.59301950741E+02  0.50000012243E+02 0.  0.
         12    1    1    2    0    0  0.44119644283E+01 -0.81012253667E+01 -0.30522530282E+02  0.31886049259E+02  0.00000000000E+00 0. -1.
         11    1    3    3    0    0  0.13421397018E+02 -0.92669035068E+01  0.43806059270E+01  0.16887839029E+02  0.51100000000E-03 0. -1.
        -11    1    3    3    0    0 -0.11357470973E+02  0.21654834493E+02  0.14527520086E+02  0.28442447924E+02  0.51100000000E-03 0.  1.
        -12    1    3    3    0    0 -0.64758904736E+01 -0.42867056193E+01  0.11614404269E+02  0.13971663788E+02  0.00000000000E+00 0.  1.
</event>
<event>
 7    1  0.4346085E-013  0.5930189E+02  0.7816164E-02  0.1266605E+00
        -11   -1    0    0    0    0  0.00000000000E+00  0.00000000000E+00  0.45593999997E+02  0.45594000000E+02  0.51100000000E-03 0. -1.
         11   -1    0    0    0    0 -0.00000000000E+00 -0.00000000000E+00 -0.45593999997E+02  0.45594000000E+02  0.51100000000E-03 0.  1.
    9900012    2    1    2    0    0 -0.88538259411E+01  0.29227994264E+02 -0.91683279748E+01  0.59301888285E+02  0.49999898338E+02 0.  0.
         12    1    1    2    0    0  0.88538259411E+01 -0.29227994264E+02  0.91683279748E+01  0.31886111715E+02  0.00000000000E+00 0. -1.
         11    1    3    3    0    0  0.13972533550E+02  0.11986122814E+02 -0.87487379746E+01  0.20382326911E+02  0.51100000000E-03 0. -1.
        -11    1    3    3    0    0 -0.17710545944E+02  0.23821788684E+02  0.31539343781E+01  0.29851103096E+02  0.51100000000E-03 0.  1.
         12    1    3    3    0    0 -0.51158135469E+01 -0.65799172338E+01 -0.35735243782E+01  0.90684582776E+01  0.00000000000E+00 0. -1.
</event>
<event>
 7    1  0.4346085E-013  0.5930196E+02  0.7816164E-02  0.1266605E+00
        -11   -1    0    0    0    0  0.00000000000E+00  0.00000000000E+00  0.45593999997E+02  0.45594000000E+02  0.51100000000E-03 0. -1.
         11   -1    0    0    0    0 -0.00000000000E+00 -0.00000000000E+00 -0.45593999997E+02  0.45594000000E+02  0.51100000000E-03 0.  1.
    9900012    2    1    2    0    0 -0.29589337500E+02  0.11134204786E+02 -0.41497083537E+01  0.59301960902E+02  0.50000030775E+02 0.  0.
         12    1    1    2    0    0  0.29589337500E+02 -0.11134204786E+02  0.41497083537E+01  0.31886039098E+02  0.00000000000E+00 0. -1.
         11    1    3    3    0    0  0.10520289043E+02  0.11729932379E+02  0.19244418440E+01  0.15873602988E+02  0.51100000000E-03 0. -1.
        -11    1    3    3    0    0 -0.26701022519E+02  0.56476620672E+01  0.37081780681E+00  0.27294288715E+02  0.51100000000E-03 0.  1.
         12    1    3    3    0    0 -0.13408604025E+02 -0.62433896601E+01 -0.64449680045E+01  0.16134069199E+02  0.00000000000E+00 0. -1.
</event>
<event>
 7    1  0.4346085E-013  0.5930197E+02  0.7816164E-02  0.1266605E+00
        -11   -1    0    0    0    0  0.00000000000E+00  0.00000000000E+00  0.45593999997E+02  0.45594000000E+02  0.51100000000E-03 0.  1.
         11   -1    0    0    0    0 -0.00000000000E+00 -0.00000000000E+00 -0.45593999997E+02  0.45594000000E+02  0.51100000000E-03 0. -1.
    9900012    2    1    2    0    0  0.23465455124E+02  0.20598763930E+02  0.64639041364E+01  0.59301973024E+02  0.50000052882E+02 0.  0.
         12    1    1    2    0    0 -0.23465455124E+02 -0.20598763930E+02 -0.64639041364E+01  0.31886026976E+02  0.00000000000E+00 0. -1.
         11    1    3    3    0    0  0.95042827838E+01 -0.14962896268E+02  0.10110756253E+02  0.20407034283E+02  0.51100000000E-03 0. -1.
        -11    1    3    3    0    0  0.81825635217E+01  0.16272139829E+02  0.95734620323E+00  0.18238788129E+02  0.51100000000E-03 0.  1.
         12    1    3    3    0    0  0.57786088188E+01  0.19289520369E+02 -0.46041983203E+01  0.20656150612E+02  0.00000000000E+00 0. -1.
</event>
<event>
 7    1  0.4346085E-013  0.5930195E+02  0.7816164E-02  0.1266605E+00
        -11   -1    0    0    0    0  0.00000000000E+00  0.00000000000E+00  0.45593999997E+02  0.45594000000E+02  0.51100000000E-03 0.  1.
         11   -1    0    0    0    0 -0.00000000000E+00 -0.00000000000E+00 -0.45593999997E+02  0.45594000000E+02  0.51100000000E-03 0. -1.
    9900012    2    1    2    0    0  0.84978233277E+01  0.55056876445E+01  0.30235651150E+02  0.59301949787E+02  0.50000010503E+02 0.  0.
         12    1    1    2    0    0 -0.84978233277E+01 -0.55056876445E+01 -0.30235651150E+02  0.31886050213E+02  0.00000000000E+00 0. -1.
         11    1    3    3    0    0  0.18229682678E+02  0.21184861854E+02  0.14445685749E+02  0.31461047969E+02  0.51100000000E-03 0. -1.
        -11    1    3    3    0    0 -0.82275633960E+00 -0.92981759362E+01  0.13865291209E+02  0.16714643409E+02  0.51100000000E-03 0.  1.
        -12    1    3    3    0    0 -0.89091030106E+01 -0.63809982732E+01  0.19246741920E+01  0.11126258408E+02  0.00000000000E+00 0.  1.
</event>
<event>
 7    1  0.4346085E-013  0.5930181E+02  0.7816164E-02  0.1266605E+00
        -11   -1    0    0    0    0  0.00000000000E+00  0.00000000000E+00  0.45593999997E+02  0.45594000000E+02  0.51100000000E-03 0. -1.
         11   -1    0    0    0    0 -0.00000000000E+00 -0.00000000000E+00 -0.45593999997E+02  0.45594000000E+02  0.51100000000E-03 0.  1.
    9900012    2    1    2    0    0 -0.27457501952E+02  0.17170876337E+00 -0.16210650317E+02  0.59301810496E+02  0.49999756470E+02 0.  0.
         12    1    1    2    0    0  0.27457501952E+02 -0.17170876337E+00  0.16210650317E+02  0.31886189504E+02  0.00000000000E+00 0. -1.
         11    1    3    3    0    0 -0.21664285440E+02 -0.61096115471E+01 -0.15109860746E+02  0.27110450179E+02  0.51100000000E-03 0. -1.
        -11    1    3    3    0    0  0.11350877309E+02 -0.13503386153E+01 -0.58398087089E+01  0.12836245404E+02  0.51100000000E-03 0.  1.
         12    1    3    3    0    0 -0.17144093821E+02  0.76316589257E+01  0.47390191379E+01  0.19355114913E+02  0.00000000000E+00 0. -1.
</event>
<event>
 7    1  0.4346085E-013  0.5930191E+02  0.7816164E-02  0.1266605E+00
        -11   -1    0    0    0    0  0.00000000000E+00  0.00000000000E+00  0.45593999997E+02  0.45594000000E+02  0.51100000000E-03 0.  1.
         11   -1    0    0    0    0 -0.00000000000E+00 -0.00000000000E+00 -0.45593999997E+02  0.45594000000E+02  0.51100000000E-03 0. -1.
    9900012    2    1    2    0    0  0.11378405376E+02  0.17291229493E+02  0.24254233162E+02  0.59301912868E+02  0.49999943173E+02 0.  0.
         12    1    1    2    0    0 -0.11378405376E+02 -0.17291229493E+02 -0.24254233162E+02  0.31886087132E+02  0.00000000000E+00 0. -1.
         11    1    3    3    0    0  0.60184427502E+01 -0.30278283516E+01  0.55161064140E+01  0.87072859087E+01  0.51100000000E-03 0. -1.
        -11    1    3    3    0    0  0.73768866773E+01  0.23497213752E+02 -0.61818400739E+01  0.25391980193E+02  0.51100000000E-03 0.  1.
        -12    1    3    3    0    0 -0.20169240515E+01 -0.31781559080E+01  0.24919966822E+02  0.25202646766E+02  0.00000000000E+00 0.  1.
</event>
<event>
 7    1  0.4346085E-013  0.5930197E+02  0.7816164E-02  0.1266605E+00
        -11   -1    0    0    0    0  0.00000000000E+00  0.00000000000E+00  0.45593999997E+02  0.45594000000E+02  0.51100000000E-03 0.  1.
         11   -1    0    0    0    0 -0.00000000000E+00 -0.00000000000E+00 -0.45593999997E+02  0.45594000000E+02  0.51100000000E-03 0. -1.
    9900012    2    1    2    0    0  0.14143688848E+02  0.61536336098E+01  0.27907131891E+02  0.59301966204E+02  0.50000040444E+02 0.  0.
         12    1    1    2    0    0 -0.14143688848E+02 -0.61536336098E+01 -0.27907131891E+02  0.31886033796E+02  0.00000000000E+00 0. -1.
         11    1    3    3    0    0  0.18565401093E+02  0.54698607671E+01 -0.81867815695E+01  0.21014682659E+02  0.51100000000E-03 0. -1.
        -11    1    3    3    0    0 -0.73497464785E+01 -0.27438352444E+01  0.27304994342E+02  0.28409683586E+02  0.51100000000E-03 0.  1.
         12    1    3    3    0    0  0.29280342343E+01  0.34276080871E+01  0.87889191185E+01  0.98775999589E+01  0.00000000000E+00 0. -1.
</event>
<event>
 7    1  0.4346085E-013  0.5930195E+02  0.7816164E-02  0.1266605E+00
        -11   -1    0    0    0    0  0.00000000000E+00  0.00000000000E+00  0.45593999997E+02  0.45594000000E+02  0.51100000000E-03 0. -1.
         11   -1    0    0    0    0 -0.00000000000E+00 -0.00000000000E+00 -0.45593999997E+02  0.45594000000E+02  0.51100000000E-03 0.  1.
    9900012    2    1    2    0    0 -0.31042975250E+02  0.32209297924E+01  0.65329406886E+01  0.59301952658E+02  0.50000015739E+02 0.  0.
         12    1    1    2    0    0  0.31042975250E+02 -0.32209297924E+01 -0.65329406886E+01  0.31886047342E+02  0.00000000000E+00 0. -1.
         11    1    3    3    0    0 -0.11145209733E+01 -0.10296775427E+02  0.25514224312E+01  0.10666559795E+02  0.51100000000E-03 0. -1.
        -11    1    3    3    0    0 -0.29208762858E+02  0.21661633044E+02 -0.47503677157E+01  0.36673480440E+02  0.51100000000E-03 0.  1.
        -12    1    3    3    0    0 -0.71969141812E+00 -0.81439278252E+01  0.87318859731E+01  0.11961912423E+02  0.00000000000E+00 0.  1.
</event>
<event>
 7    1  0.4346085E-013  0.5930193E+02  0.7816164E-02  0.1266605E+00
        -11   -1    0    0    0    0  0.00000000000E+00  0.00000000000E+00  0.45593999997E+02  0.45594000000E+02  0.51100000000E-03 0.  1.
         11   -1    0    0    0    0 -0.00000000000E+00 -0.00000000000E+00 -0.45593999997E+02  0.45594000000E+02  0.51100000000E-03 0. -1.
    9900012    2    1    2    0    0  0.19552566949E+02 -0.80272815220E+01  0.23874287930E+02  0.59301925499E+02  0.49999966208E+02 0.  0.
         12    1    1    2    0    0 -0.19552566949E+02  0.80272815220E+01 -0.23874287930E+02  0.31886074501E+02  0.00000000000E+00 0. -1.
         11    1    3    3    0    0  0.36645028073E+01 -0.55162401719E+01 -0.96134744605E+01  0.11673747381E+02  0.51100000000E-03 0.  1.
        -11    1    3    3    0    0  0.58067637569E+01  0.12212047863E+02  0.23673930133E+02  0.27263667885E+02  0.51100000000E-03 0. -1.
        -12    1    3    3    0    0  0.10081300385E+02 -0.14723089214E+02  0.98138322576E+01  0.20364510233E+02  0.00000000000E+00 0.  1.
</event>
<event>
 7    1  0.4346085E-013  0.5930198E+02  0.7816164E-02  0.1266605E+00
        -11   -1    0    0    0    0  0.00000000000E+00  0.00000000000E+00  0.45593999997E+02  0.45594000000E+02  0.51100000000E-03 0. -1.
         11   -1    0    0    0    0 -0.00000000000E+00 -0.00000000000E+00 -0.45593999997E+02  0.45594000000E+02  0.51100000000E-03 0.  1.
    9900012    2    1    2    0    0  0.16409505086E+02  0.27003599535E+01 -0.27205779934E+02  0.59301980135E+02  0.50000065850E+02 0.  0.
         12    1    1    2    0    0 -0.16409505086E+02 -0.27003599535E+01  0.27205779934E+02  0.31886019865E+02  0.00000000000E+00 0. -1.
         11    1    3    3    0    0 -0.79218652143E+01  0.10243395243E+01  0.30602476206E+01  0.85539660798E+01  0.51100000000E-03 0. -1.
        -11    1    3    3    0    0  0.21108306787E+02 -0.87844113493E+01 -0.52732625317E+01  0.23463456611E+02  0.51100000000E-03 0.  1.
        -12    1    3    3    0    0  0.32230635133E+01  0.10460431778E+02 -0.24992765023E+02  0.27284557443E+02  0.00000000000E+00 0.  1.
</event>
<event>
 7    1  0.4346085E-013  0.5930195E+02  0.7816164E-02  0.1266605E+00
        -11   -1    0    0    0    0  0.00000000000E+00  0.00000000000E+00  0.45593999997E+02  0.45594000000E+02  0.51100000000E-03 0.  1.
         11   -1    0    0    0    0 -0.00000000000E+00 -0.00000000000E+00 -0.45593999997E+02  0.45594000000E+02  0.51100000000E-03 0. -1.
    9900012    2    1    2    0    0  0.29703966714E+02  0.11088726980E+02  0.33815415673E+01  0.59301947752E+02  0.50000006793E+02 0.  0.
         12    1    1    2    0    0 -0.29703966714E+02 -0.11088726980E+02 -0.33815415673E+01  0.31886052248E+02  0.00000000000E+00 0. -1.
         11    1    3    3    0    0 -0.10701688642E+02  0.12997838694E+01 -0.39923429208E+01  0.11495841864E+02  0.51100000000E-03 0.  1.
        -11    1    3    3    0    0  0.41510617953E+02  0.93186576126E+01  0.23150262081E+01  0.42606667660E+02  0.51100000000E-03 0. -1.
         12    1    3    3    0    0 -0.11049625967E+01  0.47028549838E+00  0.50588582800E+01  0.51994382280E+01  0.00000000000E+00 0. -1.
</event>
<event>
 7    1  0.4346085E-013  0.5930203E+02  0.7816164E-02  0.1266604E+00
        -11   -1    0    0    0    0  0.00000000000E+00  0.00000000000E+00  0.45593999997E+02  0.45594000000E+02  0.51100000000E-03 0.  1.
         11   -1    0    0    0    0 -0.00000000000E+00 -0.00000000000E+00 -0.45593999997E+02  0.45594000000E+02  0.51100000000E-03 0. -1.
    9900012    2    1    2    0    0 -0.84567223714E+00  0.13782508724E+02  0.28740955485E+02  0.59302027686E+02  0.50000152572E+02 0.  0.
         12    1    1    2    0    0  0.84567223714E+00 -0.13782508724E+02 -0.28740955485E+02  0.31885972314E+02  0.00000000000E+00 0. -1.
         11    1    3    3    0    0 -0.12866912937E+02 -0.69665144867E+01  0.61047398820E+01  0.15854261948E+02  0.51100000000E-03 0. -1.
        -11    1    3    3    0    0  0.14032076727E+02  0.24169467712E+02  0.26056000803E+02  0.38209652248E+02  0.51100000000E-03 0.  1.
        -12    1    3    3    0    0 -0.20108360265E+01 -0.34204445018E+01 -0.34197852003E+01  0.52381134897E+01  0.00000000000E+00 0.  1.
</event>
<event>
 7    1  0.4346085E-013  0.5930193E+02  0.7816164E-02  0.1266605E+00
        -11   -1    0    0    0    0  0.00000000000E+00  0.00000000000E+00  0.45593999997E+02  0.45594000000E+02  0.51100000000E-03 0. -1.
         11   -1    0    0    0    0 -0.00000000000E+00 -0.00000000000E+00 -0.45593999997E+02  0.45594000000E+02  0.51100000000E-03 0.  1.
    9900012    2    1    2    0    0  0.20019089743E+02 -0.71449572088E+01 -0.23767768717E+02  0.59301934118E+02  0.49999981928E+02 0.  0.
         12    1    1    2    0    0 -0.20019089743E+02  0.71449572088E+01  0.23767768717E+02  0.31886065882E+02  0.00000000000E+00 0. -1.
         11    1    3    3    0    0  0.27060963790E+01  0.57274959964E+01  0.89274393496E+01  0.10946521895E+02  0.51100000000E-03 0. -1.
        -11    1    3    3    0    0 -0.41765259446E+01 -0.12909602223E+02 -0.16966584817E+02  0.21724783063E+02  0.51100000000E-03 0.  1.
        -12    1    3    3    0    0  0.21489519308E+02  0.37149017828E-01 -0.15728623249E+02  0.26630629160E+02  0.00000000000E+00 0.  1.
</event>
<event>
 7    1  0.4346085E-013  0.5930194E+02  0.7816164E-02  0.1266605E+00
        -11   -1    0    0    0    0  0.00000000000E+00  0.00000000000E+00  0.45593999997E+02  0.45594000000E+02  0.51100000000E-03 0.  1.
         11   -1    0    0    0    0 -0.00000000000E+00 -0.00000000000E+00 -0.45593999997E+02  0.45594000000E+02  0.51100000000E-03 0. -1.
    9900012    2    1    2    0    0  0.13922337003E+01  0.12960521422E+02  0.29099957124E+02  0.59301938236E+02  0.49999989437E+02 0.  0.
         12    1    1    2    0    0 -0.13922337003E+01 -0.12960521422E+02 -0.29099957124E+02  0.31886061764E+02  0.00000000000E+00 0. -1.
         11    1    3    3    0    0  0.75508874852E+01  0.14052854506E+01 -0.26001300065E+01  0.81087240256E+01  0.51100000000E-03 0. -1.
        -11    1    3    3    0    0 -0.20539469009E+02 -0.92660121486E+00  0.20824825352E+02  0.29264342265E+02  0.51100000000E-03 0.  1.
        -12    1    3    3    0    0  0.14380815224E+02  0.12481837186E+02  0.10875261779E+02  0.21928871946E+02  0.00000000000E+00 0.  1.
</event>
<event>
 7    1  0.4346085E-013  0.5930189E+02  0.7816164E-02  0.1266605E+00
        -11   -1    0    0    0    0  0.00000000000E+00  0.00000000000E+00  0.45593999997E+02  0.45594000000E+02  0.51100000000E-03 0.  1.
         11   -1    0    0    0    0 -0.00000000000E+00 -0.00000000000E+00 -0.45593999997E+02  0.45594000000E+02  0.51100000000E-03 0. -1.
    9900012    2    1    2    0    0  0.12953342453E+02 -0.80251347302E+01  0.28009505903E+02  0.59301885639E+02  0.49999893512E+02 0.  0.
         12    1    1    2    0    0 -0.12953342453E+02  0.80251347302E+01 -0.28009505903E+02  0.31886114361E+02  0.00000000000E+00 0. -1.
         11    1    3    3    0    0 -0.42842691132E+01  0.37480183024E+01 -0.48906959158E+01  0.75047658079E+01  0.51100000000E-03 0. -1.
        -11    1    3    3    0    0  0.11739413643E+02  0.84421371808E+01  0.25982165345E+02  0.29734768019E+02  0.51100000000E-03 0.  1.
        -12    1    3    3    0    0  0.54981979231E+01 -0.20215290213E+02  0.69180364734E+01  0.22062351812E+02  0.00000000000E+00 0.  1.
</event>
<event>
 7    1  0.4346085E-013  0.5930193E+02  0.7816164E-02  0.1266605E+00
        -11   -1    0    0    0    0  0.00000000000E+00  0.00000000000E+00  0.45593999997E+02  0.45594000000E+02  0.51100000000E-03 0.  1.
         11   -1    0    0    0    0 -0.00000000000E+00 -0.00000000000E+00 -0.45593999997E+02  0.45594000000E+02  0.51100000000E-03 0. -1.
    9900012    2    1    2    0    0 -0.30227258481E+02 -0.10006401845E+02  0.17048063407E+01  0.59301927840E+02  0.49999970477E+02 0.  0.
         12    1    1    2    0    0  0.30227258481E+02  0.10006401845E+02 -0.17048063407E+01  0.31886072160E+02  0.00000000000E+00 0. -1.
         11    1    3    3    0    0 -0.14297232078E+02 -0.46642808805E+01 -0.89983452937E+01  0.17525312537E+02  0.51100000000E-03 0. -1.
        -11    1    3    3    0    0  0.13648106290E+01  0.90114659193E+01  0.16245983978E+02  0.18627968803E+02  0.51100000000E-03 0.  1.
        -12    1    3    3    0    0 -0.17294837031E+02 -0.14353586884E+02 -0.55428323435E+01  0.23148646500E+02  0.00000000000E+00 0.  1.
</event>
<event>
 7    1  0.4346085E-013  0.5930196E+02  0.7816164E-02  0.1266605E+00
        -11   -1    0    0    0    0  0.00000000000E+00  0.00000000000E+00  0.45593999997E+02  0.45594000000E+02  0.51100000000E-03 0.  1.
         11   -1    0    0    0    0 -0.00000000000E+00 -0.00000000000E+00 -0.45593999997E+02  0.45594000000E+02  0.51100000000E-03 0. -1.
    9900012    2    1    2    0    0 -0.21567824445E+02  0.46734086868E+01  0.23015377946E+02  0.59301961957E+02  0.50000032699E+02 0.  0.
         12    1    1    2    0    0  0.21567824445E+02 -0.46734086868E+01 -0.23015377946E+02  0.31886038043E+02  0.00000000000E+00 0. -1.
         11    1    3    3    0    0 -0.20629213967E+02 -0.20825311091E+01  0.23838116757E+01  0.20870648363E+02  0.51100000000E-03 0. -1.
        -11    1    3    3    0    0  0.89808464201E+01 -0.89362450752E+01  0.34369267060E+01  0.13127244338E+02  0.51100000000E-03 0.  1.
        -12    1    3    3    0    0 -0.99194568980E+01  0.15692184871E+02  0.17194639565E+02  0.25304069257E+02  0.00000000000E+00 0.  1.
</event>
<event>
 7    1  0.4346085E-013  0.5930203E+02  0.7816164E-02  0.1266604E+00
        -11   -1    0    0    0    0  0.00000000000E+00  0.00000000000E+00  0.45593999997E+02  0.45594000000E+02  0.51100000000E-03 0.  1.
         11   -1    0    0    0    0 -0.00000000000E+00 -0.00000000000E+00 -0.45593999997E+02  0.45594000000E+02  0.51100000000E-03 0. -1.
    9900012    2    1    2    0    0  0.11325350615E+02 -0.22261031243E+02  0.19821651839E+02  0.59302031923E+02  0.50000160299E+02 0.  0.
         12    1    1    2    0    0 -0.11325350615E+02  0.22261031243E+02 -0.19821651839E+02  0.31885968077E+02  0.00000000000E+00 0. -1.
         11    1    3    3    0    0 -0.50269438693E+01 -0.15836584256E+01  0.32678287412E+01  0.62013582074E+01  0.51100000000E-03 0. -1.
        -11    1    3    3    0    0  0.10967845333E+02 -0.26096309874E+01 -0.13521366934E+02  0.17604862089E+02  0.51100000000E-03 0.  1.
        -12    1    3    3    0    0  0.53844491514E+01 -0.18067741830E+02  0.30075190033E+02  0.35495811626E+02  0.00000000000E+00 0.  1.
</event>
<event>
 7    1  0.4346085E-013  0.5930198E+02  0.7816164E-02  0.1266605E+00
        -11   -1    0    0    0    0  0.00000000000E+00  0.00000000000E+00  0.45593999997E+02  0.45594000000E+02  0.51100000000E-03 0.  1.
         11   -1    0    0    0    0 -0.00000000000E+00 -0.00000000000E+00 -0.45593999997E+02  0.45594000000E+02  0.51100000000E-03 0. -1.
    9900012    2    1    2    0    0 -0.73192935598E+01 -0.10815705557E+02  0.29088948585E+02  0.59301976813E+02  0.50000059792E+02 0.  0.
         12    1    1    2    0    0  0.73192935598E+01  0.10815705557E+02 -0.29088948585E+02  0.31886023187E+02  0.00000000000E+00 0. -1.
         11    1    3    3    0    0 -0.42659806400E+01  0.12882791031E+02  0.29149751676E+01  0.13880272910E+02  0.51100000000E-03 0. -1.
        -11    1    3    3    0    0  0.98714576228E+01 -0.20880360779E+02  0.21004793861E+02  0.31219168907E+02  0.51100000000E-03 0.  1.
         12    1    3    3    0    0 -0.12924770543E+02 -0.28181358091E+01  0.51691795563E+01  0.14202534996E+02  0.00000000000E+00 0. -1.
</event>
<event>
 7    1  0.4346085E-013  0.5930194E+02  0.7816164E-02  0.1266605E+00
        -11   -1    0    0    0    0  0.00000000000E+00  0.00000000000E+00  0.45593999997E+02  0.45594000000E+02  0.51100000000E-03 0. -1.
         11   -1    0    0    0    0 -0.00000000000E+00 -0.00000000000E+00 -0.45593999997E+02  0.45594000000E+02  0.51100000000E-03 0.  1.
    9900012    2    1    2    0    0 -0.14658819906E+02  0.28232488280E+02  0.21832375683E+01  0.59301938440E+02  0.49999989810E+02 0.  0.
         12    1    1    2    0    0  0.14658819906E+02 -0.28232488280E+02 -0.21832375683E+01  0.31886061560E+02  0.00000000000E+00 0. -1.
         11    1    3    3    0    0 -0.52843894854E+01  0.19745304610E+02  0.18542196160E+02  0.27597370618E+02  0.51100000000E-03 0. -1.
        -11    1    3    3    0    0 -0.91159000102E+01  0.16427942536E+02 -0.13956559727E+02  0.23404326281E+02  0.51100000000E-03 0.  1.
         12    1    3    3    0    0 -0.25853041084E+00 -0.79407588662E+01 -0.24023988642E+01  0.83002415415E+01  0.00000000000E+00 0. -1.
</event>
<event>
 7    1  0.4346085E-013  0.5930194E+02  0.7816164E-02  0.1266605E+00
        -11   -1    0    0    0    0  0.00000000000E+00  0.00000000000E+00  0.45593999997E+02  0.45594000000E+02  0.51100000000E-03 0. -1.
         11   -1    0    0    0    0 -0.00000000000E+00 -0.00000000000E+00 -0.45593999997E+02  0.45594000000E+02  0.51100000000E-03 0.  1.
    9900012    2    1    2    0    0 -0.63866674564E+01 -0.26680306082E+02  0.16250930067E+02  0.59301937498E+02  0.49999988091E+02 0.  0.
         12    1    1    2    0    0  0.63866674564E+01  0.26680306082E+02 -0.16250930067E+02  0.31886062502E+02  0.00000000000E+00 0. -1.
         11    1    3    3    0    0  0.14763455626E+00 -0.44887193824E+01  0.14681793467E+02  0.15353353292E+02  0.51100000000E-03 0. -1.
        -11    1    3    3    0    0  0.74347366785E+01 -0.27556908745E+01 -0.13506175292E+02  0.15661606334E+02  0.51100000000E-03 0.  1.
        -12    1    3    3    0    0 -0.13969038691E+02 -0.19435895825E+02  0.15075311893E+02  0.28286977872E+02  0.00000000000E+00 0.  1.
</event>
<event>
 7    1  0.4346085E-013  0.5930194E+02  0.7816164E-02  0.1266605E+00
        -11   -1    0    0    0    0  0.00000000000E+00  0.00000000000E+00  0.45593999997E+02  0.45594000000E+02  0.51100000000E-03 0.  1.
         11   -1    0    0    0    0 -0.00000000000E+00 -0.00000000000E+00 -0.45593999997E+02  0.45594000000E+02  0.51100000000E-03 0. -1.
    9900012    2    1    2    0    0 -0.49883567714E+01 -0.28893077631E+02  0.12531043842E+02  0.59301941949E+02  0.49999996210E+02 0.  0.
         12    1    1    2    0    0  0.49883567714E+01  0.28893077631E+02 -0.12531043842E+02  0.31886058051E+02  0.00000000000E+00 0. -1.
         11    1    3    3    0    0  0.62299580019E+01  0.10471520742E+02  0.89199573985E+01  0.15100687521E+02  0.51100000000E-03 0. -1.
        -11    1    3    3    0    0 -0.19343121983E+00 -0.14353312155E+02  0.81297569239E+01  0.16496906781E+02  0.51100000000E-03 0.  1.
         12    1    3    3    0    0 -0.11024883553E+02 -0.25011286218E+02 -0.45186704809E+01  0.27704347647E+02  0.00000000000E+00 0. -1.
</event>
<event>
 7    1  0.4346085E-013  0.5930194E+02  0.7816164E-02  0.1266605E+00
        -11   -1    0    0    0    0  0.00000000000E+00  0.00000000000E+00  0.45593999997E+02  0.45594000000E+02  0.51100000000E-03 0.  1.
         11   -1    0    0    0    0 -0.00000000000E+00 -0.00000000000E+00 -0.45593999997E+02  0.45594000000E+02  0.51100000000E-03 0. -1.
    9900012    2    1    2    0    0 -0.14782312753E+02 -0.21539959916E+02 -0.18282077676E+02  0.59301937094E+02  0.49999987354E+02 0.  0.
         12    1    1    2    0    0  0.14782312753E+02  0.21539959916E+02  0.18282077676E+02  0.31886062906E+02  0.00000000000E+00 0. -1.
         11    1    3    3    0    0 -0.85883247146E+00  0.10841663044E+02 -0.79271875572E+01  0.13458066489E+02  0.51100000000E-03 0. -1.
        -11    1    3    3    0    0 -0.64275640203E+01 -0.18101229548E+02  0.85230695899E+01  0.21014537965E+02  0.51100000000E-03 0.  1.
         12    1    3    3    0    0 -0.74959162614E+01 -0.14280393412E+02 -0.18877959709E+02  0.24829332640E+02  0.00000000000E+00 0. -1.
</event>
<event>
 7    1  0.4346085E-013  0.5930195E+02  0.7816164E-02  0.1266605E+00
        -11   -1    0    0    0    0  0.00000000000E+00  0.00000000000E+00  0.45593999997E+02  0.45594000000E+02  0.51100000000E-03 0.  1.
         11   -1    0    0    0    0 -0.00000000000E+00 -0.00000000000E+00 -0.45593999997E+02  0.45594000000E+02  0.51100000000E-03 0. -1.
    9900012    2    1    2    0    0 -0.52102083545E+01  0.26771604032E+02 -0.16518321637E+02  0.59301952843E+02  0.50000016077E+02 0.  0.
         12    1    1    2    0    0  0.52102083545E+01 -0.26771604032E+02  0.16518321637E+02  0.31886047157E+02  0.00000000000E+00 0. -1.
         11    1    3    3    0    0 -0.10684895651E+02  0.81282555102E+01  0.30625803917E+01  0.13770073770E+02  0.51100000000E-03 0. -1.
        -11    1    3    3    0    0  0.33319528633E+01 -0.34195444954E+01 -0.22655364522E+02  0.23152985473E+02  0.51100000000E-03 0.  1.
        -12    1    3    3    0    0  0.21427344336E+01  0.22062893018E+02  0.30744624924E+01  0.22378893600E+02  0.00000000000E+00 0.  1.
</event>
<event>
 7    1  0.4346085E-013  0.5930192E+02  0.7816164E-02  0.1266605E+00
        -11   -1    0    0    0    0  0.00000000000E+00  0.00000000000E+00  0.45593999997E+02  0.45594000000E+02  0.51100000000E-03 0. -1.
         11   -1    0    0    0    0 -0.00000000000E+00 -0.00000000000E+00 -0.45593999997E+02  0.45594000000E+02  0.51100000000E-03 0.  1.
    9900012    2    1    2    0    0  0.20723611498E+01 -0.18768559309E+01 -0.31763259612E+02  0.59301922629E+02  0.49999960973E+02 0.  0.
         12    1    1    2    0    0 -0.20723611498E+01  0.18768559309E+01  0.31763259612E+02  0.31886077371E+02  0.00000000000E+00 0. -1.
         11    1    3    3    0    0  0.15823873969E+02  0.16633946893E+02 -0.14906430507E+02  0.27373067920E+02  0.51100000000E-03 0. -1.
        -11    1    3    3    0    0 -0.10305206412E+02 -0.40606712918E+01 -0.11926620723E+02  0.16276689241E+02  0.51100000000E-03 0.  1.
         12    1    3    3    0    0 -0.34463064079E+01 -0.14450131532E+02 -0.49302083830E+01  0.15652165468E+02  0.00000000000E+00 0. -1.
</event>
<event>
 7    1  0.4346085E-013  0.5930194E+02  0.7816164E-02  0.1266605E+00
        -11   -1    0    0    0    0  0.00000000000E+00  0.00000000000E+00  0.45593999997E+02  0.45594000000E+02  0.51100000000E-03 0. -1.
         11   -1    0    0    0    0 -0.00000000000E+00 -0.00000000000E+00 -0.45593999997E+02  0.45594000000E+02  0.51100000000E-03 0.  1.
    9900012    2    1    2    0    0  0.91688009049E+01 -0.29053461623E+02 -0.94101209998E+01  0.59301938476E+02  0.49999989874E+02 0.  0.
         12    1    1    2    0    0 -0.91688009049E+01  0.29053461623E+02  0.94101209998E+01  0.31886061524E+02  0.00000000000E+00 0. -1.
         11    1    3    3    0    0 -0.39732255327E+01 -0.22061132537E+01  0.12221853819E+02  0.13039446609E+02  0.51100000000E-03 0. -1.
        -11    1    3    3    0    0  0.19156395030E+02 -0.14228492588E+02 -0.47263520208E+01  0.24326032877E+02  0.51100000000E-03 0.  1.
        -12    1    3    3    0    0 -0.60143685923E+01 -0.12618855782E+02 -0.16905622798E+02  0.21936458990E+02  0.00000000000E+00 0.  1.
</event>
<event>
 7    1  0.4346085E-013  0.5930195E+02  0.7816164E-02  0.1266605E+00
        -11   -1    0    0    0    0  0.00000000000E+00  0.00000000000E+00  0.45593999997E+02  0.45594000000E+02  0.51100000000E-03 0.  1.
         11   -1    0    0    0    0 -0.00000000000E+00 -0.00000000000E+00 -0.45593999997E+02  0.45594000000E+02  0.51100000000E-03 0. -1.
    9900012    2    1    2    0    0 -0.40063839343E+01  0.23681637368E+02  0.20972585894E+02  0.59301946313E+02  0.50000004168E+02 0.  0.
         12    1    1    2    0    0  0.40063839343E+01 -0.23681637368E+02 -0.20972585894E+02  0.31886053687E+02  0.00000000000E+00 0. -1.
         11    1    3    3    0    0  0.19366984571E+01  0.66692619373E+01 -0.46309138519E+01  0.83471683263E+01  0.51100000000E-03 0. -1.
        -11    1    3    3    0    0  0.14067115048E+02  0.19553363255E+01  0.21216063250E+02  0.25530930379E+02  0.51100000000E-03 0.  1.
        -12    1    3    3    0    0 -0.20010197439E+02  0.15057039105E+02  0.43874364954E+01  0.25423847608E+02  0.00000000000E+00 0.  1.
</event>
<event>
 7    1  0.4346085E-013  0.5930194E+02  0.7816164E-02  0.1266605E+00
        -11   -1    0    0    0    0  0.00000000000E+00  0.00000000000E+00  0.45593999997E+02  0.45594000000E+02  0.51100000000E-03 0.  1.
         11   -1    0    0    0    0 -0.00000000000E+00 -0.00000000000E+00 -0.45593999997E+02  0.45594000000E+02  0.51100000000E-03 0. -1.
    9900012    2    1    2    0    0  0.41888114773E+01 -0.30159798896E+02  0.94636666441E+01  0.59301943527E+02  0.49999999087E+02 0.  0.
         12    1    1    2    0    0 -0.41888114773E+01  0.30159798896E+02 -0.94636666441E+01  0.31886056473E+02  0.00000000000E+00 0. -1.
         11    1    3    3    0    0 -0.62048836177E+00  0.25674950711E+01 -0.56433002115E+01  0.62308806990E+01  0.51100000000E-03 0. -1.
        -11    1    3    3    0    0  0.20619877789E+02 -0.24665040236E+02  0.14619749808E+02  0.35316860769E+02  0.51100000000E-03 0.  1.
        -12    1    3    3    0    0 -0.15810577949E+02 -0.80622537310E+01  0.48721704803E+00  0.17754202060E+02  0.00000000000E+00 0.  1.
</event>
<event>
 7    1  0.4346085E-013  0.5930189E+02  0.7816164E-02  0.1266605E+00
        -11   -1    0    0    0    0  0.00000000000E+00  0.00000000000E+00  0.45593999997E+02  0.45594000000E+02  0.51100000000E-03 0.  1.
         11   -1    0    0    0    0 -0.00000000000E+00 -0.00000000000E+00 -0.45593999997E+02  0.45594000000E+02  0.51100000000E-03 0. -1.
    9900012    2    1    2    0    0 -0.63048556064E+01  0.49334241030E+01  0.30864771916E+02  0.59301889810E+02  0.49999901120E+02 0.  0.
         12    1    1    2    0    0  0.63048556064E+01 -0.49334241030E+01 -0.30864771916E+02  0.31886110190E+02  0.00000000000E+00 0. -1.
         11    1    3    3    0    0 -0.40090382177E+01 -0.13118977216E+02  0.32907413423E+00  0.13721816231E+02  0.51100000000E-03 0. -1.
        -11    1    3    3    0    0 -0.24349761786E+01  0.18770791002E+02  0.43982076044E+01  0.19432342479E+02  0.51100000000E-03 0.  1.
        -12    1    3    3    0    0  0.13915878989E+00 -0.71838968287E+00  0.26137490178E+02  0.26147731100E+02  0.00000000000E+00 0.  1.
</event>
<event>
 7    1  0.4346085E-013  0.5930197E+02  0.7816164E-02  0.1266605E+00
        -11   -1    0    0    0    0  0.00000000000E+00  0.00000000000E+00  0.45593999997E+02  0.45594000000E+02  0.51100000000E-03 0.  1.
         11   -1    0    0    0    0 -0.00000000000E+00 -0.00000000000E+00 -0.45593999997E+02  0.45594000000E+02  0.51100000000E-03 0. -1.
    9900012    2    1    2    0    0 -0.22939380617E+02 -0.47613863985E+01  0.21629451491E+02  0.59301966140E+02  0.50000040328E+02 0.  0.
         12    1    1    2    0    0  0.22939380617E+02  0.47613863985E+01 -0.21629451491E+02  0.31886033860E+02  0.00000000000E+00 0. -1.
         11    1    3    3    0    0  0.12857347395E+02 -0.11193942832E+02  0.74931283809E+01  0.18621565760E+02  0.51100000000E-03 0. -1.
        -11    1    3    3    0    0 -0.26341427034E+02  0.22986014340E+01  0.50262227826E+01  0.26915000696E+02  0.51100000000E-03 0.  1.
         12    1    3    3    0    0 -0.94553009774E+01  0.41339549992E+01  0.91101003276E+01  0.13765399685E+02  0.00000000000E+00 0. -1.
</event>
<event>
 7    1  0.4346085E-013  0.5930196E+02  0.7816164E-02  0.1266605E+00
        -11   -1    0    0    0    0  0.00000000000E+00  0.00000000000E+00  0.45593999997E+02  0.45594000000E+02  0.51100000000E-03 0. -1.
         11   -1    0    0    0    0 -0.00000000000E+00 -0.00000000000E+00 -0.45593999997E+02  0.45594000000E+02  0.51100000000E-03 0.  1.
    9900012    2    1    2    0    0 -0.29789562139E+02  0.97098904786E+01 -0.59177509745E+01  0.59301956624E+02  0.50000022973E+02 0.  0.
         12    1    1    2    0    0  0.29789562139E+02 -0.97098904786E+01  0.59177509745E+01  0.31886043376E+02  0.00000000000E+00 0. -1.
         11    1    3    3    0    0 -0.26948495937E+02  0.21568272445E+02  0.11147120081E+02  0.36272166959E+02  0.51100000000E-03 0. -1.
        -11    1    3    3    0    0 -0.44844628781E+00 -0.29277898918E+01  0.66356252734E+00  0.30353538859E+01  0.51100000000E-03 0.  1.
         12    1    3    3    0    0 -0.23926199148E+01 -0.89305920750E+01 -0.17728433582E+02  0.19994435780E+02  0.00000000000E+00 0. -1.
</event>
<event>
 7    1  0.4346085E-013  0.5930195E+02  0.7816164E-02  0.1266605E+00
        -11   -1    0    0    0    0  0.00000000000E+00  0.00000000000E+00  0.45593999997E+02  0.45594000000E+02  0.51100000000E-03 0.  1.
         11   -1    0    0    0    0 -0.00000000000E+00 -0.00000000000E+00 -0.45593999997E+02  0.45594000000E+02  0.51100000000E-03 0. -1.
    9900012    2    1    2    0    0 -0.31225876427E+02 -0.16012724297E+01  0.62530657993E+01  0.59301948756E+02  0.50000008624E+02 0.  0.
         12    1    1    2    0    0  0.31225876427E+02  0.16012724297E+01 -0.62530657993E+01  0.31886051244E+02  0.00000000000E+00 0. -1.
         11    1    3    3    0    0 -0.19146693177E+02 -0.45036656640E+01 -0.12446375437E+02  0.23276407064E+02  0.51100000000E-03 0. -1.
        -11    1    3    3    0    0  0.59973557620E+01 -0.38363812133E+01  0.14686051112E+02  0.16320728981E+02  0.51100000000E-03 0.  1.
        -12    1    3    3    0    0 -0.18076539012E+02  0.67387744476E+01  0.40133901238E+01  0.19704812712E+02  0.00000000000E+00 0.  1.
</event>
<event>
 7    1  0.4346085E-013  0.5930194E+02  0.7816164E-02  0.1266605E+00
        -11   -1    0    0    0    0  0.00000000000E+00  0.00000000000E+00  0.45593999997E+02  0.45594000000E+02  0.51100000000E-03 0.  1.
         11   -1    0    0    0    0 -0.00000000000E+00 -0.00000000000E+00 -0.45593999997E+02  0.45594000000E+02  0.51100000000E-03 0. -1.
    9900012    2    1    2    0    0  0.25812483191E+02 -0.16898589070E+02 -0.80544396937E+01  0.59301943489E+02  0.49999999017E+02 0.  0.
         12    1    1    2    0    0 -0.25812483191E+02  0.16898589070E+02  0.80544396937E+01  0.31886056511E+02  0.00000000000E+00 0. -1.
         11    1    3    3    0    0  0.10985084250E+02  0.73943919347E+01 -0.22346428516E+02  0.25975218493E+02  0.51100000000E-03 0. -1.
        -11    1    3    3    0    0  0.69192381917E+01 -0.14223722825E+02  0.26819713444E+01  0.16043164236E+02  0.51100000000E-03 0.  1.
         12    1    3    3    0    0  0.79081607488E+01 -0.10069258180E+02  0.11610017478E+02  0.17283560760E+02  0.00000000000E+00 0. -1.
</event>
<event>
 7    1  0.4346085E-013  0.5930198E+02  0.7816164E-02  0.1266605E+00
        -11   -1    0    0    0    0  0.00000000000E+00  0.00000000000E+00  0.45593999997E+02  0.45594000000E+02  0.51100000000E-03 0. -1.
         11   -1    0    0    0    0 -0.00000000000E+00 -0.00000000000E+00 -0.45593999997E+02  0.45594000000E+02  0.51100000000E-03 0.  1.
    9900012    2    1    2    0    0  0.23076783211E+02  0.62194343261E+01 -0.21106843116E+02  0.59301982484E+02  0.50000070135E+02 0.  0.
         12    1    1    2    0    0 -0.23076783211E+02 -0.62194343261E+01  0.21106843116E+02  0.31886017516E+02  0.00000000000E+00 0. -1.
         11    1    3    3    0    0  0.68012125197E+01 -0.12830862142E+02  0.97310599881E+00  0.14554533678E+02  0.51100000000E-03 0. -1.
        -11    1    3    3    0    0  0.14943116484E+02  0.14983604647E+02 -0.29426527216E+02  0.36245353396E+02  0.51100000000E-03 0.  1.
         12    1    3    3    0    0  0.13324542066E+01  0.40666918204E+01  0.73465781014E+01  0.85020954108E+01  0.00000000000E+00 0. -1.
</event>
<event>
 7    1  0.4346085E-013  0.5930194E+02  0.7816164E-02  0.1266605E+00
        -11   -1    0    0    0    0  0.00000000000E+00  0.00000000000E+00  0.45593999997E+02  0.45594000000E+02  0.51100000000E-03 0.  1.
         11   -1    0    0    0    0 -0.00000000000E+00 -0.00000000000E+00 -0.45593999997E+02  0.45594000000E+02  0.51100000000E-03 0. -1.
    9900012    2    1    2    0    0  0.26374237523E+02  0.72452535989E+01  0.16389835113E+02  0.59301940356E+02  0.49999993303E+02 0.  0.
         12    1    1    2    0    0 -0.26374237523E+02 -0.72452535989E+01 -0.16389835113E+02  0.31886059644E+02  0.00000000000E+00 0. -1.
         11    1    3    3    0    0 -0.15333392334E+01 -0.50347902974E+01 -0.49972968936E+01  0.72576317795E+01  0.51100000000E-03 0.  1.
        -11    1    3    3    0    0  0.30262237393E+02 -0.12556982955E+00  0.39556924609E+01  0.30519932551E+02  0.51100000000E-03 0. -1.
        -12    1    3    3    0    0 -0.23546606369E+01  0.12405613726E+02  0.17431439546E+02  0.21524376025E+02  0.00000000000E+00 0.  1.
</event>
<event>
 7    1  0.4346085E-013  0.5930196E+02  0.7816164E-02  0.1266605E+00
        -11   -1    0    0    0    0  0.00000000000E+00  0.00000000000E+00  0.45593999997E+02  0.45594000000E+02  0.51100000000E-03 0.  1.
         11   -1    0    0    0    0 -0.00000000000E+00 -0.00000000000E+00 -0.45593999997E+02  0.45594000000E+02  0.51100000000E-03 0. -1.
    9900012    2    1    2    0    0  0.95985355788E+01  0.17279405214E+02  0.25020194197E+02  0.59301955287E+02  0.50000020534E+02 0.  0.
         12    1    1    2    0    0 -0.95985355788E+01 -0.17279405214E+02 -0.25020194197E+02  0.31886044713E+02  0.00000000000E+00 0. -1.
         11    1    3    3    0    0 -0.13785607449E+02 -0.62985474501E+00  0.22316778329E+02  0.26238869735E+02  0.51100000000E-03 0. -1.
        -11    1    3    3    0    0  0.28779385878E+01  0.64763655523E+01  0.60873841070E+01  0.93424882558E+01  0.51100000000E-03 0.  1.
         12    1    3    3    0    0  0.20506204440E+02  0.11432894406E+02 -0.33839682391E+01  0.23720597296E+02  0.00000000000E+00 0. -1.
</event>
<event>
 7    1  0.4346085E-013  0.5930201E+02  0.7816164E-02  0.1266605E+00
        -11   -1    0    0    0    0  0.00000000000E+00  0.00000000000E+00  0.45593999997E+02  0.45594000000E+02  0.51100000000E-03 0.  1.
         11   -1    0    0    0    0 -0.00000000000E+00 -0.00000000000E+00 -0.45593999997E+02  0.45594000000E+02  0.51100000000E-03 0. -1.
    9900012    2    1    2    0    0  0.66428716239E+01  0.21758855122E+02  0.22341454138E+02  0.59302014165E+02  0.50000127914E+02 0.  0.
         12    1    1    2    0    0 -0.66428716239E+01 -0.21758855122E+02 -0.22341454138E+02  0.31885985835E+02  0.00000000000E+00 0. -1.
         11    1    3    3    0    0  0.51857085033E+01  0.18441437088E+02  0.30094815426E+02  0.35674586057E+02  0.51100000000E-03 0.  1.
        -11    1    3    3    0    0  0.10988496808E+02  0.25403433234E+01 -0.83696631579E+01  0.14044631285E+02  0.51100000000E-03 0. -1.
        -12    1    3    3    0    0 -0.95313336870E+01  0.77707471082E+00  0.61630187019E+00  0.95827968232E+01  0.00000000000E+00 0.  1.
</event>
<event>
 7    1  0.4346085E-013  0.5930193E+02  0.7816164E-02  0.1266605E+00
        -11   -1    0    0    0    0  0.00000000000E+00  0.00000000000E+00  0.45593999997E+02  0.45594000000E+02  0.51100000000E-03 0.  1.
         11   -1    0    0    0    0 -0.00000000000E+00 -0.00000000000E+00 -0.45593999997E+02  0.45594000000E+02  0.51100000000E-03 0. -1.
    9900012    2    1    2    0    0  0.73749929016E+01  0.26589003806E+01  0.30907295175E+02  0.59301934602E+02  0.49999982810E+02 0.  0.
         12    1    1    2    0    0 -0.73749929016E+01 -0.26589003806E+01 -0.30907295175E+02  0.31886065398E+02  0.00000000000E+00 0. -1.
         11    1    3    3    0    0  0.18429345976E+00  0.13821340499E+02  0.75337112284E+01  0.15742306769E+02  0.51100000000E-03 0. -1.
        -11    1    3    3    0    0  0.20004171766E+02 -0.10481976937E+02  0.20296665243E+02  0.30364343378E+02  0.51100000000E-03 0.  1.
         12    1    3    3    0    0 -0.12813472324E+02 -0.68046318209E+00  0.30769187032E+01  0.13195284455E+02  0.00000000000E+00 0. -1.
</event>
<event>
 7    1  0.4346085E-013  0.5930194E+02  0.7816164E-02  0.1266605E+00
        -11   -1    0    0    0    0  0.00000000000E+00  0.00000000000E+00  0.45593999997E+02  0.45594000000E+02  0.51100000000E-03 0. -1.
         11   -1    0    0    0    0 -0.00000000000E+00 -0.00000000000E+00 -0.45593999997E+02  0.45594000000E+02  0.51100000000E-03 0.  1.
    9900012    2    1    2    0    0  0.30260794113E+01 -0.13177286889E+02 -0.28877726062E+02  0.59301935507E+02  0.49999984460E+02 0.  0.
         12    1    1    2    0    0 -0.30260794113E+01  0.13177286889E+02  0.28877726062E+02  0.31886064493E+02  0.00000000000E+00 0. -1.
         11    1    3    3    0    0 -0.97185361552E+01  0.16018468527E+02 -0.69883277723E+01  0.19996949874E+02  0.51100000000E-03 0. -1.
        -11    1    3    3    0    0  0.82377111956E+01 -0.17626247231E+02 -0.90975654972E+01  0.21478132494E+02  0.51100000000E-03 0.  1.
         12    1    3    3    0    0  0.45069043709E+01 -0.11569508185E+02 -0.12791832792E+02  0.17826853139E+02  0.00000000000E+00 0. -1.
</event>
<event>
 7    1  0.4346085E-013  0.5930195E+02  0.7816164E-02  0.1266605E+00
        -11   -1    0    0    0    0  0.00000000000E+00  0.00000000000E+00  0.45593999997E+02  0.45594000000E+02  0.51100000000E-03 0.  1.
         11   -1    0    0    0    0 -0.00000000000E+00 -0.00000000000E+00 -0.45593999997E+02  0.45594000000E+02  0.51100000000E-03 0. -1.
    9900012    2    1    2    0    0 -0.14975480251E+02 -0.10317677679E+02  0.26191615905E+02  0.59301949365E+02  0.50000009733E+02 0.  0.
         12    1    1    2    0    0  0.14975480251E+02  0.10317677679E+02 -0.26191615905E+02  0.31886050635E+02  0.00000000000E+00 0. -1.
         11    1    3    3    0    0 -0.54111298050E+01  0.12223265142E+02 -0.60742986588E+01  0.14682834909E+02  0.51100000000E-03 0. -1.
        -11    1    3    3    0    0 -0.11732576118E+02 -0.24651315522E+02  0.26192206873E+02  0.37833482531E+02  0.51100000000E-03 0.  1.
        -12    1    3    3    0    0  0.21682256723E+01  0.21103727012E+01  0.60737076906E+01  0.67856319246E+01  0.00000000000E+00 0.  1.
</event>
<event>
 7    1  0.4346085E-013  0.5930193E+02  0.7816164E-02  0.1266605E+00
        -11   -1    0    0    0    0  0.00000000000E+00  0.00000000000E+00  0.45593999997E+02  0.45594000000E+02  0.51100000000E-03 0. -1.
         11   -1    0    0    0    0 -0.00000000000E+00 -0.00000000000E+00 -0.45593999997E+02  0.45594000000E+02  0.51100000000E-03 0.  1.
    9900012    2    1    2    0    0 -0.79275365211E+01 -0.26574593938E+02 -0.15737421101E+02  0.59301932492E+02  0.49999978961E+02 0.  0.
         12    1    1    2    0    0  0.79275365211E+01  0.26574593938E+02  0.15737421101E+02  0.31886067508E+02  0.00000000000E+00 0. -1.
         11    1    3    3    0    0 -0.21431834491E+01 -0.21515561830E+01  0.10598428792E+02  0.11024931856E+02  0.51100000000E-03 0. -1.
        -11    1    3    3    0    0 -0.78199061903E+01 -0.20366460875E+02 -0.33392152277E+02  0.39887084318E+02  0.51100000000E-03 0.  1.
        -12    1    3    3    0    0  0.20355531183E+01 -0.40565768794E+01  0.70563023847E+01  0.83899163178E+01  0.00000000000E+00 0.  1.
</event>
<event>
 7    1  0.4346085E-013  0.5930188E+02  0.7816164E-02  0.1266605E+00
        -11   -1    0    0    0    0  0.00000000000E+00  0.00000000000E+00  0.45593999997E+02  0.45594000000E+02  0.51100000000E-03 0.  1.
         11   -1    0    0    0    0 -0.00000000000E+00 -0.00000000000E+00 -0.45593999997E+02  0.45594000000E+02  0.51100000000E-03 0. -1.
    9900012    2    1    2    0    0  0.98689962660E+01  0.17464850364E+02  0.24785208958E+02  0.59301879686E+02  0.49999882657E+02 0.  0.
         12    1    1    2    0    0 -0.98689962660E+01 -0.17464850364E+02 -0.24785208958E+02  0.31886120314E+02  0.00000000000E+00 0. -1.
         11    1    3    3    0    0 -0.18120578664E+01 -0.14990127903E+02  0.83584086155E+01  0.17258345318E+02  0.51100000000E-03 0. -1.
        -11    1    3    3    0    0  0.11243726388E+02  0.26377739749E+02  0.20018578427E+02  0.34970702307E+02  0.51100000000E-03 0.  1.
        -12    1    3    3    0    0  0.43732774409E+00  0.60772385183E+01 -0.35917780843E+01  0.70728320615E+01  0.00000000000E+00 0.  1.
</event>
<event>
 7    1  0.4346085E-013  0.5930186E+02  0.7816164E-02  0.1266605E+00
        -11   -1    0    0    0    0  0.00000000000E+00  0.00000000000E+00  0.45593999997E+02  0.45594000000E+02  0.51100000000E-03 0.  1.
         11   -1    0    0    0    0 -0.00000000000E+00 -0.00000000000E+00 -0.45593999997E+02  0.45594000000E+02  0.51100000000E-03 0. -1.
    9900012    2    1    2    0    0 -0.21435120572E+02  0.66414682182E+00  0.23597037759E+02  0.59301863891E+02  0.49999853850E+02 0.  0.
         12    1    1    2    0    0  0.21435120572E+02 -0.66414682182E+00 -0.23597037759E+02  0.31886136109E+02  0.00000000000E+00 0. -1.
         11    1    3    3    0    0 -0.56360387705E+01  0.45118531801E+01 -0.25823918384E+01  0.76674963326E+01  0.51100000000E-03 0. -1.
        -11    1    3    3    0    0  0.12730194141E+01  0.10585552947E+02  0.27241376702E+02  0.29253497474E+02  0.51100000000E-03 0.  1.
        -12    1    3    3    0    0 -0.17072101216E+02 -0.14433259305E+02 -0.10619471039E+01  0.22380870084E+02  0.00000000000E+00 0.  1.
</event>
<event>
 7    1  0.4346085E-013  0.5930193E+02  0.7816164E-02  0.1266605E+00
        -11   -1    0    0    0    0  0.00000000000E+00  0.00000000000E+00  0.45593999997E+02  0.45594000000E+02  0.51100000000E-03 0. -1.
         11   -1    0    0    0    0 -0.00000000000E+00 -0.00000000000E+00 -0.45593999997E+02  0.45594000000E+02  0.51100000000E-03 0.  1.
    9900012    2    1    2    0    0  0.14332505090E+02  0.27362559921E+01 -0.28351608309E+02  0.59301929487E+02  0.49999973481E+02 0.  0.
         12    1    1    2    0    0 -0.14332505090E+02 -0.27362559921E+01  0.28351608309E+02  0.31886070513E+02  0.00000000000E+00 0. -1.
         11    1    3    3    0    0 -0.34720552625E+01  0.12299428148E+01 -0.31431408934E+02  0.31646506835E+02  0.51100000000E-03 0. -1.
        -11    1    3    3    0    0 -0.20760896191E+00 -0.73122588627E+01 -0.28154953922E+00  0.73206216649E+01  0.51100000000E-03 0.  1.
         12    1    3    3    0    0  0.18012169315E+02  0.88185720400E+01  0.33613501634E+01  0.20334800987E+02  0.00000000000E+00 0. -1.
</event>
<event>
 7    1  0.4346085E-013  0.5930194E+02  0.7816164E-02  0.1266605E+00
        -11   -1    0    0    0    0  0.00000000000E+00  0.00000000000E+00  0.45593999997E+02  0.45594000000E+02  0.51100000000E-03 0.  1.
         11   -1    0    0    0    0 -0.00000000000E+00 -0.00000000000E+00 -0.45593999997E+02  0.45594000000E+02  0.51100000000E-03 0. -1.
    9900012    2    1    2    0    0  0.55609937028E+01  0.23303131866E+02  0.21041869423E+02  0.59301939181E+02  0.49999991161E+02 0.  0.
         12    1    1    2    0    0 -0.55609937028E+01 -0.23303131866E+02 -0.21041869423E+02  0.31886060819E+02  0.00000000000E+00 0. -1.
         11    1    3    3    0    0 -0.76973344292E+01 -0.78649237386E+01 -0.10279849720E+01  0.11052725279E+02  0.51100000000E-03 0. -1.
        -11    1    3    3    0    0  0.35729393664E+01  0.20229566900E+02  0.25984250267E+02  0.33123745786E+02  0.51100000000E-03 0.  1.
        -12    1    3    3    0    0  0.96853887657E+01  0.10938488705E+02 -0.39143958719E+01  0.15125468116E+02  0.00000000000E+00 0.  1.
</event>
<event>
 7    1  0.4346085E-013  0.5930195E+02  0.7816164E-02  0.1266605E+00
        -11   -1    0    0    0    0  0.00000000000E+00  0.00000000000E+00  0.45593999997E+02  0.45594000000E+02  0.51100000000E-03 0.  1.
         11   -1    0    0    0    0 -0.00000000000E+00 -0.00000000000E+00 -0.45593999997E+02  0.45594000000E+02  0.51100000000E-03 0. -1.
    9900012    2    1    2    0    0 -0.80011673001E+01 -0.29246178469E+02  0.98672432995E+01  0.59301950958E+02  0.50000012639E+02 0.  0.
         12    1    1    2    0    0  0.80011673001E+01  0.29246178469E+02 -0.98672432995E+01  0.31886049042E+02  0.00000000000E+00 0. -1.
         11    1    3    3    0    0 -0.20754333705E+02 -0.17503269116E+02  0.10346894276E+02  0.29054518042E+02  0.51100000000E-03 0.  1.
        -11    1    3    3    0    0  0.17990911331E+02 -0.80365240683E+01 -0.71786738043E+01  0.20971217596E+02  0.51100000000E-03 0. -1.
         12    1    3    3    0    0 -0.52377449265E+01 -0.37063852849E+01  0.66990228280E+01  0.92762153190E+01  0.00000000000E+00 0. -1.
</event>
<event>
 7    1  0.4346085E-013  0.5930198E+02  0.7816164E-02  0.1266605E+00
        -11   -1    0    0    0    0  0.00000000000E+00  0.00000000000E+00  0.45593999997E+02  0.45594000000E+02  0.51100000000E-03 0.  1.
         11   -1    0    0    0    0 -0.00000000000E+00 -0.00000000000E+00 -0.45593999997E+02  0.45594000000E+02  0.51100000000E-03 0. -1.
    9900012    2    1    2    0    0  0.69295201840E+01 -0.30437547798E+02 -0.65004612003E+01  0.59301975447E+02  0.50000057302E+02 0.  0.
         12    1    1    2    0    0 -0.69295201840E+01  0.30437547798E+02  0.65004612003E+01  0.31886024553E+02  0.00000000000E+00 0. -1.
         11    1    3    3    0    0 -0.40753504527E+01 -0.31729599388E+02 -0.42056327704E+00  0.31993012242E+02  0.51100000000E-03 0. -1.
        -11    1    3    3    0    0  0.52641445659E+01  0.10949801930E+02  0.33917999498E+01  0.12614027409E+02  0.51100000000E-03 0.  1.
        -12    1    3    3    0    0  0.57407260708E+01 -0.96577503403E+01 -0.94716978730E+01  0.14694935796E+02  0.00000000000E+00 0.  1.
</event>
<event>
 7    1  0.4346085E-013  0.5930186E+02  0.7816164E-02  0.1266605E+00
        -11   -1    0    0    0    0  0.00000000000E+00  0.00000000000E+00  0.45593999997E+02  0.45594000000E+02  0.51100000000E-03 0.  1.
         11   -1    0    0    0    0 -0.00000000000E+00 -0.00000000000E+00 -0.45593999997E+02  0.45594000000E+02  0.51100000000E-03 0. -1.
    9900012    2    1    2    0    0 -0.56395397172E+01 -0.14387160378E+02  0.27891421143E+02  0.59301856217E+02  0.49999839854E+02 0.  0.
         12    1    1    2    0    0  0.56395397172E+01  0.14387160378E+02 -0.27891421143E+02  0.31886143783E+02  0.00000000000E+00 0. -1.
         11    1    3    3    0    0 -0.23485973874E+02 -0.20850704006E+02  0.15688545475E+02  0.35106598892E+02  0.51100000000E-03 0.  1.
        -11    1    3    3    0    0  0.13441148027E+02  0.12463519964E+01  0.10646011867E+02  0.17191725408E+02  0.51100000000E-03 0. -1.
        -12    1    3    3    0    0  0.44052861307E+01  0.52171916318E+01  0.15568638014E+01  0.70035319169E+01  0.00000000000E+00 0.  1.
</event>
<event>
 7    1  0.4346085E-013  0.5930198E+02  0.7816164E-02  0.1266605E+00
        -11   -1    0    0    0    0  0.00000000000E+00  0.00000000000E+00  0.45593999997E+02  0.45594000000E+02  0.51100000000E-03 0.  1.
         11   -1    0    0    0    0 -0.00000000000E+00 -0.00000000000E+00 -0.45593999997E+02  0.45594000000E+02  0.51100000000E-03 0. -1.
    9900012    2    1    2    0    0 -0.24386200229E+02 -0.98312732647E+01  0.18038220148E+02  0.59301982975E+02  0.50000071030E+02 0.  0.
         12    1    1    2    0    0  0.24386200229E+02  0.98312732647E+01 -0.18038220148E+02  0.31886017025E+02  0.00000000000E+00 0. -1.
         11    1    3    3    0    0  0.47550912045E+01  0.38359293321E+01 -0.83911065025E+01  0.10379591264E+02  0.51100000000E-03 0. -1.
        -11    1    3    3    0    0 -0.57899424312E+01  0.72418387102E+00  0.19883902613E+02  0.20722390283E+02  0.51100000000E-03 0.  1.
         12    1    3    3    0    0 -0.23351349003E+02 -0.14391386468E+02  0.65454240372E+01  0.28200001428E+02  0.00000000000E+00 0. -1.
</event>
<event>
 7    1  0.4346085E-013  0.5930196E+02  0.7816164E-02  0.1266605E+00
        -11   -1    0    0    0    0  0.00000000000E+00  0.00000000000E+00  0.45593999997E+02  0.45594000000E+02  0.51100000000E-03 0.  1.
         11   -1    0    0    0    0 -0.00000000000E+00 -0.00000000000E+00 -0.45593999997E+02  0.45594000000E+02  0.51100000000E-03 0. -1.
    9900012    2    1    2    0    0  0.12533009515E+02 -0.16884863883E+02  0.23969654537E+02  0.59301963958E+02  0.50000036347E+02 0.  0.
         12    1    1    2    0    0 -0.12533009515E+02  0.16884863883E+02 -0.23969654537E+02  0.31886036042E+02  0.00000000000E+00 0. -1.
         11    1    3    3    0    0  0.49472215345E+01  0.54335593192E+01 -0.38481193542E+01  0.82949738162E+01  0.51100000000E-03 0. -1.
        -11    1    3    3    0    0  0.29497204624E+00 -0.28273308571E+02  0.30124050528E+02  0.41314953788E+02  0.51100000000E-03 0.  1.
         12    1    3    3    0    0  0.72908159346E+01  0.59548853687E+01 -0.23062766366E+01  0.96920363532E+01  0.00000000000E+00 0. -1.
</event>
<event>
 7    1  0.4346085E-013  0.5930198E+02  0.7816164E-02  0.1266605E+00
        -11   -1    0    0    0    0  0.00000000000E+00  0.00000000000E+00  0.45593999997E+02  0.45594000000E+02  0.51100000000E-03 0. -1.
         11   -1    0    0    0    0 -0.00000000000E+00 -0.00000000000E+00 -0.45593999997E+02  0.45594000000E+02  0.51100000000E-03 0.  1.
    9900012    2    1    2    0    0  0.16007205425E+01 -0.62895198752E+01 -0.31218553005E+02  0.59301977698E+02  0.50000061406E+02 0.  0.
         12    1    1    2    0    0 -0.16007205425E+01  0.62895198752E+01  0.31218553005E+02  0.31886022302E+02  0.00000000000E+00 0. -1.
         11    1    3    3    0    0 -0.49250284114E+01  0.19849390477E+00  0.88955225958E+01  0.10169839094E+02  0.51100000000E-03 0. -1.
        -11    1    3    3    0    0 -0.54642706015E+00  0.18672005587E+01 -0.37917591837E+02  0.37967470174E+02  0.51100000000E-03 0.  1.
        -12    1    3    3    0    0  0.70721760140E+01 -0.83552143386E+01 -0.21964837641E+01  0.11164668430E+02  0.00000000000E+00 0.  1.
</event>
<event>
 7    1  0.4346085E-013  0.5930213E+02  0.7816164E-02  0.1266604E+00
        -11   -1    0    0    0    0  0.00000000000E+00  0.00000000000E+00  0.45593999997E+02  0.45594000000E+02  0.51100000000E-03 0. -1.
         11   -1    0    0    0    0 -0.00000000000E+00 -0.00000000000E+00 -0.45593999997E+02  0.45594000000E+02  0.51100000000E-03 0.  1.
    9900012    2    1    2    0    0  0.30040708189E+02  0.10014901528E+02  0.37371523166E+01  0.59302129955E+02  0.50000339085E+02 0.  0.
         12    1    1    2    0    0 -0.30040708189E+02 -0.10014901528E+02 -0.37371523166E+01  0.31885870045E+02  0.00000000000E+00 0. -1.
         11    1    3    3    0    0  0.27265806717E+02  0.11421992682E+02  0.15028008857E+02  0.33162134781E+02  0.51100000000E-03 0.  1.
        -11    1    3    3    0    0 -0.13182811292E+01 -0.67948331932E+01 -0.16308359673E+02  0.17716382779E+02  0.51100000000E-03 0. -1.
        -12    1    3    3    0    0  0.40931826014E+01  0.53877420396E+01  0.50175031333E+01  0.84236123954E+01  0.00000000000E+00 0.  1.
</event>
<event>
 7    1  0.4346085E-013  0.5930194E+02  0.7816164E-02  0.1266605E+00
        -11   -1    0    0    0    0  0.00000000000E+00  0.00000000000E+00  0.45593999997E+02  0.45594000000E+02  0.51100000000E-03 0. -1.
         11   -1    0    0    0    0 -0.00000000000E+00 -0.00000000000E+00 -0.45593999997E+02  0.45594000000E+02  0.51100000000E-03 0.  1.
    9900012    2    1    2    0    0 -0.81768815296E+01 -0.19888214807E+01 -0.30755550213E+02  0.59301942368E+02  0.49999996972E+02 0.  0.
         12    1    1    2    0    0  0.81768815296E+01  0.19888214807E+01  0.30755550213E+02  0.31886057632E+02  0.00000000000E+00 0. -1.
         11    1    3    3    0    0 -0.73247627393E+01  0.19813414421E+02 -0.12607067513E+02  0.24600034385E+02  0.51100000000E-03 0. -1.
        -11    1    3    3    0    0  0.79932177958E+01 -0.17457132545E+02 -0.14972396275E+02  0.24347806018E+02  0.51100000000E-03 0.  1.
        -12    1    3    3    0    0 -0.88453365861E+01 -0.43451033575E+01 -0.31760864254E+01  0.10354101964E+02  0.00000000000E+00 0.  1.
</event>
<event>
 7    1  0.4346085E-013  0.5930197E+02  0.7816164E-02  0.1266605E+00
        -11   -1    0    0    0    0  0.00000000000E+00  0.00000000000E+00  0.45593999997E+02  0.45594000000E+02  0.51100000000E-03 0. -1.
         11   -1    0    0    0    0 -0.00000000000E+00 -0.00000000000E+00 -0.45593999997E+02  0.45594000000E+02  0.51100000000E-03 0.  1.
    9900012    2    1    2    0    0 -0.18547058251E+02 -0.18654140373E+02 -0.18020783598E+02  0.59301969136E+02  0.50000045791E+02 0.  0.
         12    1    1    2    0    0  0.18547058251E+02  0.18654140373E+02  0.18020783598E+02  0.31886030864E+02  0.00000000000E+00 0. -1.
         11    1    3    3    0    0 -0.18622705443E+02  0.84420982585E+01 -0.15481891254E+02  0.25646893341E+02  0.51100000000E-03 0. -1.
        -11    1    3    3    0    0 -0.14919932431E+01 -0.22673322233E+02 -0.10012405990E+02  0.24830502590E+02  0.51100000000E-03 0.  1.
         12    1    3    3    0    0  0.15676404347E+01 -0.44229163990E+01  0.74735136468E+01  0.88245732041E+01  0.00000000000E+00 0. -1.
</event>
<event>
 7    1  0.4346085E-013  0.5930195E+02  0.7816164E-02  0.1266605E+00
        -11   -1    0    0    0    0  0.00000000000E+00  0.00000000000E+00  0.45593999997E+02  0.45594000000E+02  0.51100000000E-03 0. -1.
         11   -1    0    0    0    0 -0.00000000000E+00 -0.00000000000E+00 -0.45593999997E+02  0.45594000000E+02  0.51100000000E-03 0.  1.
    9900012    2    1    2    0    0 -0.24978954861E+01 -0.18128080899E+02 -0.26112323777E+02  0.59301948944E+02  0.50000008966E+02 0.  0.
         12    1    1    2    0    0  0.24978954861E+01  0.18128080899E+02  0.26112323777E+02  0.31886051056E+02  0.00000000000E+00 0. -1.
         11    1    3    3    0    0  0.12046005815E+02 -0.48103431744E+01 -0.25834089790E+02  0.28907539727E+02  0.51100000000E-03 0. -1.
        -11    1    3    3    0    0 -0.93262087236E+01 -0.54383729453E+01 -0.11466467445E+02  0.15749093478E+02  0.51100000000E-03 0.  1.
         12    1    3    3    0    0 -0.52176925774E+01 -0.78793647790E+01  0.11188233459E+02  0.14645315738E+02  0.00000000000E+00 0. -1.
</event>
<event>
 7    1  0.4346085E-013  0.5930190E+02  0.7816164E-02  0.1266605E+00
        -11   -1    0    0    0    0  0.00000000000E+00  0.00000000000E+00  0.45593999997E+02  0.45594000000E+02  0.51100000000E-03 0. -1.
         11   -1    0    0    0    0 -0.00000000000E+00 -0.00000000000E+00 -0.45593999997E+02  0.45594000000E+02  0.51100000000E-03 0.  1.
    9900012    2    1    2    0    0  0.19635114181E+02  0.23582803081E+02 -0.86624032097E+01  0.59301897394E+02  0.49999914951E+02 0.  0.
         12    1    1    2    0    0 -0.19635114181E+02 -0.23582803081E+02  0.86624032097E+01  0.31886102606E+02  0.00000000000E+00 0. -1.
         11    1    3    3    0    0  0.76256018065E+01  0.15450407110E+02  0.55515934657E+01  0.18102073722E+02  0.51100000000E-03 0. -1.
        -11    1    3    3    0    0 -0.29333590274E+01 -0.20192917373E+01 -0.21446940620E+02  0.21740593288E+02  0.51100000000E-03 0.  1.
        -12    1    3    3    0    0  0.14942871402E+02  0.10151687709E+02  0.72329439441E+01  0.19459230384E+02  0.00000000000E+00 0.  1.
</event>
<event>
 7    1  0.4346085E-013  0.5930193E+02  0.7816164E-02  0.1266605E+00
        -11   -1    0    0    0    0  0.00000000000E+00  0.00000000000E+00  0.45593999997E+02  0.45594000000E+02  0.51100000000E-03 0.  1.
         11   -1    0    0    0    0 -0.00000000000E+00 -0.00000000000E+00 -0.45593999997E+02  0.45594000000E+02  0.51100000000E-03 0. -1.
    9900012    2    1    2    0    0 -0.11139952945E+02 -0.22741462186E+02  0.19376494357E+02  0.59301934273E+02  0.49999982210E+02 0.  0.
         12    1    1    2    0    0  0.11139952945E+02  0.22741462186E+02 -0.19376494357E+02  0.31886065727E+02  0.00000000000E+00 0. -1.
         11    1    3    3    0    0 -0.14673503982E+02  0.12772326690E+02  0.41711730514E+01  0.19895796869E+02  0.51100000000E-03 0. -1.
        -11    1    3    3    0    0 -0.69543929430E+00 -0.25068590557E+02  0.10124056770E+02  0.27044674042E+02  0.51100000000E-03 0.  1.
         12    1    3    3    0    0  0.42289903311E+01 -0.10445198320E+02  0.50812645359E+01  0.12361463362E+02  0.00000000000E+00 0. -1.
</event>
<event>
 7    1  0.4346085E-013  0.5930196E+02  0.7816164E-02  0.1266605E+00
        -11   -1    0    0    0    0  0.00000000000E+00  0.00000000000E+00  0.45593999997E+02  0.45594000000E+02  0.51100000000E-03 0.  1.
         11   -1    0    0    0    0 -0.00000000000E+00 -0.00000000000E+00 -0.45593999997E+02  0.45594000000E+02  0.51100000000E-03 0. -1.
    9900012    2    1    2    0    0 -0.27922966735E+02  0.11369689650E+02  0.10380648017E+02  0.59301956544E+02  0.50000022827E+02 0.  0.
         12    1    1    2    0    0  0.27922966735E+02 -0.11369689650E+02 -0.10380648017E+02  0.31886043456E+02  0.00000000000E+00 0. -1.
         11    1    3    3    0    0 -0.20978736859E+02 -0.10891662833E+02  0.24897605875E+01  0.23768353487E+02  0.51100000000E-03 0. -1.
        -11    1    3    3    0    0  0.65155166960E+01 -0.20383405937E+01  0.87379402363E+00  0.68826089856E+01  0.51100000000E-03 0.  1.
         12    1    3    3    0    0 -0.13459746572E+02  0.24299693077E+02  0.70170934057E+01  0.28650994071E+02  0.00000000000E+00 0. -1.
</event>
<event>
 7    1  0.4346085E-013  0.5930192E+02  0.7816164E-02  0.1266605E+00
        -11   -1    0    0    0    0  0.00000000000E+00  0.00000000000E+00  0.45593999997E+02  0.45594000000E+02  0.51100000000E-03 0.  1.
         11   -1    0    0    0    0 -0.00000000000E+00 -0.00000000000E+00 -0.45593999997E+02  0.45594000000E+02  0.51100000000E-03 0. -1.
    9900012    2    1    2    0    0  0.26670298108E+02  0.16650439558E+02  0.53084824638E+01  0.59301922714E+02  0.49999961128E+02 0.  0.
         12    1    1    2    0    0 -0.26670298108E+02 -0.16650439558E+02 -0.53084824638E+01  0.31886077286E+02  0.00000000000E+00 0. -1.
         11    1    3    3    0    0 -0.95239488255E+01 -0.92363830108E+01 -0.26214230848E+00  0.13269705769E+02  0.51100000000E-03 0. -1.
        -11    1    3    3    0    0  0.18226922737E+02  0.11994298498E+02  0.78904555365E+01  0.23202223983E+02  0.51100000000E-03 0.  1.
         12    1    3    3    0    0  0.17967324197E+02  0.13892524070E+02 -0.23198307641E+01  0.22829992961E+02  0.00000000000E+00 0. -1.
</event>
<event>
 7    1  0.4346085E-013  0.5930207E+02  0.7816164E-02  0.1266604E+00
        -11   -1    0    0    0    0  0.00000000000E+00  0.00000000000E+00  0.45593999997E+02  0.45594000000E+02  0.51100000000E-03 0.  1.
         11   -1    0    0    0    0 -0.00000000000E+00 -0.00000000000E+00 -0.45593999997E+02  0.45594000000E+02  0.51100000000E-03 0. -1.
    9900012    2    1    2    0    0 -0.28899613121E+02  0.29966038005E+01  0.13135656772E+02  0.59302066554E+02  0.50000223459E+02 0.  0.
         12    1    1    2    0    0  0.28899613121E+02 -0.29966038005E+01 -0.13135656772E+02  0.31885933446E+02  0.00000000000E+00 0. -1.
         11    1    3    3    0    0  0.27200196726E+00  0.13258468574E+02 -0.42178260672E+01  0.13915855381E+02  0.51100000000E-03 0. -1.
        -11    1    3    3    0    0 -0.25339167186E+02 -0.18522227341E+02  0.18130131970E+02  0.36247041050E+02  0.51100000000E-03 0.  1.
        -12    1    3    3    0    0 -0.38324479024E+01  0.82603625680E+01 -0.77664913109E+00  0.91391701238E+01  0.00000000000E+00 0.  1.
</event>
<event>
 7    1  0.4346085E-013  0.5930207E+02  0.7816164E-02  0.1266604E+00
        -11   -1    0    0    0    0  0.00000000000E+00  0.00000000000E+00  0.45593999997E+02  0.45594000000E+02  0.51100000000E-03 0. -1.
         11   -1    0    0    0    0 -0.00000000000E+00 -0.00000000000E+00 -0.45593999997E+02  0.45594000000E+02  0.51100000000E-03 0.  1.
    9900012    2    1    2    0    0  0.28699940357E+02  0.24447778823E+01 -0.13676577528E+02  0.59302073822E+02  0.50000236713E+02 0.  0.
         12    1    1    2    0    0 -0.28699940357E+02 -0.24447778823E+01  0.13676577528E+02  0.31885926178E+02  0.00000000000E+00 0. -1.
         11    1    3    3    0    0  0.31668501482E+01 -0.16978963597E+02  0.23720742608E+01  0.17433900346E+02  0.51100000000E-03 0. -1.
        -11    1    3    3    0    0  0.59746829573E+01  0.46680169294E+01 -0.15621390532E+02  0.17364189037E+02  0.51100000000E-03 0.  1.
         12    1    3    3    0    0  0.19558407251E+02  0.14755724550E+02 -0.42726125674E+00  0.24503984439E+02  0.00000000000E+00 0. -1.
</event>
<event>
 7    1  0.4346085E-013  0.5930198E+02  0.7816164E-02  0.1266605E+00
        -11   -1    0    0    0    0  0.00000000000E+00  0.00000000000E+00  0.45593999997E+02  0.45594000000E+02  0.51100000000E-03 0.  1.
         11   -1    0    0    0    0 -0.00000000000E+00 -0.00000000000E+00 -0.45593999997E+02  0.45594000000E+02  0.51100000000E-03 0. -1.
    9900012    2    1    2    0    0  0.76775359102E+01  0.14747372739E+02  0.27208250407E+02  0.59301977191E+02  0.50000060482E+02 0.  0.
         12    1    1    2    0    0 -0.76775359102E+01 -0.14747372739E+02 -0.27208250407E+02  0.31886022809E+02  0.00000000000E+00 0. -1.
         11    1    3    3    0    0 -0.77645529774E+01 -0.93684351535E+01  0.96610857674E+01  0.15536809152E+02  0.51100000000E-03 0. -1.
        -11    1    3    3    0    0  0.23282346267E+02  0.18547192879E+02  0.95604164531E+01  0.31264477837E+02  0.51100000000E-03 0.  1.
        -12    1    3    3    0    0 -0.78402573794E+01  0.55686150137E+01  0.79867481864E+01  0.12500690203E+02  0.00000000000E+00 0.  1.
</event>
<event>
 7    1  0.4346085E-013  0.5930195E+02  0.7816164E-02  0.1266605E+00
        -11   -1    0    0    0    0  0.00000000000E+00  0.00000000000E+00  0.45593999997E+02  0.45594000000E+02  0.51100000000E-03 0. -1.
         11   -1    0    0    0    0 -0.00000000000E+00 -0.00000000000E+00 -0.45593999997E+02  0.45594000000E+02  0.51100000000E-03 0.  1.
    9900012    2    1    2    0    0 -0.14514009722E+02 -0.21003547426E+02 -0.19102732985E+02  0.59301954617E+02  0.50000019312E+02 0.  0.
         12    1    1    2    0    0  0.14514009722E+02  0.21003547426E+02  0.19102732985E+02  0.31886045383E+02  0.00000000000E+00 0. -1.
         11    1    3    3    0    0 -0.10525391049E+02 -0.17320721869E+02 -0.10185913036E+02  0.22683564258E+02  0.51100000000E-03 0.  1.
        -11    1    3    3    0    0 -0.15088699345E+02  0.96935459041E+01 -0.25879434065E+01  0.18119909808E+02  0.51100000000E-03 0. -1.
        -12    1    3    3    0    0  0.11100080672E+02 -0.13376371461E+02 -0.63288765424E+01  0.18498480551E+02  0.00000000000E+00 0.  1.
</event>
<event>
 7    1  0.4346085E-013  0.5930194E+02  0.7816164E-02  0.1266605E+00
        -11   -1    0    0    0    0  0.00000000000E+00  0.00000000000E+00  0.45593999997E+02  0.45594000000E+02  0.51100000000E-03 0.  1.
         11   -1    0    0    0    0 -0.00000000000E+00 -0.00000000000E+00 -0.45593999997E+02  0.45594000000E+02  0.51100000000E-03 0. -1.
    9900012    2    1    2    0    0 -0.12048627394E+02 -0.29405481552E+02  0.26209035019E+01  0.59301938742E+02  0.49999990360E+02 0.  0.
         12    1    1    2    0    0  0.12048627394E+02  0.29405481552E+02 -0.26209035019E+01  0.31886061258E+02  0.00000000000E+00 0. -1.
         11    1    3    3    0    0 -0.14627269129E+01 -0.12561340527E+02  0.16295369143E+02  0.20626824808E+02  0.51100000000E-03 0.  1.
        -11    1    3    3    0    0  0.55471623411E+00  0.29354823212E+01 -0.15608315213E+02  0.15891641533E+02  0.51100000000E-03 0. -1.
         12    1    3    3    0    0 -0.11140616715E+02 -0.19779623346E+02  0.19338495717E+01  0.22783472401E+02  0.00000000000E+00 0. -1.
</event>
<event>
 7    1  0.4346085E-013  0.5930187E+02  0.7816164E-02  0.1266605E+00
        -11   -1    0    0    0    0  0.00000000000E+00  0.00000000000E+00  0.45593999997E+02  0.45594000000E+02  0.51100000000E-03 0.  1.
         11   -1    0    0    0    0 -0.00000000000E+00 -0.00000000000E+00 -0.45593999997E+02  0.45594000000E+02  0.51100000000E-03 0. -1.
    9900012    2    1    2    0    0  0.24219971908E+02  0.16190383453E+02  0.12961091882E+02  0.59301867303E+02  0.49999860073E+02 0.  0.
         12    1    1    2    0    0 -0.24219971908E+02 -0.16190383453E+02 -0.12961091882E+02  0.31886132697E+02  0.00000000000E+00 0. -1.
         11    1    3    3    0    0  0.28879178606E+02 -0.85857128352E+01  0.14503422588E+02  0.33437564039E+02  0.51100000000E-03 0. -1.
        -11    1    3    3    0    0 -0.56739167104E+01  0.19198553898E+02 -0.22740685202E+01  0.20148180823E+02  0.51100000000E-03 0.  1.
         12    1    3    3    0    0  0.10147100124E+01  0.55775423907E+01  0.73173781370E+00  0.57161224407E+01  0.00000000000E+00 0. -1.
</event>
<event>
 7    1  0.4346085E-013  0.5930194E+02  0.7816164E-02  0.1266605E+00
        -11   -1    0    0    0    0  0.00000000000E+00  0.00000000000E+00  0.45593999997E+02  0.45594000000E+02  0.51100000000E-03 0. -1.
         11   -1    0    0    0    0 -0.00000000000E+00 -0.00000000000E+00 -0.45593999997E+02  0.45594000000E+02  0.51100000000E-03 0.  1.
    9900012    2    1    2    0    0  0.16181040121E+02  0.16276094672E+02 -0.22135571467E+02  0.59301939702E+02  0.49999992110E+02 0.  0.
         12    1    1    2    0    0 -0.16181040121E+02 -0.16276094672E+02  0.22135571467E+02  0.31886060298E+02  0.00000000000E+00 0. -1.
         11    1    3    3    0    0  0.67589100805E+01  0.18024237221E+02  0.10650419968E+02  0.21999714512E+02  0.51100000000E-03 0. -1.
        -11    1    3    3    0    0  0.66368515965E+01 -0.80577704582E+01 -0.15464866450E+02  0.18658444695E+02  0.51100000000E-03 0.  1.
         12    1    3    3    0    0  0.27852784442E+01  0.63096279093E+01 -0.17321124985E+02  0.18643780494E+02  0.00000000000E+00 0. -1.
</event>
<event>
 7    1  0.4346085E-013  0.5930195E+02  0.7816164E-02  0.1266605E+00
        -11   -1    0    0    0    0  0.00000000000E+00  0.00000000000E+00  0.45593999997E+02  0.45594000000E+02  0.51100000000E-03 0. -1.
         11   -1    0    0    0    0 -0.00000000000E+00 -0.00000000000E+00 -0.45593999997E+02  0.45594000000E+02  0.51100000000E-03 0.  1.
    9900012    2    1    2    0    0  0.23412150347E+02 -0.15463243847E+02 -0.15148587272E+02  0.59301946772E+02  0.50000005004E+02 0.  0.
         12    1    1    2    0    0 -0.23412150347E+02  0.15463243847E+02  0.15148587272E+02  0.31886053228E+02  0.00000000000E+00 0. -1.
         11    1    3    3    0    0  0.60798583538E+01 -0.18145598165E+02 -0.65632998836E+01  0.20231270746E+02  0.51100000000E-03 0. -1.
        -11    1    3    3    0    0 -0.45471666927E+01  0.10941957066E+02  0.40083956937E+01  0.12508812320E+02  0.51100000000E-03 0.  1.
        -12    1    3    3    0    0  0.21879458686E+02 -0.82596027477E+01 -0.12593683082E+02  0.26561863705E+02  0.00000000000E+00 0.  1.
</event>
<event>
 7    1  0.4346085E-013  0.5930195E+02  0.7816164E-02  0.1266605E+00
        -11   -1    0    0    0    0  0.00000000000E+00  0.00000000000E+00  0.45593999997E+02  0.45594000000E+02  0.51100000000E-03 0. -1.
         11   -1    0    0    0    0 -0.00000000000E+00 -0.00000000000E+00 -0.45593999997E+02  0.45594000000E+02  0.51100000000E-03 0.  1.
    9900012    2    1    2    0    0  0.21830098493E+02 -0.94846668778E+01 -0.21218107629E+02  0.59301949800E+02  0.50000010528E+02 0.  0.
         12    1    1    2    0    0 -0.21830098493E+02  0.94846668778E+01  0.21218107629E+02  0.31886050200E+02  0.00000000000E+00 0. -1.
         11    1    3    3    0    0  0.29814892529E+02 -0.86674253857E+01  0.46951292168E+01  0.31402170593E+02  0.51100000000E-03 0. -1.
        -11    1    3    3    0    0 -0.55324595564E+01  0.81006804471E+00 -0.23307734207E+02  0.23969038218E+02  0.51100000000E-03 0.  1.
         12    1    3    3    0    0 -0.24523344792E+01 -0.16273095368E+01 -0.26055026388E+01  0.39307409896E+01  0.00000000000E+00 0. -1.
</event>
<event>
 7    1  0.4346085E-013  0.5930191E+02  0.7816164E-02  0.1266605E+00
        -11   -1    0    0    0    0  0.00000000000E+00  0.00000000000E+00  0.45593999997E+02  0.45594000000E+02  0.51100000000E-03 0.  1.
         11   -1    0    0    0    0 -0.00000000000E+00 -0.00000000000E+00 -0.45593999997E+02  0.45594000000E+02  0.51100000000E-03 0. -1.
    9900012    2    1    2    0    0 -0.20466738362E+02  0.17851370562E+02  0.16708200820E+02  0.59301909227E+02  0.49999936533E+02 0.  0.
         12    1    1    2    0    0  0.20466738362E+02 -0.17851370562E+02 -0.16708200820E+02  0.31886090773E+02  0.00000000000E+00 0. -1.
         11    1    3    3    0    0 -0.19618165245E+02 -0.46356297278E+01  0.49296529095E+01  0.20752420308E+02  0.51100000000E-03 0. -1.
        -11    1    3    3    0    0 -0.73985890545E+01  0.15228537869E+02  0.19693198023E+02  0.25970551289E+02  0.51100000000E-03 0.  1.
         12    1    3    3    0    0  0.65500159376E+01  0.72584624209E+01 -0.79146501130E+01  0.12578937630E+02  0.00000000000E+00 0. -1.
</event>
<event>
 7    1  0.4346085E-013  0.5930190E+02  0.7816164E-02  0.1266605E+00
        -11   -1    0    0    0    0  0.00000000000E+00  0.00000000000E+00  0.45593999997E+02  0.45594000000E+02  0.51100000000E-03 0. -1.
         11   -1    0    0    0    0 -0.00000000000E+00 -0.00000000000E+00 -0.45593999997E+02  0.45594000000E+02  0.51100000000E-03 0.  1.
    9900012    2    1    2    0    0 -0.10945400645E+02 -0.10805917380E+02 -0.27931231683E+02  0.59301900379E+02  0.49999920395E+02 0.  0.
         12    1    1    2    0    0  0.10945400645E+02  0.10805917380E+02  0.27931231683E+02  0.31886099621E+02  0.00000000000E+00 0. -1.
         11    1    3    3    0    0 -0.15596318861E+02  0.13439766791E+01  0.75033306766E+01  0.17359475995E+02  0.51100000000E-03 0. -1.
        -11    1    3    3    0    0 -0.24391222596E+01 -0.15784491298E+01 -0.25839309821E+02  0.26002129746E+02  0.51100000000E-03 0.  1.
         12    1    3    3    0    0  0.70900404755E+01 -0.10571444929E+02 -0.95952525393E+01  0.15940294637E+02  0.00000000000E+00 0. -1.
</event>
<event>
 7    1  0.4346085E-013  0.5930193E+02  0.7816164E-02  0.1266605E+00
        -11   -1    0    0    0    0  0.00000000000E+00  0.00000000000E+00  0.45593999997E+02  0.45594000000E+02  0.51100000000E-03 0.  1.
         11   -1    0    0    0    0 -0.00000000000E+00 -0.00000000000E+00 -0.45593999997E+02  0.45594000000E+02  0.51100000000E-03 0. -1.
    9900012    2    1    2    0    0  0.31495255204E+02 -0.31733968551E+01  0.38340059533E+01  0.59301934867E+02  0.49999983294E+02 0.  0.
         12    1    1    2    0    0 -0.31495255204E+02  0.31733968551E+01 -0.38340059533E+01  0.31886065133E+02  0.00000000000E+00 0. -1.
         11    1    3    3    0    0 -0.34443963436E+01 -0.13110188417E+01 -0.56061217509E+01  0.67090415055E+01  0.51100000000E-03 0. -1.
        -11    1    3    3    0    0  0.14619371405E+02 -0.95326230491E+01  0.21545645787E+02  0.27727455259E+02  0.51100000000E-03 0.  1.
        -12    1    3    3    0    0  0.20320280143E+02  0.76702450358E+01 -0.12105518083E+02  0.24865438103E+02  0.00000000000E+00 0.  1.
</event>
<event>
 7    1  0.4346085E-013  0.5930200E+02  0.7816164E-02  0.1266605E+00
        -11   -1    0    0    0    0  0.00000000000E+00  0.00000000000E+00  0.45593999997E+02  0.45594000000E+02  0.51100000000E-03 0. -1.
         11   -1    0    0    0    0 -0.00000000000E+00 -0.00000000000E+00 -0.45593999997E+02  0.45594000000E+02  0.51100000000E-03 0.  1.
    9900012    2    1    2    0    0  0.82342058990E+01 -0.23268307111E+02 -0.20186654000E+02  0.59301995824E+02  0.50000094463E+02 0.  0.
         12    1    1    2    0    0 -0.82342058990E+01  0.23268307111E+02  0.20186654000E+02  0.31886004176E+02  0.00000000000E+00 0. -1.
         11    1    3    3    0    0  0.18995450775E+02  0.59935372862E+01 -0.58537039993E+01  0.20760912555E+02  0.51100000000E-03 0. -1.
        -11    1    3    3    0    0 -0.53911535806E+01 -0.27966979087E+02 -0.16129979750E+02  0.32732135635E+02  0.51100000000E-03 0.  1.
         12    1    3    3    0    0 -0.53700912955E+01 -0.12948653101E+01  0.17970297493E+01  0.58089476339E+01  0.00000000000E+00 0. -1.
</event>
<event>
 7    1  0.4346085E-013  0.5930195E+02  0.7816164E-02  0.1266605E+00
        -11   -1    0    0    0    0  0.00000000000E+00  0.00000000000E+00  0.45593999997E+02  0.45594000000E+02  0.51100000000E-03 0. -1.
         11   -1    0    0    0    0 -0.00000000000E+00 -0.00000000000E+00 -0.45593999997E+02  0.45594000000E+02  0.51100000000E-03 0.  1.
    9900012    2    1    2    0    0 -0.13555197990E+02 -0.21732933928E+02 -0.18990961474E+02  0.59301946193E+02  0.50000003949E+02 0.  0.
         12    1    1    2    0    0  0.13555197990E+02  0.21732933928E+02  0.18990961474E+02  0.31886053807E+02  0.00000000000E+00 0. -1.
         11    1    3    3    0    0 -0.74257878569E+01  0.11066578965E+02  0.33031262614E+01  0.13730336436E+02  0.51100000000E-03 0. -1.
        -11    1    3    3    0    0  0.80444150168E+01 -0.10990484790E+02 -0.60305034532E+01  0.14895312721E+02  0.51100000000E-03 0.  1.
         12    1    3    3    0    0 -0.14173825150E+02 -0.21809028102E+02 -0.16263584283E+02  0.30676297036E+02  0.00000000000E+00 0. -1.
</event>
<event>
 7    1  0.4346085E-013  0.5930195E+02  0.7816164E-02  0.1266605E+00
        -11   -1    0    0    0    0  0.00000000000E+00  0.00000000000E+00  0.45593999997E+02  0.45594000000E+02  0.51100000000E-03 0.  1.
         11   -1    0    0    0    0 -0.00000000000E+00 -0.00000000000E+00 -0.45593999997E+02  0.45594000000E+02  0.51100000000E-03 0. -1.
    9900012    2    1    2    0    0  0.39493799301E+01 -0.18665614776E+02  0.25548336948E+02  0.59301948228E+02  0.50000007661E+02 0.  0.
         12    1    1    2    0    0 -0.39493799301E+01  0.18665614776E+02 -0.25548336948E+02  0.31886051772E+02  0.00000000000E+00 0. -1.
         11    1    3    3    0    0  0.87440704552E+01 -0.27133631685E+02  0.97096024272E+01  0.30115927947E+02  0.51100000000E-03 0. -1.
        -11    1    3    3    0    0 -0.11556647484E+02  0.11962947329E+02  0.87958105856E+01  0.18815804367E+02  0.51100000000E-03 0.  1.
        -12    1    3    3    0    0  0.67619569589E+01 -0.34949304197E+01  0.70429239348E+01  0.10370215914E+02  0.00000000000E+00 0.  1.
</event>
<event>
 7    1  0.4346085E-013  0.5930195E+02  0.7816164E-02  0.1266605E+00
        -11   -1    0    0    0    0  0.00000000000E+00  0.00000000000E+00  0.45593999997E+02  0.45594000000E+02  0.51100000000E-03 0.  1.
         11   -1    0    0    0    0 -0.00000000000E+00 -0.00000000000E+00 -0.45593999997E+02  0.45594000000E+02  0.51100000000E-03 0. -1.
    9900012    2    1    2    0    0  0.30396084483E+00  0.25212946475E+02  0.19517560885E+02  0.59301949052E+02  0.50000009163E+02 0.  0.
         12    1    1    2    0    0 -0.30396084483E+00 -0.25212946475E+02 -0.19517560885E+02  0.31886050948E+02  0.00000000000E+00 0. -1.
         11    1    3    3    0    0 -0.17582290686E+02 -0.17758038462E+01  0.15283278673E+02  0.23363840273E+02  0.51100000000E-03 0. -1.
        -11    1    3    3    0    0  0.44867605183E+01  0.15274517097E+02  0.78911500515E+01  0.17768290348E+02  0.51100000000E-03 0.  1.
         12    1    3    3    0    0  0.13399491012E+02  0.11714233224E+02 -0.36568678390E+01  0.18169818431E+02  0.00000000000E+00 0. -1.
</event>
<event>
 7    1  0.4346085E-013  0.5930197E+02  0.7816164E-02  0.1266605E+00
        -11   -1    0    0    0    0  0.00000000000E+00  0.00000000000E+00  0.45593999997E+02  0.45594000000E+02  0.51100000000E-03 0.  1.
         11   -1    0    0    0    0 -0.00000000000E+00 -0.00000000000E+00 -0.45593999997E+02  0.45594000000E+02  0.51100000000E-03 0. -1.
    9900012    2    1    2    0    0 -0.13403954289E+02 -0.28861959168E+02  0.20099723892E+01  0.59301973804E+02  0.50000054304E+02 0.  0.
         12    1    1    2    0    0  0.13403954289E+02  0.28861959168E+02 -0.20099723892E+01  0.31886026196E+02  0.00000000000E+00 0. -1.
         11    1    3    3    0    0  0.63499088540E+01 -0.13843566563E+01 -0.14524485425E+02  0.15912211126E+02  0.51100000000E-03 0. -1.
        -11    1    3    3    0    0 -0.16044714966E+02 -0.31041676782E+02  0.14954462990E+02  0.38008611384E+02  0.51100000000E-03 0.  1.
         12    1    3    3    0    0 -0.37091481770E+01  0.35640742702E+01  0.15799948241E+01  0.53811512938E+01  0.00000000000E+00 0. -1.
</event>
<event>
 7    1  0.4346085E-013  0.5930191E+02  0.7816164E-02  0.1266605E+00
        -11   -1    0    0    0    0  0.00000000000E+00  0.00000000000E+00  0.45593999997E+02  0.45594000000E+02  0.51100000000E-03 0. -1.
         11   -1    0    0    0    0 -0.00000000000E+00 -0.00000000000E+00 -0.45593999997E+02  0.45594000000E+02  0.51100000000E-03 0.  1.
    9900012    2    1    2    0    0  0.23763833638E+02 -0.20922035152E+02  0.37777115153E+01  0.59301914503E+02  0.49999946153E+02 0.  0.
         12    1    1    2    0    0 -0.23763833638E+02  0.20922035152E+02 -0.37777115153E+01  0.31886085497E+02  0.00000000000E+00 0. -1.
         11    1    3    3    0    0  0.18220255193E+02 -0.10037932449E+02  0.22429843525E+02  0.30591431283E+02  0.51100000000E-03 0. -1.
        -11    1    3    3    0    0  0.30603879003E+01 -0.14080791917E+02 -0.63265021544E+01  0.15737194949E+02  0.51100000000E-03 0.  1.
         12    1    3    3    0    0  0.24831905441E+01  0.31966892145E+01 -0.12325629855E+02  0.12973288270E+02  0.00000000000E+00 0. -1.
</event>
<event>
 7    1  0.4346085E-013  0.5930195E+02  0.7816164E-02  0.1266605E+00
        -11   -1    0    0    0    0  0.00000000000E+00  0.00000000000E+00  0.45593999997E+02  0.45594000000E+02  0.51100000000E-03 0. -1.
         11   -1    0    0    0    0 -0.00000000000E+00 -0.00000000000E+00 -0.45593999997E+02  0.45594000000E+02  0.51100000000E-03 0.  1.
    9900012    2    1    2    0    0 -0.56968819929E+01 -0.25871948584E+01 -0.31266154048E+02  0.59301946142E+02  0.50000003855E+02 0.  0.
         12    1    1    2    0    0  0.56968819929E+01  0.25871948584E+01  0.31266154048E+02  0.31886053858E+02  0.00000000000E+00 0. -1.
         11    1    3    3    0    0  0.17202122532E+01  0.66186676070E+01 -0.21666473627E+01  0.71735801483E+01  0.51100000000E-03 0. -1.
        -11    1    3    3    0    0  0.41745147198E+01 -0.17781371553E+02 -0.32530087771E+02  0.37306974658E+02  0.51100000000E-03 0.  1.
        -12    1    3    3    0    0 -0.11591608966E+02  0.85755090877E+01  0.34305810858E+01  0.14821391335E+02  0.00000000000E+00 0.  1.
</event>
<event>
 7    1  0.4346085E-013  0.5930195E+02  0.7816164E-02  0.1266605E+00
        -11   -1    0    0    0    0  0.00000000000E+00  0.00000000000E+00  0.45593999997E+02  0.45594000000E+02  0.51100000000E-03 0. -1.
         11   -1    0    0    0    0 -0.00000000000E+00 -0.00000000000E+00 -0.45593999997E+02  0.45594000000E+02  0.51100000000E-03 0.  1.
    9900012    2    1    2    0    0  0.37181165780E+01  0.30465980174E+02  0.86440615867E+01  0.59301950707E+02  0.50000012181E+02 0.  0.
         12    1    1    2    0    0 -0.37181165780E+01 -0.30465980174E+02 -0.86440615867E+01  0.31886049293E+02  0.00000000000E+00 0. -1.
         11    1    3    3    0    0  0.12036161024E+02  0.20628588147E+02 -0.71486171141E+01  0.24930113278E+02  0.51100000000E-03 0.  1.
        -11    1    3    3    0    0 -0.10052287540E+02  0.50514533267E+00  0.21185503093E+02  0.23454833152E+02  0.51100000000E-03 0. -1.
         12    1    3    3    0    0  0.17342430943E+01  0.93322466935E+01 -0.53928243927E+01  0.10917004277E+02  0.00000000000E+00 0. -1.
</event>
<event>
 7    1  0.4346085E-013  0.5930194E+02  0.7816164E-02  0.1266605E+00
        -11   -1    0    0    0    0  0.00000000000E+00  0.00000000000E+00  0.45593999997E+02  0.45594000000E+02  0.51100000000E-03 0.  1.
         11   -1    0    0    0    0 -0.00000000000E+00 -0.00000000000E+00 -0.45593999997E+02  0.45594000000E+02  0.51100000000E-03 0. -1.
    9900012    2    1    2    0    0 -0.95391308870E+01 -0.95361023107E+01  0.28892703492E+02  0.59301943793E+02  0.49999999571E+02 0.  0.
         12    1    1    2    0    0  0.95391308870E+01  0.95361023107E+01 -0.28892703492E+02  0.31886056207E+02  0.00000000000E+00 0. -1.
         11    1    3    3    0    0  0.33848070335E+01 -0.71446209890E+01  0.92176270281E+00  0.79594079222E+01  0.51100000000E-03 0. -1.
        -11    1    3    3    0    0 -0.23791676709E+02 -0.12574488019E+02  0.11876064462E+02  0.29414325370E+02  0.51100000000E-03 0.  1.
        -12    1    3    3    0    0  0.10867738788E+02  0.10183006698E+02  0.16094876327E+02  0.21928210501E+02  0.00000000000E+00 0.  1.
</event>
<event>
 7    1  0.4346085E-013  0.5930195E+02  0.7816164E-02  0.1266605E+00
        -11   -1    0    0    0    0  0.00000000000E+00  0.00000000000E+00  0.45593999997E+02  0.45594000000E+02  0.51100000000E-03 0. -1.
         11   -1    0    0    0    0 -0.00000000000E+00 -0.00000000000E+00 -0.45593999997E+02  0.45594000000E+02  0.51100000000E-03 0.  1.
    9900012    2    1    2    0    0  0.16064184085E+02 -0.13934178404E+02 -0.23759228710E+02  0.59301948395E+02  0.50000007964E+02 0.  0.
         12    1    1    2    0    0 -0.16064184085E+02  0.13934178404E+02  0.23759228710E+02  0.31886051605E+02  0.00000000000E+00 0. -1.
         11    1    3    3    0    0  0.22927357701E+02 -0.16825162000E+02 -0.61741100416E+01  0.29101021332E+02  0.51100000000E-03 0. -1.
        -11    1    3    3    0    0  0.77723379066E+00  0.84463789822E+00 -0.21392011964E+02  0.21422784172E+02  0.51100000000E-03 0.  1.
        -12    1    3    3    0    0 -0.76404074061E+01  0.20463456985E+01  0.38068932962E+01  0.87781428911E+01  0.00000000000E+00 0.  1.
</event>
<event>
 7    1  0.4346085E-013  0.5930192E+02  0.7816164E-02  0.1266605E+00
        -11   -1    0    0    0    0  0.00000000000E+00  0.00000000000E+00  0.45593999997E+02  0.45594000000E+02  0.51100000000E-03 0. -1.
         11   -1    0    0    0    0 -0.00000000000E+00 -0.00000000000E+00 -0.45593999997E+02  0.45594000000E+02  0.51100000000E-03 0.  1.
    9900012    2    1    2    0    0 -0.27520043420E+02  0.15541871368E+02  0.42213215003E+01  0.59301919797E+02  0.49999955810E+02 0.  0.
         12    1    1    2    0    0  0.27520043420E+02 -0.15541871368E+02 -0.42213215003E+01  0.31886080203E+02  0.00000000000E+00 0. -1.
         11    1    3    3    0    0 -0.55587064166E+01  0.32164555709E+01  0.14584375369E+02  0.15935771354E+02  0.51100000000E-03 0. -1.
        -11    1    3    3    0    0 -0.13611906669E+02 -0.97970913987E+01 -0.10374471366E+02  0.19720462962E+02  0.51100000000E-03 0.  1.
        -12    1    3    3    0    0 -0.83494303341E+01  0.22122507196E+02  0.11417497619E-01  0.23645685482E+02  0.00000000000E+00 0.  1.
</event>
<event>
 7    1  0.4346085E-013  0.5930175E+02  0.7816164E-02  0.1266605E+00
        -11   -1    0    0    0    0  0.00000000000E+00  0.00000000000E+00  0.45593999997E+02  0.45594000000E+02  0.51100000000E-03 0.  1.
         11   -1    0    0    0    0 -0.00000000000E+00 -0.00000000000E+00 -0.45593999997E+02  0.45594000000E+02  0.51100000000E-03 0. -1.
    9900012    2    1    2    0    0 -0.64406944667E+01  0.17202274768E+02  0.26064005804E+02  0.59301745894E+02  0.49999638649E+02 0.  0.
         12    1    1    2    0    0  0.64406944667E+01 -0.17202274768E+02 -0.26064005804E+02  0.31886254106E+02  0.00000000000E+00 0. -1.
         11    1    3    3    0    0 -0.67779473002E+01  0.16297253115E+02 -0.17003951162E+01  0.17732241046E+02  0.51100000000E-03 0. -1.
        -11    1    3    3    0    0  0.76465530375E+01 -0.10398686631E+02  0.24540262885E+02  0.27727729076E+02  0.51100000000E-03 0.  1.
        -12    1    3    3    0    0 -0.73093002040E+01  0.11303708284E+02  0.32241380353E+01  0.13841775771E+02  0.00000000000E+00 0.  1.
</event>
<event>
 7    1  0.4346085E-013  0.5930206E+02  0.7816164E-02  0.1266604E+00
        -11   -1    0    0    0    0  0.00000000000E+00  0.00000000000E+00  0.45593999997E+02  0.45594000000E+02  0.51100000000E-03 0.  1.
         11   -1    0    0    0    0 -0.00000000000E+00 -0.00000000000E+00 -0.45593999997E+02  0.45594000000E+02  0.51100000000E-03 0. -1.
    9900012    2    1    2    0    0 -0.80305946076E+01 -0.86344211597E+01  0.29625492458E+02  0.59302055105E+02  0.50000202577E+02 0.  0.
         12    1    1    2    0    0  0.80305946076E+01  0.86344211597E+01 -0.29625492458E+02  0.31885944895E+02  0.00000000000E+00 0. -1.
         11    1    3    3    0    0  0.15968544660E+02 -0.65389428939E+01  0.89071145655E+01  0.19418776555E+02  0.51100000000E-03 0. -1.
        -11    1    3    3    0    0 -0.27270720738E+02 -0.55148578574E+00  0.22937883329E+02  0.35639063372E+02  0.51100000000E-03 0.  1.
        -12    1    3    3    0    0  0.32715814697E+01 -0.15439924800E+01 -0.22195054371E+01  0.42442151779E+01  0.00000000000E+00 0.  1.
</event>
<event>
 7    1  0.4346085E-013  0.5930195E+02  0.7816164E-02  0.1266605E+00
        -11   -1    0    0    0    0  0.00000000000E+00  0.00000000000E+00  0.45593999997E+02  0.45594000000E+02  0.51100000000E-03 0.  1.
         11   -1    0    0    0    0 -0.00000000000E+00 -0.00000000000E+00 -0.45593999997E+02  0.45594000000E+02  0.51100000000E-03 0. -1.
    9900012    2    1    2    0    0 -0.91595720658E+01  0.25691642518E+02  0.16515504870E+02  0.59301950436E+02  0.50000011687E+02 0.  0.
         12    1    1    2    0    0  0.91595720658E+01 -0.25691642518E+02 -0.16515504870E+02  0.31886049564E+02  0.00000000000E+00 0. -1.
         11    1    3    3    0    0  0.12877803718E+02 -0.29955164431E+01 -0.38706306597E+01  0.13776528203E+02  0.51100000000E-03 0. -1.
        -11    1    3    3    0    0 -0.17561397920E+02  0.10820458851E+02  0.42992969171E+01  0.21070571442E+02  0.51100000000E-03 0.  1.
         12    1    3    3    0    0 -0.44759778637E+01  0.17866700110E+02  0.16086838613E+02  0.24454850791E+02  0.00000000000E+00 0. -1.
</event>
<event>
 7    1  0.4346085E-013  0.5930195E+02  0.7816164E-02  0.1266605E+00
        -11   -1    0    0    0    0  0.00000000000E+00  0.00000000000E+00  0.45593999997E+02  0.45594000000E+02  0.51100000000E-03 0.  1.
         11   -1    0    0    0    0 -0.00000000000E+00 -0.00000000000E+00 -0.45593999997E+02  0.45594000000E+02  0.51100000000E-03 0. -1.
    9900012    2    1    2    0    0 -0.25069635877E+02  0.18568003958E+02  0.65926392582E+01  0.59301948090E+02  0.50000007409E+02 0.  0.
         12    1    1    2    0    0  0.25069635877E+02 -0.18568003958E+02 -0.65926392582E+01  0.31886051910E+02  0.00000000000E+00 0. -1.
         11    1    3    3    0    0 -0.50608188981E+01  0.49620019005E+01 -0.13232255773E+02  0.15010860864E+02  0.51100000000E-03 0. -1.
        -11    1    3    3    0    0 -0.19320809271E+02  0.60761571592E+01  0.27077233224E+02  0.33814049092E+02  0.51100000000E-03 0.  1.
        -12    1    3    3    0    0 -0.68800770791E+00  0.75298448982E+01 -0.72523381930E+01  0.10477038134E+02  0.00000000000E+00 0.  1.
</event>
<event>
 7    1  0.4346085E-013  0.5930194E+02  0.7816164E-02  0.1266605E+00
        -11   -1    0    0    0    0  0.00000000000E+00  0.00000000000E+00  0.45593999997E+02  0.45594000000E+02  0.51100000000E-03 0.  1.
         11   -1    0    0    0    0 -0.00000000000E+00 -0.00000000000E+00 -0.45593999997E+02  0.45594000000E+02  0.51100000000E-03 0. -1.
    9900012    2    1    2    0    0 -0.10600314316E+02  0.28570805109E+02 -0.93841888792E+01  0.59301943971E+02  0.49999999896E+02 0.  0.
         12    1    1    2    0    0  0.10600314316E+02 -0.28570805109E+02  0.93841888792E+01  0.31886056029E+02  0.00000000000E+00 0. -1.
         11    1    3    3    0    0 -0.58929190985E+01 -0.86147899447E+01 -0.15842832213E+02  0.18971990778E+02  0.51100000000E-03 0. -1.
        -11    1    3    3    0    0 -0.35542681603E+01  0.27802741554E+02 -0.13602543678E+01  0.28061994802E+02  0.51100000000E-03 0.  1.
         12    1    3    3    0    0 -0.11531270574E+01  0.93828534997E+01  0.78188977016E+01  0.12267958391E+02  0.00000000000E+00 0. -1.
</event>
<event>
 7    1  0.4346085E-013  0.5930193E+02  0.7816164E-02  0.1266605E+00
        -11   -1    0    0    0    0  0.00000000000E+00  0.00000000000E+00  0.45593999997E+02  0.45594000000E+02  0.51100000000E-03 0. -1.
         11   -1    0    0    0    0 -0.00000000000E+00 -0.00000000000E+00 -0.45593999997E+02  0.45594000000E+02  0.51100000000E-03 0.  1.
    9900012    2    1    2    0    0 -0.12469266404E+02  0.29168831638E+02  0.32277303050E+01  0.59301928014E+02  0.49999970795E+02 0.  0.
         12    1    1    2    0    0  0.12469266404E+02 -0.29168831638E+02 -0.32277303050E+01  0.31886071986E+02  0.00000000000E+00 0. -1.
         11    1    3    3    0    0 -0.17529343792E+02  0.77995782971E+01  0.21829232997E+02  0.29062462540E+02  0.51100000000E-03 0. -1.
        -11    1    3    3    0    0  0.75993442349E+01  0.14753895450E+02 -0.11385483014E+02  0.20126020160E+02  0.51100000000E-03 0.  1.
         12    1    3    3    0    0 -0.25392668466E+01  0.66153578903E+01 -0.72160196775E+01  0.10113445314E+02  0.00000000000E+00 0. -1.
</event>
<event>
 7    1  0.4346085E-013  0.5930194E+02  0.7816164E-02  0.1266605E+00
        -11   -1    0    0    0    0  0.00000000000E+00  0.00000000000E+00  0.45593999997E+02  0.45594000000E+02  0.51100000000E-03 0.  1.
         11   -1    0    0    0    0 -0.00000000000E+00 -0.00000000000E+00 -0.45593999997E+02  0.45594000000E+02  0.51100000000E-03 0. -1.
    9900012    2    1    2    0    0 -0.17310439674E+02  0.12885304256E+02  0.23474204457E+02  0.59301942508E+02  0.49999997229E+02 0.  0.
         12    1    1    2    0    0  0.17310439674E+02 -0.12885304256E+02 -0.23474204457E+02  0.31886057492E+02  0.00000000000E+00 0. -1.
         11    1    3    3    0    0 -0.15790612465E+02  0.21536792755E+02 -0.85859758793E+00  0.26719170539E+02  0.51100000000E-03 0. -1.
        -11    1    3    3    0    0  0.60582925910E+01 -0.36271719835E+01  0.22127401083E+02  0.23226733836E+02  0.51100000000E-03 0.  1.
        -12    1    3    3    0    0 -0.75781198001E+01 -0.50243165163E+01  0.22054009616E+01  0.93560381339E+01  0.00000000000E+00 0.  1.
</event>
<event>
 7    1  0.4346085E-013  0.5930195E+02  0.7816164E-02  0.1266605E+00
        -11   -1    0    0    0    0  0.00000000000E+00  0.00000000000E+00  0.45593999997E+02  0.45594000000E+02  0.51100000000E-03 0.  1.
         11   -1    0    0    0    0 -0.00000000000E+00 -0.00000000000E+00 -0.45593999997E+02  0.45594000000E+02  0.51100000000E-03 0. -1.
    9900012    2    1    2    0    0  0.29887599562E+02  0.30875793708E+01  0.10673264608E+02  0.59301947699E+02  0.50000006696E+02 0.  0.
         12    1    1    2    0    0 -0.29887599562E+02 -0.30875793708E+01 -0.10673264608E+02  0.31886052301E+02  0.00000000000E+00 0. -1.
         11    1    3    3    0    0  0.27887145606E+01 -0.86527155780E+00 -0.73820124571E+01  0.79384968317E+01  0.51100000000E-03 0. -1.
        -11    1    3    3    0    0  0.30224152325E+02  0.16104495109E+01  0.27655590827E+02  0.40999080912E+02  0.51100000000E-03 0.  1.
        -12    1    3    3    0    0 -0.31252673239E+01  0.23424014176E+01 -0.96003137621E+01  0.10364369956E+02  0.00000000000E+00 0.  1.
</event>
<event>
 7    1  0.4346085E-013  0.5930194E+02  0.7816164E-02  0.1266605E+00
        -11   -1    0    0    0    0  0.00000000000E+00  0.00000000000E+00  0.45593999997E+02  0.45594000000E+02  0.51100000000E-03 0. -1.
         11   -1    0    0    0    0 -0.00000000000E+00 -0.00000000000E+00 -0.45593999997E+02  0.45594000000E+02  0.51100000000E-03 0.  1.
    9900012    2    1    2    0    0  0.40696753398E+01  0.26417601520E+02  0.17385879097E+02  0.59301941613E+02  0.49999995597E+02 0.  0.
         12    1    1    2    0    0 -0.40696753398E+01 -0.26417601520E+02 -0.17385879097E+02  0.31886058387E+02  0.00000000000E+00 0. -1.
         11    1    3    3    0    0  0.94977295613E+01 -0.66105456612E+00  0.44614253866E+01  0.10514189303E+02  0.51100000000E-03 0. -1.
        -11    1    3    3    0    0 -0.93417645536E+01  0.34031552147E+02  0.17708954684E+02  0.39484454951E+02  0.51100000000E-03 0.  1.
        -12    1    3    3    0    0  0.39137103321E+01 -0.69528960605E+01 -0.47845009733E+01  0.93032973593E+01  0.00000000000E+00 0.  1.
</event>
<event>
 7    1  0.4346085E-013  0.5930196E+02  0.7816164E-02  0.1266605E+00
        -11   -1    0    0    0    0  0.00000000000E+00  0.00000000000E+00  0.45593999997E+02  0.45594000000E+02  0.51100000000E-03 0.  1.
         11   -1    0    0    0    0 -0.00000000000E+00 -0.00000000000E+00 -0.45593999997E+02  0.45594000000E+02  0.51100000000E-03 0. -1.
    9900012    2    1    2    0    0  0.30633087464E+02 -0.88505160840E+01 -0.41676221444E-01  0.59301961998E+02  0.50000032774E+02 0.  0.
         12    1    1    2    0    0 -0.30633087464E+02  0.88505160840E+01  0.41676221444E-01  0.31886038002E+02  0.00000000000E+00 0. -1.
         11    1    3    3    0    0  0.25512212394E+02  0.18170268208E+01  0.17925314809E+02  0.31232858963E+02  0.51100000000E-03 0.  1.
        -11    1    3    3    0    0 -0.22295229203E+01  0.42317867400E+01 -0.55568307210E+01  0.73319273993E+01  0.51100000000E-03 0. -1.
         12    1    3    3    0    0  0.73503979900E+01 -0.14899329645E+02 -0.12410160309E+02  0.20737175636E+02  0.00000000000E+00 0. -1.
</event>
<event>
 7    1  0.4346085E-013  0.5930194E+02  0.7816164E-02  0.1266605E+00
        -11   -1    0    0    0    0  0.00000000000E+00  0.00000000000E+00  0.45593999997E+02  0.45594000000E+02  0.51100000000E-03 0. -1.
         11   -1    0    0    0    0 -0.00000000000E+00 -0.00000000000E+00 -0.45593999997E+02  0.45594000000E+02  0.51100000000E-03 0.  1.
    9900012    2    1    2    0    0 -0.26016333081E+02 -0.25346372859E+01 -0.18260535494E+02  0.59301935180E+02  0.49999983865E+02 0.  0.
         12    1    1    2    0    0  0.26016333081E+02  0.25346372859E+01  0.18260535494E+02  0.31886064820E+02  0.00000000000E+00 0. -1.
         11    1    3    3    0    0  0.58839172988E+01 -0.71992007592E+01  0.93042771324E+00  0.93442319289E+01  0.51100000000E-03 0. -1.
        -11    1    3    3    0    0 -0.15324450795E+02  0.12461755996E+02 -0.23937654190E+02  0.31034584629E+02  0.51100000000E-03 0.  1.
        -12    1    3    3    0    0 -0.16575799585E+02 -0.77971925231E+01  0.47466909832E+01  0.18923118623E+02  0.00000000000E+00 0.  1.
</event>
<event>
 7    1  0.4346085E-013  0.5930195E+02  0.7816164E-02  0.1266605E+00
        -11   -1    0    0    0    0  0.00000000000E+00  0.00000000000E+00  0.45593999997E+02  0.45594000000E+02  0.51100000000E-03 0.  1.
         11   -1    0    0    0    0 -0.00000000000E+00 -0.00000000000E+00 -0.45593999997E+02  0.45594000000E+02  0.51100000000E-03 0. -1.
    9900012    2    1    2    0    0 -0.15900576460E+02  0.18434082389E+02 -0.20593123309E+02  0.59301945793E+02  0.50000003219E+02 0.  0.
         12    1    1    2    0    0  0.15900576460E+02 -0.18434082389E+02  0.20593123309E+02  0.31886054207E+02  0.00000000000E+00 0. -1.
         11    1    3    3    0    0  0.51443022130E+01  0.44824540982E+01 -0.14836146556E+02  0.16329956671E+02  0.51100000000E-03 0. -1.
        -11    1    3    3    0    0 -0.92059537685E+01  0.86014722531E+01  0.14310396411E+02  0.19066262229E+02  0.51100000000E-03 0.  1.
        -12    1    3    3    0    0 -0.11838924904E+02  0.53501560381E+01 -0.20067373164E+02  0.23905726892E+02  0.00000000000E+00 0.  1.
</event>
<event>
 7    1  0.4346085E-013  0.5930190E+02  0.7816164E-02  0.1266605E+00
        -11   -1    0    0    0    0  0.00000000000E+00  0.00000000000E+00  0.45593999997E+02  0.45594000000E+02  0.51100000000E-03 0.  1.
         11   -1    0    0    0    0 -0.00000000000E+00 -0.00000000000E+00 -0.45593999997E+02  0.45594000000E+02  0.51100000000E-03 0. -1.
    9900012    2    1    2    0    0  0.63081227561E+01 -0.17400092943E+02  0.25964744573E+02  0.59301896321E+02  0.49999912994E+02 0.  0.
         12    1    1    2    0    0 -0.63081227561E+01  0.17400092943E+02 -0.25964744573E+02  0.31886103679E+02  0.00000000000E+00 0. -1.
         11    1    3    3    0    0  0.13802333467E+01 -0.35133883165E+01 -0.14388696675E+02  0.14875601965E+02  0.51100000000E-03 0. -1.
        -11    1    3    3    0    0  0.43906171351E+01 -0.15133988204E+02  0.29112986844E+02  0.33104095230E+02  0.51100000000E-03 0.  1.
        -12    1    3    3    0    0  0.53727227433E+00  0.12472835779E+01  0.11240454404E+02  0.11322199125E+02  0.00000000000E+00 0.  1.
</event>
<event>
 7    1  0.4346085E-013  0.5930195E+02  0.7816164E-02  0.1266605E+00
        -11   -1    0    0    0    0  0.00000000000E+00  0.00000000000E+00  0.45593999997E+02  0.45594000000E+02  0.51100000000E-03 0.  1.
         11   -1    0    0    0    0 -0.00000000000E+00 -0.00000000000E+00 -0.45593999997E+02  0.45594000000E+02  0.51100000000E-03 0. -1.
    9900012    2    1    2    0    0  0.95497311029E+01  0.11067945031E+02  0.28337662302E+02  0.59301954838E+02  0.50000019715E+02 0.  0.
         12    1    1    2    0    0 -0.95497311029E+01 -0.11067945031E+02 -0.28337662302E+02  0.31886045162E+02  0.00000000000E+00 0. -1.
         11    1    3    3    0    0  0.98555426134E+01 -0.73999114867E+01  0.19100896781E+02  0.22731798616E+02  0.51100000000E-03 0.  1.
        -11    1    3    3    0    0 -0.13534193106E+02  0.17095265519E+02  0.79514381766E+01  0.23208788326E+02  0.51100000000E-03 0. -1.
         12    1    3    3    0    0  0.13228381595E+02  0.13725909984E+01  0.12853273442E+01  0.13361367896E+02  0.00000000000E+00 0. -1.
</event>
<event>
 7    1  0.4346085E-013  0.5930186E+02  0.7816164E-02  0.1266605E+00
        -11   -1    0    0    0    0  0.00000000000E+00  0.00000000000E+00  0.45593999997E+02  0.45594000000E+02  0.51100000000E-03 0.  1.
         11   -1    0    0    0    0 -0.00000000000E+00 -0.00000000000E+00 -0.45593999997E+02  0.45594000000E+02  0.51100000000E-03 0. -1.
    9900012    2    1    2    0    0  0.30909641771E+02 -0.57037150331E+01 -0.53654063092E+01  0.59301860308E+02  0.49999847314E+02 0.  0.
         12    1    1    2    0    0 -0.30909641771E+02  0.57037150331E+01  0.53654063092E+01  0.31886139692E+02  0.00000000000E+00 0. -1.
         11    1    3    3    0    0 -0.82279269557E+01 -0.89110103549E+01  0.54394198292E+01  0.13292560922E+02  0.51100000000E-03 0. -1.
        -11    1    3    3    0    0  0.17474214965E+02  0.88696733159E+01  0.28205325927E+01  0.19798350885E+02  0.51100000000E-03 0.  1.
         12    1    3    3    0    0  0.21663353762E+02 -0.56623779941E+01 -0.13625358731E+02  0.26210948501E+02  0.00000000000E+00 0. -1.
</event>
<event>
 7    1  0.4346085E-013  0.5930193E+02  0.7816164E-02  0.1266605E+00
        -11   -1    0    0    0    0  0.00000000000E+00  0.00000000000E+00  0.45593999997E+02  0.45594000000E+02  0.51100000000E-03 0.  1.
         11   -1    0    0    0    0 -0.00000000000E+00 -0.00000000000E+00 -0.45593999997E+02  0.45594000000E+02  0.51100000000E-03 0. -1.
    9900012    2    1    2    0    0 -0.30468120559E+02  0.12713615728E+01  0.93165992655E+01  0.59301925414E+02  0.49999966053E+02 0.  0.
         12    1    1    2    0    0  0.30468120559E+02 -0.12713615728E+01 -0.93165992655E+01  0.31886074586E+02  0.00000000000E+00 0. -1.
         11    1    3    3    0    0 -0.30594539531E+02 -0.16598956914E+02  0.11617875418E+01  0.34826727815E+02  0.51100000000E-03 0.  1.
        -11    1    3    3    0    0  0.68086098085E+00  0.10808476811E+02 -0.30211933945E+01  0.11243413736E+02  0.51100000000E-03 0. -1.
        -12    1    3    3    0    0 -0.55444200806E+00  0.70618416757E+01  0.11176005118E+02  0.13231783863E+02  0.00000000000E+00 0.  1.
</event>
<event>
 7    1  0.4346085E-013  0.5930195E+02  0.7816164E-02  0.1266605E+00
        -11   -1    0    0    0    0  0.00000000000E+00  0.00000000000E+00  0.45593999997E+02  0.45594000000E+02  0.51100000000E-03 0.  1.
         11   -1    0    0    0    0 -0.00000000000E+00 -0.00000000000E+00 -0.45593999997E+02  0.45594000000E+02  0.51100000000E-03 0. -1.
    9900012    2    1    2    0    0  0.86845561845E+01  0.20873582015E+01  0.30609503613E+02  0.59301948319E+02  0.50000007825E+02 0.  0.
         12    1    1    2    0    0 -0.86845561845E+01 -0.20873582015E+01 -0.30609503613E+02  0.31886051681E+02  0.00000000000E+00 0. -1.
         11    1    3    3    0    0  0.87309464192E+00 -0.18026703770E+02  0.18359244007E+02  0.25744634078E+02  0.51100000000E-03 0. -1.
        -11    1    3    3    0    0  0.85886945629E+01  0.21227796813E+02  0.17062432157E+02  0.28557164131E+02  0.51100000000E-03 0.  1.
         12    1    3    3    0    0 -0.77723302037E+00 -0.11137348412E+01 -0.48121725504E+01  0.50001501097E+01  0.00000000000E+00 0. -1.
</event>
<event>
 7    1  0.4346085E-013  0.5930193E+02  0.7816164E-02  0.1266605E+00
        -11   -1    0    0    0    0  0.00000000000E+00  0.00000000000E+00  0.45593999997E+02  0.45594000000E+02  0.51100000000E-03 0.  1.
         11   -1    0    0    0    0 -0.00000000000E+00 -0.00000000000E+00 -0.45593999997E+02  0.45594000000E+02  0.51100000000E-03 0. -1.
    9900012    2    1    2    0    0 -0.29181337837E+02 -0.12054990647E+02 -0.44551302204E+01  0.59301929958E+02  0.49999974340E+02 0.  0.
         12    1    1    2    0    0  0.29181337837E+02  0.12054990647E+02  0.44551302204E+01  0.31886070042E+02  0.00000000000E+00 0. -1.
         11    1    3    3    0    0 -0.85894895083E+01  0.12819496059E+02 -0.12759879949E+02  0.20023320050E+02  0.51100000000E-03 0. -1.
        -11    1    3    3    0    0 -0.97478165197E+01 -0.82314935354E+01 -0.66753142847E+01  0.14399209485E+02  0.51100000000E-03 0.  1.
         12    1    3    3    0    0 -0.10844031809E+02 -0.16642993171E+02  0.14980064014E+02  0.24879400423E+02  0.00000000000E+00 0. -1.
</event>
<event>
 7    1  0.4346085E-013  0.5930196E+02  0.7816164E-02  0.1266605E+00
        -11   -1    0    0    0    0  0.00000000000E+00  0.00000000000E+00  0.45593999997E+02  0.45594000000E+02  0.51100000000E-03 0. -1.
         11   -1    0    0    0    0 -0.00000000000E+00 -0.00000000000E+00 -0.45593999997E+02  0.45594000000E+02  0.51100000000E-03 0.  1.
    9900012    2    1    2    0    0 -0.26522401579E+02 -0.10684565266E+02 -0.14111055532E+02  0.59301959031E+02  0.50000027362E+02 0.  0.
         12    1    1    2    0    0  0.26522401579E+02  0.10684565266E+02  0.14111055532E+02  0.31886040969E+02  0.00000000000E+00 0. -1.
         11    1    3    3    0    0 -0.37401693190E+01 -0.25391487100E+00  0.64253972674E+01  0.74390234306E+01  0.51100000000E-03 0. -1.
        -11    1    3    3    0    0 -0.27017909689E+02  0.55880537024E+01 -0.21917937538E+02  0.35236199771E+02  0.51100000000E-03 0.  1.
        -12    1    3    3    0    0  0.42356774289E+01 -0.16018704098E+02  0.13814847384E+01  0.16626735829E+02  0.00000000000E+00 0.  1.
</event>
<event>
 7    1  0.4346085E-013  0.5930195E+02  0.7816164E-02  0.1266605E+00
        -11   -1    0    0    0    0  0.00000000000E+00  0.00000000000E+00  0.45593999997E+02  0.45594000000E+02  0.51100000000E-03 0. -1.
         11   -1    0    0    0    0 -0.00000000000E+00 -0.00000000000E+00 -0.45593999997E+02  0.45594000000E+02  0.51100000000E-03 0.  1.
    9900012    2    1    2    0    0  0.29350473356E+02  0.12101718297E+02  0.29696015263E+01  0.59301946541E+02  0.50000004584E+02 0.  0.
         12    1    1    2    0    0 -0.29350473356E+02 -0.12101718297E+02 -0.29696015263E+01  0.31886053459E+02  0.00000000000E+00 0. -1.
         11    1    3    3    0    0  0.27219340895E+02 -0.91240025291E+01 -0.13437015763E+02  0.31696897857E+02  0.51100000000E-03 0. -1.
        -11    1    3    3    0    0  0.42072769862E+01  0.16690919612E+02  0.12728663854E+02  0.21408102692E+02  0.51100000000E-03 0.  1.
         12    1    3    3    0    0 -0.20761445252E+01  0.45348012148E+01  0.36779534354E+01  0.61969459914E+01  0.00000000000E+00 0. -1.
</event>
<event>
 7    1  0.4346085E-013  0.5930193E+02  0.7816164E-02  0.1266605E+00
        -11   -1    0    0    0    0  0.00000000000E+00  0.00000000000E+00  0.45593999997E+02  0.45594000000E+02  0.51100000000E-03 0.  1.
         11   -1    0    0    0    0 -0.00000000000E+00 -0.00000000000E+00 -0.45593999997E+02  0.45594000000E+02  0.51100000000E-03 0. -1.
    9900012    2    1    2    0    0 -0.28096449757E+02  0.63595663142E+01  0.13669923401E+02  0.59301931279E+02  0.49999976750E+02 0.  0.
         12    1    1    2    0    0  0.28096449757E+02 -0.63595663142E+01 -0.13669923401E+02  0.31886068721E+02  0.00000000000E+00 0. -1.
         11    1    3    3    0    0 -0.79391476540E+01  0.69784285886E+01 -0.16764190263E+02  0.19818340154E+02  0.51100000000E-03 0. -1.
        -11    1    3    3    0    0 -0.16110552728E+02 -0.62149023024E+01  0.16268342352E+02  0.23724120278E+02  0.51100000000E-03 0.  1.
         12    1    3    3    0    0 -0.40467493744E+01  0.55960400280E+01  0.14165771313E+02  0.15759470847E+02  0.00000000000E+00 0. -1.
</event>
<event>
 7    1  0.4346085E-013  0.5930193E+02  0.7816164E-02  0.1266605E+00
        -11   -1    0    0    0    0  0.00000000000E+00  0.00000000000E+00  0.45593999997E+02  0.45594000000E+02  0.51100000000E-03 0. -1.
         11   -1    0    0    0    0 -0.00000000000E+00 -0.00000000000E+00 -0.45593999997E+02  0.45594000000E+02  0.51100000000E-03 0.  1.
    9900012    2    1    2    0    0 -0.11843276717E+02 -0.27279929325E+02 -0.11500592246E+02  0.59301931422E+02  0.49999977010E+02 0.  0.
         12    1    1    2    0    0  0.11843276717E+02  0.27279929325E+02  0.11500592246E+02  0.31886068578E+02  0.00000000000E+00 0. -1.
         11    1    3    3    0    0  0.33568030976E+01  0.62394501780E+01  0.78265270310E+01  0.10557148819E+02  0.51100000000E-03 0. -1.
        -11    1    3    3    0    0 -0.11247940210E+02 -0.34861478094E+02 -0.91669493142E+01  0.37760717338E+02  0.51100000000E-03 0.  1.
        -12    1    3    3    0    0 -0.39521396041E+01  0.13420985910E+01 -0.10160169963E+02  0.10984065265E+02  0.00000000000E+00 0.  1.
</event>
<event>
 7    1  0.4346085E-013  0.5930199E+02  0.7816164E-02  0.1266605E+00
        -11   -1    0    0    0    0  0.00000000000E+00  0.00000000000E+00  0.45593999997E+02  0.45594000000E+02  0.51100000000E-03 0. -1.
         11   -1    0    0    0    0 -0.00000000000E+00 -0.00000000000E+00 -0.45593999997E+02  0.45594000000E+02  0.51100000000E-03 0.  1.
    9900012    2    1    2    0    0 -0.25328735774E+02  0.10486869683E+02 -0.16284914564E+02  0.59301988428E+02  0.50000080975E+02 0.  0.
         12    1    1    2    0    0  0.25328735774E+02 -0.10486869683E+02  0.16284914564E+02  0.31886011572E+02  0.00000000000E+00 0. -1.
         11    1    3    3    0    0 -0.18172829976E+02  0.40183825090E+01 -0.27774897854E+02  0.33434175605E+02  0.51100000000E-03 0. -1.
        -11    1    3    3    0    0  0.11085835034E+01 -0.66941976133E+01  0.44327361357E+00  0.67998331470E+01  0.51100000000E-03 0.  1.
         12    1    3    3    0    0 -0.82644893017E+01  0.13162684787E+02  0.11046709677E+02  0.19067979676E+02  0.00000000000E+00 0. -1.
</event>
<event>
 7    1  0.4346085E-013  0.5930193E+02  0.7816164E-02  0.1266605E+00
        -11   -1    0    0    0    0  0.00000000000E+00  0.00000000000E+00  0.45593999997E+02  0.45594000000E+02  0.51100000000E-03 0. -1.
         11   -1    0    0    0    0 -0.00000000000E+00 -0.00000000000E+00 -0.45593999997E+02  0.45594000000E+02  0.51100000000E-03 0.  1.
    9900012    2    1    2    0    0 -0.22030905046E+02  0.14755123488E+02 -0.17710080613E+02  0.59301930916E+02  0.49999976088E+02 0.  0.
         12    1    1    2    0    0  0.22030905046E+02 -0.14755123488E+02  0.17710080613E+02  0.31886069084E+02  0.00000000000E+00 0. -1.
         11    1    3    3    0    0  0.18505827047E+01  0.15693710435E+01 -0.24248554993E+02  0.24369653287E+02  0.51100000000E-03 0.  1.
        -11    1    3    3    0    0 -0.19241797948E+02  0.55431476019E+01  0.13023831549E+02  0.23887098235E+02  0.51100000000E-03 0. -1.
         12    1    3    3    0    0 -0.46396898018E+01  0.76426048427E+01 -0.64853571692E+01  0.11045179394E+02  0.00000000000E+00 0. -1.
</event>
<event>
 7    1  0.4346085E-013  0.5930195E+02  0.7816164E-02  0.1266605E+00
        -11   -1    0    0    0    0  0.00000000000E+00  0.00000000000E+00  0.45593999997E+02  0.45594000000E+02  0.51100000000E-03 0.  1.
         11   -1    0    0    0    0 -0.00000000000E+00 -0.00000000000E+00 -0.45593999997E+02  0.45594000000E+02  0.51100000000E-03 0. -1.
    9900012    2    1    2    0    0  0.21477754349E+02 -0.19434332585E+02  0.13331662267E+02  0.59301946094E+02  0.50000003768E+02 0.  0.
         12    1    1    2    0    0 -0.21477754349E+02  0.19434332585E+02 -0.13331662267E+02  0.31886053906E+02  0.00000000000E+00 0. -1.
         11    1    3    3    0    0  0.12472056962E+01 -0.39183368598E+01 -0.60770563944E+01  0.73375404923E+01  0.51100000000E-03 0. -1.
        -11    1    3    3    0    0  0.29864668518E+00 -0.10837728893E+02  0.27798940042E+02  0.29838341528E+02  0.51100000000E-03 0.  1.
        -12    1    3    3    0    0  0.19931901967E+02 -0.46782668323E+01 -0.83902213802E+01  0.22126064074E+02  0.00000000000E+00 0.  1.
</event>
<event>
 7    1  0.4346085E-013  0.5930196E+02  0.7816164E-02  0.1266605E+00
        -11   -1    0    0    0    0  0.00000000000E+00  0.00000000000E+00  0.45593999997E+02  0.45594000000E+02  0.51100000000E-03 0. -1.
         11   -1    0    0    0    0 -0.00000000000E+00 -0.00000000000E+00 -0.45593999997E+02  0.45594000000E+02  0.51100000000E-03 0.  1.
    9900012    2    1    2    0    0 -0.37285164985E+01  0.24958460711E+02 -0.19490847115E+02  0.59301957323E+02  0.50000024248E+02 0.  0.
         12    1    1    2    0    0  0.37285164985E+01 -0.24958460711E+02  0.19490847115E+02  0.31886042677E+02  0.00000000000E+00 0. -1.
         11    1    3    3    0    0 -0.32419455995E+01 -0.77344528604E+01  0.23535864639E+01  0.87104157090E+01  0.51100000000E-03 0. -1.
        -11    1    3    3    0    0  0.66772753163E+01  0.22438723245E+02  0.21731274153E+01  0.23511801070E+02  0.51100000000E-03 0.  1.
        -12    1    3    3    0    0 -0.71638462153E+01  0.10254190326E+02 -0.24017560994E+02  0.27079740545E+02  0.00000000000E+00 0.  1.
</event>
<event>
 7    1  0.4346085E-013  0.5930190E+02  0.7816164E-02  0.1266605E+00
        -11   -1    0    0    0    0  0.00000000000E+00  0.00000000000E+00  0.45593999997E+02  0.45594000000E+02  0.51100000000E-03 0. -1.
         11   -1    0    0    0    0 -0.00000000000E+00 -0.00000000000E+00 -0.45593999997E+02  0.45594000000E+02  0.51100000000E-03 0.  1.
    9900012    2    1    2    0    0 -0.17876873500E+02  0.18862400602E+02 -0.18475676027E+02  0.59301900094E+02  0.49999919875E+02 0.  0.
         12    1    1    2    0    0  0.17876873500E+02 -0.18862400602E+02  0.18475676027E+02  0.31886099906E+02  0.00000000000E+00 0. -1.
         11    1    3    3    0    0 -0.24815857601E+02  0.23634661930E+02 -0.91634586046E+01  0.35473835525E+02  0.51100000000E-03 0. -1.
        -11    1    3    3    0    0 -0.58210490445E+01 -0.24090512313E+01 -0.88236890655E+01  0.10841846190E+02  0.51100000000E-03 0.  1.
         12    1    3    3    0    0  0.12760033145E+02 -0.23632100967E+01 -0.48852835653E+00  0.12986218379E+02  0.00000000000E+00 0. -1.
</event>
<event>
 7    1  0.4346085E-013  0.5930195E+02  0.7816164E-02  0.1266605E+00
        -11   -1    0    0    0    0  0.00000000000E+00  0.00000000000E+00  0.45593999997E+02  0.45594000000E+02  0.51100000000E-03 0.  1.
         11   -1    0    0    0    0 -0.00000000000E+00 -0.00000000000E+00 -0.45593999997E+02  0.45594000000E+02  0.51100000000E-03 0. -1.
    9900012    2    1    2    0    0 -0.44777477279E+01 -0.29927876123E+02  0.10049494557E+02  0.59301947645E+02  0.50000006597E+02 0.  0.
         12    1    1    2    0    0  0.44777477279E+01  0.29927876123E+02 -0.10049494557E+02  0.31886052355E+02  0.00000000000E+00 0. -1.
         11    1    3    3    0    0 -0.53400684719E+01 -0.10024228774E+02 -0.61700720842E+01  0.12925605734E+02  0.51100000000E-03 0. -1.
        -11    1    3    3    0    0 -0.32155149558E+01 -0.10297018366E+02  0.28374430759E+02  0.30355830492E+02  0.51100000000E-03 0.  1.
        -12    1    3    3    0    0  0.40778356998E+01 -0.96066289821E+01 -0.12154864119E+02  0.16020511419E+02  0.00000000000E+00 0.  1.
</event>
<event>
 7    1  0.4346085E-013  0.5930190E+02  0.7816164E-02  0.1266605E+00
        -11   -1    0    0    0    0  0.00000000000E+00  0.00000000000E+00  0.45593999997E+02  0.45594000000E+02  0.51100000000E-03 0.  1.
         11   -1    0    0    0    0 -0.00000000000E+00 -0.00000000000E+00 -0.45593999997E+02  0.45594000000E+02  0.51100000000E-03 0. -1.
    9900012    2    1    2    0    0  0.30150116328E+02  0.40554680628E+01  0.95523442333E+01  0.59301896191E+02  0.49999912757E+02 0.  0.
         12    1    1    2    0    0 -0.30150116328E+02 -0.40554680628E+01 -0.95523442333E+01  0.31886103809E+02  0.00000000000E+00 0. -1.
         11    1    3    3    0    0 -0.45950068573E+00  0.37435230906E+01  0.11121109495E+01  0.39321618781E+01  0.51100000000E-03 0. -1.
        -11    1    3    3    0    0  0.17793258696E+02 -0.17369174669E+02 -0.99871944597E+01  0.26796125414E+02  0.51100000000E-03 0.  1.
        -12    1    3    3    0    0  0.12816358317E+02  0.17681119642E+02  0.18427427744E+02  0.28573608899E+02  0.00000000000E+00 0.  1.
</event>
<event>
 7    1  0.4346085E-013  0.5930196E+02  0.7816164E-02  0.1266605E+00
        -11   -1    0    0    0    0  0.00000000000E+00  0.00000000000E+00  0.45593999997E+02  0.45594000000E+02  0.51100000000E-03 0.  1.
         11   -1    0    0    0    0 -0.00000000000E+00 -0.00000000000E+00 -0.45593999997E+02  0.45594000000E+02  0.51100000000E-03 0. -1.
    9900012    2    1    2    0    0 -0.22733494455E+02  0.98996080863E+01  0.20047582019E+02  0.59301959869E+02  0.50000028890E+02 0.  0.
         12    1    1    2    0    0  0.22733494455E+02 -0.98996080863E+01 -0.20047582019E+02  0.31886040131E+02  0.00000000000E+00 0. -1.
         11    1    3    3    0    0 -0.36374608268E+02 -0.14535574152E+01  0.15168692523E+02  0.39437471888E+02  0.51100000000E-03 0. -1.
        -11    1    3    3    0    0  0.20124316038E+01  0.51178044375E+01 -0.69030308475E+00  0.55424111928E+01  0.51100000000E-03 0.  1.
         12    1    3    3    0    0  0.11628682209E+02  0.62353610640E+01  0.55691925815E+01  0.14322076788E+02  0.00000000000E+00 0. -1.
</event>
<event>
 7    1  0.4346085E-013  0.5930193E+02  0.7816164E-02  0.1266605E+00
        -11   -1    0    0    0    0  0.00000000000E+00  0.00000000000E+00  0.45593999997E+02  0.45594000000E+02  0.51100000000E-03 0. -1.
         11   -1    0    0    0    0 -0.00000000000E+00 -0.00000000000E+00 -0.45593999997E+02  0.45594000000E+02  0.51100000000E-03 0.  1.
    9900012    2    1    2    0    0  0.17844727859E+02 -0.21945849815E+02  0.14719604775E+02  0.59301930923E+02  0.49999976100E+02 0.  0.
         12    1    1    2    0    0 -0.17844727859E+02  0.21945849815E+02 -0.14719604775E+02  0.31886069077E+02  0.00000000000E+00 0. -1.
         11    1    3    3    0    0  0.22440106171E+02  0.93535846200E+01  0.34608053640E+01  0.24556569065E+02  0.51100000000E-03 0. -1.
        -11    1    3    3    0    0  0.19211688842E+01 -0.16198051788E+02  0.41754998878E+01  0.16837534593E+02  0.51100000000E-03 0.  1.
         12    1    3    3    0    0 -0.65165471966E+01 -0.15101382647E+02  0.70832995230E+01  0.17907827265E+02  0.00000000000E+00 0. -1.
</event>
<event>
 7    1  0.4346085E-013  0.5930182E+02  0.7816164E-02  0.1266605E+00
        -11   -1    0    0    0    0  0.00000000000E+00  0.00000000000E+00  0.45593999997E+02  0.45594000000E+02  0.51100000000E-03 0. -1.
         11   -1    0    0    0    0 -0.00000000000E+00 -0.00000000000E+00 -0.45593999997E+02  0.45594000000E+02  0.51100000000E-03 0.  1.
    9900012    2    1    2    0    0  0.46848976048E+01 -0.26930699529E+02 -0.16416987587E+02  0.59301822366E+02  0.49999778117E+02 0.  0.
         12    1    1    2    0    0 -0.46848976048E+01  0.26930699529E+02  0.16416987587E+02  0.31886177634E+02  0.00000000000E+00 0. -1.
         11    1    3    3    0    0 -0.56853226451E+01  0.33559177237E+01  0.24060924088E+01  0.70266889990E+01  0.51100000000E-03 0. -1.
        -11    1    3    3    0    0  0.96659173983E+01 -0.26921269818E+02  0.42758188029E+01  0.28921745357E+02  0.51100000000E-03 0.  1.
        -12    1    3    3    0    0  0.70430285158E+00 -0.33653474346E+01 -0.23098898798E+02  0.23353388010E+02  0.00000000000E+00 0.  1.
</event>
<event>
 7    1  0.4346085E-013  0.5930195E+02  0.7816164E-02  0.1266605E+00
        -11   -1    0    0    0    0  0.00000000000E+00  0.00000000000E+00  0.45593999997E+02  0.45594000000E+02  0.51100000000E-03 0.  1.
         11   -1    0    0    0    0 -0.00000000000E+00 -0.00000000000E+00 -0.45593999997E+02  0.45594000000E+02  0.51100000000E-03 0. -1.
    9900012    2    1    2    0    0  0.45121809426E+01 -0.20921079314E+01  0.31495771118E+02  0.59301948335E+02  0.50000007856E+02 0.  0.
         12    1    1    2    0    0 -0.45121809426E+01  0.20921079314E+01 -0.31495771118E+02  0.31886051665E+02  0.00000000000E+00 0. -1.
         11    1    3    3    0    0 -0.41823326037E+01  0.73133195011E+00 -0.64954122278E+01  0.77599698904E+01  0.51100000000E-03 0. -1.
        -11    1    3    3    0    0  0.44878838240E+01 -0.16778829615E+02  0.30632980670E+02  0.35214339827E+02  0.51100000000E-03 0.  1.
        -12    1    3    3    0    0  0.42066297223E+01  0.13955389733E+02  0.73582026754E+01  0.16327638618E+02  0.00000000000E+00 0.  1.
</event>
<event>
 7    1  0.4346085E-013  0.5930187E+02  0.7816164E-02  0.1266605E+00
        -11   -1    0    0    0    0  0.00000000000E+00  0.00000000000E+00  0.45593999997E+02  0.45594000000E+02  0.51100000000E-03 0.  1.
         11   -1    0    0    0    0 -0.00000000000E+00 -0.00000000000E+00 -0.45593999997E+02  0.45594000000E+02  0.51100000000E-03 0. -1.
    9900012    2    1    2    0    0  0.17283713606E+02 -0.26265589705E+02 -0.53025698237E+01  0.59301871271E+02  0.49999867309E+02 0.  0.
         12    1    1    2    0    0 -0.17283713606E+02  0.26265589705E+02  0.53025698237E+01  0.31886128729E+02  0.00000000000E+00 0. -1.
         11    1    3    3    0    0 -0.53140007877E+01 -0.18169932649E+02 -0.27275519326E+01  0.19126541680E+02  0.51100000000E-03 0. -1.
        -11    1    3    3    0    0  0.18099107133E+02  0.88920126348E+01  0.54017925674E+01  0.20876420453E+02  0.51100000000E-03 0.  1.
        -12    1    3    3    0    0  0.44986072606E+01 -0.16987669692E+02 -0.79768104585E+01  0.19298909138E+02  0.00000000000E+00 0.  1.
</event>
<event>
 7    1  0.4346085E-013  0.5930197E+02  0.7816164E-02  0.1266605E+00
        -11   -1    0    0    0    0  0.00000000000E+00  0.00000000000E+00  0.45593999997E+02  0.45594000000E+02  0.51100000000E-03 0.  1.
         11   -1    0    0    0    0 -0.00000000000E+00 -0.00000000000E+00 -0.45593999997E+02  0.45594000000E+02  0.51100000000E-03 0. -1.
    9900012    2    1    2    0    0  0.22208236926E+02 -0.99680026685E+01  0.20594950933E+02  0.59301970638E+02  0.50000048531E+02 0.  0.
         12    1    1    2    0    0 -0.22208236926E+02  0.99680026685E+01 -0.20594950933E+02  0.31886029362E+02  0.00000000000E+00 0. -1.
         11    1    3    3    0    0  0.31306980016E+02 -0.13811389675E+02  0.26566571136E+02  0.43320482277E+02  0.51100000000E-03 0. -1.
        -11    1    3    3    0    0 -0.38283150136E+01  0.55819206118E+01  0.12404057242E+01  0.68813109348E+01  0.51100000000E-03 0.  1.
         12    1    3    3    0    0 -0.52704280769E+01 -0.17385336050E+01 -0.72120259276E+01  0.91001774263E+01  0.00000000000E+00 0. -1.
</event>
<event>
 7    1  0.4346085E-013  0.5930191E+02  0.7816164E-02  0.1266605E+00
        -11   -1    0    0    0    0  0.00000000000E+00  0.00000000000E+00  0.45593999997E+02  0.45594000000E+02  0.51100000000E-03 0. -1.
         11   -1    0    0    0    0 -0.00000000000E+00 -0.00000000000E+00 -0.45593999997E+02  0.45594000000E+02  0.51100000000E-03 0.  1.
    9900012    2    1    2    0    0  0.13290938861E+02  0.17016309326E+02 -0.23463136417E+02  0.59301911978E+02  0.49999941548E+02 0.  0.
         12    1    1    2    0    0 -0.13290938861E+02 -0.17016309326E+02  0.23463136417E+02  0.31886088022E+02  0.00000000000E+00 0. -1.
         11    1    3    3    0    0  0.86763665833E+01 -0.14744079119E+02 -0.83825119306E+00  0.17128043422E+02  0.51100000000E-03 0. -1.
        -11    1    3    3    0    0  0.92669296128E+01  0.25422737699E+02 -0.13868881327E+02  0.30406207361E+02  0.51100000000E-03 0.  1.
         12    1    3    3    0    0 -0.46523573354E+01  0.63376507452E+01 -0.87560038965E+01  0.11767661194E+02  0.00000000000E+00 0. -1.
</event>
<event>
 7    1  0.5976940E-013  0.5930195E+02  0.7816164E-02  0.1266605E+00
        -11   -1    0    0    0    0  0.00000000000E+00  0.00000000000E+00  0.45593999997E+02  0.45594000000E+02  0.51100000000E-03 0. -1.
         11   -1    0    0    0    0 -0.00000000000E+00 -0.00000000000E+00 -0.45593999997E+02  0.45594000000E+02  0.51100000000E-03 0.  1.
    9900012    2    1    2    0    0 -0.26721761069E+01 -0.20313030349E+02 -0.24432775641E+02  0.59301948933E+02  0.50000008947E+02 0.  0.
         12    1    1    2    0    0  0.26721761069E+01  0.20313030349E+02  0.24432775641E+02  0.31886051067E+02  0.00000000000E+00 0. -1.
         11    1    3    3    0    0  0.52470904078E+01  0.79672658457E+01  0.34961238698E+01  0.10160323084E+02  0.51100000000E-03 0. -1.
        -11    1    3    3    0    0 -0.18630613546E+01 -0.11616659500E+02 -0.29084494807E+02  0.31373963951E+02  0.51100000000E-03 0.  1.
         12    1    3    3    0    0 -0.60562051600E+01 -0.16663636694E+02  0.11555952964E+01  0.17767661898E+02  0.00000000000E+00 0. -1.
</event>
<event>
 7    1  0.4346085E-013  0.5930193E+02  0.7816164E-02  0.1266605E+00
        -11   -1    0    0    0    0  0.00000000000E+00  0.00000000000E+00  0.45593999997E+02  0.45594000000E+02  0.51100000000E-03 0. -1.
         11   -1    0    0    0    0 -0.00000000000E+00 -0.00000000000E+00 -0.45593999997E+02  0.45594000000E+02  0.51100000000E-03 0.  1.
    9900012    2    1    2    0    0 -0.18411334891E+02  0.84665890998E+01 -0.24618311042E+02  0.59301927460E+02  0.49999969784E+02 0.  0.
         12    1    1    2    0    0  0.18411334891E+02 -0.84665890998E+01  0.24618311042E+02  0.31886072540E+02  0.00000000000E+00 0. -1.
         11    1    3    3    0    0 -0.13261053208E+02  0.68868958987E+01 -0.61672086159E+01  0.16165374406E+02  0.51100000000E-03 0. -1.
        -11    1    3    3    0    0  0.95804496797E+01 -0.40511648961E+01 -0.24208191252E+02  0.26348310706E+02  0.51100000000E-03 0.  1.
        -12    1    3    3    0    0 -0.14730731363E+02  0.56308580972E+01  0.57570888257E+01  0.16788242348E+02  0.00000000000E+00 0.  1.
</event>
<event>
 7    1  0.4346085E-013  0.5930195E+02  0.7816164E-02  0.1266605E+00
        -11   -1    0    0    0    0  0.00000000000E+00  0.00000000000E+00  0.45593999997E+02  0.45594000000E+02  0.51100000000E-03 0.  1.
         11   -1    0    0    0    0 -0.00000000000E+00 -0.00000000000E+00 -0.45593999997E+02  0.45594000000E+02  0.51100000000E-03 0. -1.
    9900012    2    1    2    0    0 -0.20999886866E+02  0.17477608507E+02 -0.16439532587E+02  0.59301948516E+02  0.50000008186E+02 0.  0.
         12    1    1    2    0    0  0.20999886866E+02 -0.17477608507E+02  0.16439532587E+02  0.31886051484E+02  0.00000000000E+00 0. -1.
         11    1    3    3    0    0 -0.21329632990E+02  0.17599787695E+02 -0.47103544062E+01  0.28051616874E+02  0.51100000000E-03 0. -1.
        -11    1    3    3    0    0  0.32205076111E+00 -0.11488571246E+02  0.37112109054E+01  0.12077419948E+02  0.51100000000E-03 0.  1.
         12    1    3    3    0    0  0.76953623322E-02  0.11366392059E+02 -0.15440389087E+02  0.19172911693E+02  0.00000000000E+00 0. -1.
</event>
<event>
 7    1  0.4346085E-013  0.5930198E+02  0.7816164E-02  0.1266605E+00
        -11   -1    0    0    0    0  0.00000000000E+00  0.00000000000E+00  0.45593999997E+02  0.45594000000E+02  0.51100000000E-03 0.  1.
         11   -1    0    0    0    0 -0.00000000000E+00 -0.00000000000E+00 -0.45593999997E+02  0.45594000000E+02  0.51100000000E-03 0. -1.
    9900012    2    1    2    0    0 -0.12338360696E+02 -0.80525661277E+01  0.28277889805E+02  0.59301983978E+02  0.50000072860E+02 0.  0.
         12    1    1    2    0    0  0.12338360696E+02  0.80525661277E+01 -0.28277889805E+02  0.31886016022E+02  0.00000000000E+00 0. -1.
         11    1    3    3    0    0  0.63598387898E+01  0.93719599132E+01  0.27060859573E+02  0.29335495618E+02  0.51100000000E-03 0. -1.
        -11    1    3    3    0    0 -0.10489455104E+02 -0.15313443168E+02  0.68548500503E+01  0.19786843596E+02  0.51100000000E-03 0.  1.
         12    1    3    3    0    0 -0.82087443820E+01 -0.21110828731E+01 -0.56378198183E+01  0.10179644764E+02  0.00000000000E+00 0. -1.
</event>
<event>
 7    1  0.4346085E-013  0.5930192E+02  0.7816164E-02  0.1266605E+00
        -11   -1    0    0    0    0  0.00000000000E+00  0.00000000000E+00  0.45593999997E+02  0.45594000000E+02  0.51100000000E-03 0.  1.
         11   -1    0    0    0    0 -0.00000000000E+00 -0.00000000000E+00 -0.45593999997E+02  0.45594000000E+02  0.51100000000E-03 0. -1.
    9900012    2    1    2    0    0  0.14817486452E+02  0.24001198599E+02  0.14869649270E+02  0.59301922970E+02  0.49999961596E+02 0.  0.
         12    1    1    2    0    0 -0.14817486452E+02 -0.24001198599E+02 -0.14869649270E+02  0.31886077030E+02  0.00000000000E+00 0. -1.
         11    1    3    3    0    0 -0.33085335570E+01 -0.10078888595E+02 -0.30207190715E+01  0.11029738600E+02  0.51100000000E-03 0. -1.
        -11    1    3    3    0    0 -0.12795094329E+00  0.22872095419E+02  0.12970651810E+02  0.26294237561E+02  0.51100000000E-03 0.  1.
        -12    1    3    3    0    0  0.18253970953E+02  0.11207991775E+02  0.49197165316E+01  0.21977946809E+02  0.00000000000E+00 0.  1.
</event>
<event>
 7    1  0.4346085E-013  0.5930196E+02  0.7816164E-02  0.1266605E+00
        -11   -1    0    0    0    0  0.00000000000E+00  0.00000000000E+00  0.45593999997E+02  0.45594000000E+02  0.51100000000E-03 0.  1.
         11   -1    0    0    0    0 -0.00000000000E+00 -0.00000000000E+00 -0.45593999997E+02  0.45594000000E+02  0.51100000000E-03 0. -1.
    9900012    2    1    2    0    0  0.17437284124E+02  0.96260925636E+01  0.24899779191E+02  0.59301960117E+02  0.50000029343E+02 0.  0.
         12    1    1    2    0    0 -0.17437284124E+02 -0.96260925636E+01 -0.24899779191E+02  0.31886039883E+02  0.00000000000E+00 0. -1.
         11    1    3    3    0    0 -0.97256285549E+01 -0.33939498769E+01  0.83978580111E+01  0.13290250787E+02  0.51100000000E-03 0.  1.
        -11    1    3    3    0    0  0.29304577635E+02  0.32876386537E+00  0.15367273997E+02  0.33091078351E+02  0.51100000000E-03 0. -1.
         12    1    3    3    0    0 -0.21416649562E+01  0.12691278575E+02  0.11346471832E+01  0.12920630979E+02  0.00000000000E+00 0. -1.
</event>
<event>
 7    1  0.4346085E-013  0.5930200E+02  0.7816164E-02  0.1266605E+00
        -11   -1    0    0    0    0  0.00000000000E+00  0.00000000000E+00  0.45593999997E+02  0.45594000000E+02  0.51100000000E-03 0. -1.
         11   -1    0    0    0    0 -0.00000000000E+00 -0.00000000000E+00 -0.45593999997E+02  0.45594000000E+02  0.51100000000E-03 0.  1.
    9900012    2    1    2    0    0 -0.26491085608E+02  0.25573674094E+00  0.17744683709E+02  0.59302002793E+02  0.50000107173E+02 0.  0.
         12    1    1    2    0    0  0.26491085608E+02 -0.25573674094E+00 -0.17744683709E+02  0.31885997207E+02  0.00000000000E+00 0. -1.
         11    1    3    3    0    0 -0.24267315032E+02  0.26220861616E+00  0.17995509710E+02  0.30212740727E+02  0.51100000000E-03 0. -1.
        -11    1    3    3    0    0  0.96249279823E+01 -0.92086995372E+01 -0.34267887325E+01  0.13754354478E+02  0.51100000000E-03 0.  1.
         12    1    3    3    0    0 -0.11848698558E+02  0.92022276620E+01  0.31759627311E+01  0.15334907588E+02  0.00000000000E+00 0. -1.
</event>
<event>
 7    1  0.4346085E-013  0.5930196E+02  0.7816164E-02  0.1266605E+00
        -11   -1    0    0    0    0  0.00000000000E+00  0.00000000000E+00  0.45593999997E+02  0.45594000000E+02  0.51100000000E-03 0. -1.
         11   -1    0    0    0    0 -0.00000000000E+00 -0.00000000000E+00 -0.45593999997E+02  0.45594000000E+02  0.51100000000E-03 0.  1.
    9900012    2    1    2    0    0  0.20489148470E+02  0.23739596512E+02  0.57746056422E+01  0.59301957318E+02  0.50000024238E+02 0.  0.
         12    1    1    2    0    0 -0.20489148470E+02 -0.23739596512E+02 -0.57746056422E+01  0.31886042682E+02  0.00000000000E+00 0. -1.
         11    1    3    3    0    0  0.28008988976E+01  0.11110075100E+02  0.23988539016E+02  0.26584371495E+02  0.51100000000E-03 0. -1.
        -11    1    3    3    0    0  0.11046900521E+02  0.33556187181E+01 -0.38471106209E+00  0.11551718096E+02  0.51100000000E-03 0.  1.
         12    1    3    3    0    0  0.66413490510E+01  0.92739026939E+01 -0.17829222312E+02  0.21165867727E+02  0.00000000000E+00 0. -1.
</event>
<event>
 7    1  0.4346085E-013  0.5930195E+02  0.7816164E-02  0.1266605E+00
        -11   -1    0    0    0    0  0.00000000000E+00  0.00000000000E+00  0.45593999997E+02  0.45594000000E+02  0.51100000000E-03 0. -1.
         11   -1    0    0    0    0 -0.00000000000E+00 -0.00000000000E+00 -0.45593999997E+02  0.45594000000E+02  0.51100000000E-03 0.  1.
    9900012    2    1    2    0    0 -0.80993658706E+01  0.11802212946E+02 -0.28492598729E+02  0.59301950696E+02  0.50000012161E+02 0.  0.
         12    1    1    2    0    0  0.80993658706E+01 -0.11802212946E+02  0.28492598729E+02  0.31886049304E+02  0.00000000000E+00 0. -1.
         11    1    3    3    0    0 -0.16866171649E+02  0.14430317180E+02 -0.14209326591E+01  0.22242321145E+02  0.51100000000E-03 0. -1.
        -11    1    3    3    0    0  0.16930755318E+02 -0.96656555298E+00 -0.17466505431E+02  0.24344681900E+02  0.51100000000E-03 0.  1.
        -12    1    3    3    0    0 -0.81639495392E+01 -0.16615386813E+01 -0.96051606389E+01  0.12714947651E+02  0.00000000000E+00 0.  1.
</event>
<event>
 7    1  0.4346085E-013  0.5930191E+02  0.7816164E-02  0.1266605E+00
        -11   -1    0    0    0    0  0.00000000000E+00  0.00000000000E+00  0.45593999997E+02  0.45594000000E+02  0.51100000000E-03 0. -1.
         11   -1    0    0    0    0 -0.00000000000E+00 -0.00000000000E+00 -0.45593999997E+02  0.45594000000E+02  0.51100000000E-03 0.  1.
    9900012    2    1    2    0    0  0.31425031011E+02 -0.37024400620E+01 -0.39346913996E+01  0.59301914745E+02  0.49999946595E+02 0.  0.
         12    1    1    2    0    0 -0.31425031011E+02  0.37024400620E+01  0.39346913996E+01  0.31886085255E+02  0.00000000000E+00 0. -1.
         11    1    3    3    0    0  0.13624190838E+02 -0.53582901570E+01  0.19606754468E+02  0.24469464041E+02  0.51100000000E-03 0. -1.
        -11    1    3    3    0    0  0.14354638035E+02 -0.13649522706E+01 -0.25926271673E+02  0.29666315763E+02  0.51100000000E-03 0.  1.
        -12    1    3    3    0    0  0.34462021384E+01  0.30208023656E+01  0.23848258053E+01  0.51661349413E+01  0.00000000000E+00 0.  1.
</event>
<event>
 7    1  0.4346085E-013  0.5930194E+02  0.7816164E-02  0.1266605E+00
        -11   -1    0    0    0    0  0.00000000000E+00  0.00000000000E+00  0.45593999997E+02  0.45594000000E+02  0.51100000000E-03 0. -1.
         11   -1    0    0    0    0 -0.00000000000E+00 -0.00000000000E+00 -0.45593999997E+02  0.45594000000E+02  0.51100000000E-03 0.  1.
    9900012    2    1    2    0    0  0.27510253456E+02 -0.12879828470E+02  0.96962232905E+01  0.59301940778E+02  0.49999994073E+02 0.  0.
         12    1    1    2    0    0 -0.27510253456E+02  0.12879828470E+02 -0.96962232905E+01  0.31886059222E+02  0.00000000000E+00 0. -1.
         11    1    3    3    0    0  0.11672719890E+02 -0.55294613444E+01  0.14510169290E+02  0.19426073857E+02  0.51100000000E-03 0. -1.
        -11    1    3    3    0    0  0.25236233115E+02 -0.96200999066E+01 -0.10126388269E+02  0.28843673894E+02  0.51100000000E-03 0.  1.
        -12    1    3    3    0    0 -0.93986995494E+01  0.22697327807E+01  0.53124422693E+01  0.11032193027E+02  0.00000000000E+00 0.  1.
</event>
<event>
 7    1  0.4346085E-013  0.5930203E+02  0.7816164E-02  0.1266604E+00
        -11   -1    0    0    0    0  0.00000000000E+00  0.00000000000E+00  0.45593999997E+02  0.45594000000E+02  0.51100000000E-03 0.  1.
         11   -1    0    0    0    0 -0.00000000000E+00 -0.00000000000E+00 -0.45593999997E+02  0.45594000000E+02  0.51100000000E-03 0. -1.
    9900012    2    1    2    0    0 -0.48288449359E+01 -0.19419056065E+02  0.24825343885E+02  0.59302028462E+02  0.50000153988E+02 0.  0.
         12    1    1    2    0    0  0.48288449359E+01  0.19419056065E+02 -0.24825343885E+02  0.31885971538E+02  0.00000000000E+00 0. -1.
         11    1    3    3    0    0  0.50168218678E+01 -0.20239878094E+01  0.35273173271E+02  0.35685596270E+02  0.51100000000E-03 0. -1.
        -11    1    3    3    0    0 -0.33022849298E+01 -0.11360856071E+02 -0.35397121093E+01  0.12349238782E+02  0.51100000000E-03 0.  1.
         12    1    3    3    0    0 -0.65433818739E+01 -0.60342121854E+01 -0.69081172764E+01  0.11267193411E+02  0.00000000000E+00 0. -1.
</event>
<event>
 7    1  0.4346085E-013  0.5930204E+02  0.7816164E-02  0.1266604E+00
        -11   -1    0    0    0    0  0.00000000000E+00  0.00000000000E+00  0.45593999997E+02  0.45594000000E+02  0.51100000000E-03 0. -1.
         11   -1    0    0    0    0 -0.00000000000E+00 -0.00000000000E+00 -0.45593999997E+02  0.45594000000E+02  0.51100000000E-03 0.  1.
    9900012    2    1    2    0    0 -0.48923402367E+01 -0.30801283947E+02  0.66377999847E+01  0.59302039540E+02  0.50000174192E+02 0.  0.
         12    1    1    2    0    0  0.48923402367E+01  0.30801283947E+02 -0.66377999847E+01  0.31885960460E+02  0.00000000000E+00 0. -1.
         11    1    3    3    0    0 -0.14645412889E+02 -0.20951212011E+02 -0.12638394145E+02  0.28516142976E+02  0.51100000000E-03 0. -1.
        -11    1    3    3    0    0  0.10382218707E+02 -0.15135432288E+02  0.12671211116E+02  0.22303169443E+02  0.51100000000E-03 0.  1.
         12    1    3    3    0    0 -0.62914605436E+00  0.52853603513E+01  0.66049830135E+01  0.84827271210E+01  0.00000000000E+00 0. -1.
</event>
<event>
 7    1  0.4346085E-013  0.5930196E+02  0.7816164E-02  0.1266605E+00
        -11   -1    0    0    0    0  0.00000000000E+00  0.00000000000E+00  0.45593999997E+02  0.45594000000E+02  0.51100000000E-03 0.  1.
         11   -1    0    0    0    0 -0.00000000000E+00 -0.00000000000E+00 -0.45593999997E+02  0.45594000000E+02  0.51100000000E-03 0. -1.
    9900012    2    1    2    0    0 -0.19417390044E+02 -0.12655946047E+02  0.21897756381E+02  0.59301956956E+02  0.50000023579E+02 0.  0.
         12    1    1    2    0    0  0.19417390044E+02  0.12655946047E+02 -0.21897756381E+02  0.31886043044E+02  0.00000000000E+00 0. -1.
         11    1    3    3    0    0 -0.12760112271E+02 -0.12101988402E+02 -0.12114248518E+02  0.21354943359E+02  0.51100000000E-03 0. -1.
        -11    1    3    3    0    0  0.37017250087E+00 -0.30024691332E+01  0.28565010502E+02  0.28724757159E+02  0.51100000000E-03 0.  1.
         12    1    3    3    0    0 -0.70274502743E+01  0.24485114878E+01  0.54469943971E+01  0.92222564390E+01  0.00000000000E+00 0. -1.
</event>
<event>
 7    1  0.4346085E-013  0.5930193E+02  0.7816164E-02  0.1266605E+00
        -11   -1    0    0    0    0  0.00000000000E+00  0.00000000000E+00  0.45593999997E+02  0.45594000000E+02  0.51100000000E-03 0. -1.
         11   -1    0    0    0    0 -0.00000000000E+00 -0.00000000000E+00 -0.45593999997E+02  0.45594000000E+02  0.51100000000E-03 0.  1.
    9900012    2    1    2    0    0 -0.30761705365E+02  0.83313819147E+01  0.10134532069E+01  0.59301928919E+02  0.49999972445E+02 0.  0.
         12    1    1    2    0    0  0.30761705365E+02 -0.83313819147E+01 -0.10134532069E+01  0.31886071081E+02  0.00000000000E+00 0. -1.
         11    1    3    3    0    0  0.16482689751E+01 -0.64343623038E+01  0.31361530896E+01  0.73452886487E+01  0.51100000000E-03 0. -1.
        -11    1    3    3    0    0 -0.37686085238E+02  0.15298226839E+02  0.71290722287E+01  0.41292861805E+02  0.51100000000E-03 0.  1.
        -12    1    3    3    0    0  0.52761108973E+01 -0.53248262054E+00 -0.92517721114E+01  0.10663778465E+02  0.00000000000E+00 0.  1.
</event>
<event>
 7    1  0.4346085E-013  0.5930198E+02  0.7816164E-02  0.1266605E+00
        -11   -1    0    0    0    0  0.00000000000E+00  0.00000000000E+00  0.45593999997E+02  0.45594000000E+02  0.51100000000E-03 0.  1.
         11   -1    0    0    0    0 -0.00000000000E+00 -0.00000000000E+00 -0.45593999997E+02  0.45594000000E+02  0.51100000000E-03 0. -1.
    9900012    2    1    2    0    0  0.19463973433E+02 -0.24506205148E+02  0.61088627321E+01  0.59301975531E+02  0.50000057454E+02 0.  0.
         12    1    1    2    0    0 -0.19463973433E+02  0.24506205148E+02 -0.61088627321E+01  0.31886024469E+02  0.00000000000E+00 0. -1.
         11    1    3    3    0    0  0.70285227332E+00  0.12798273398E+02  0.57962183850E+01  0.14067194145E+02  0.51100000000E-03 0. -1.
        -11    1    3    3    0    0 -0.67707966068E+00 -0.17187073929E+02  0.12420021655E+01  0.17245188220E+02  0.51100000000E-03 0.  1.
         12    1    3    3    0    0  0.19438200821E+02 -0.20117404616E+02 -0.92935781845E+00  0.27989593166E+02  0.00000000000E+00 0. -1.
</event>
<event>
 7    1  0.4346085E-013  0.5930192E+02  0.7816164E-02  0.1266605E+00
        -11   -1    0    0    0    0  0.00000000000E+00  0.00000000000E+00  0.45593999997E+02  0.45594000000E+02  0.51100000000E-03 0.  1.
         11   -1    0    0    0    0 -0.00000000000E+00 -0.00000000000E+00 -0.45593999997E+02  0.45594000000E+02  0.51100000000E-03 0. -1.
    9900012    2    1    2    0    0  0.22468361149E+02  0.21888730181E+02  0.57252564867E+01  0.59301916460E+02  0.49999949724E+02 0.  0.
         12    1    1    2    0    0 -0.22468361149E+02 -0.21888730181E+02 -0.57252564867E+01  0.31886083540E+02  0.00000000000E+00 0. -1.
         11    1    3    3    0    0  0.28168641369E+02  0.47509209708E+01  0.26579721496E+00  0.28567713508E+02  0.51100000000E-03 0. -1.
        -11    1    3    3    0    0 -0.14490462085E+02  0.14247522096E+02  0.71149773578E+00  0.20334001245E+02  0.51100000000E-03 0.  1.
        -12    1    3    3    0    0  0.87901818649E+01  0.28902871139E+01  0.47479615359E+01  0.10400201708E+02  0.00000000000E+00 0.  1.
</event>
<event>
 7    1  0.4346085E-013  0.5930195E+02  0.7816164E-02  0.1266605E+00
        -11   -1    0    0    0    0  0.00000000000E+00  0.00000000000E+00  0.45593999997E+02  0.45594000000E+02  0.51100000000E-03 0.  1.
         11   -1    0    0    0    0 -0.00000000000E+00 -0.00000000000E+00 -0.45593999997E+02  0.45594000000E+02  0.51100000000E-03 0. -1.
    9900012    2    1    2    0    0  0.16545793591E+02 -0.26598867534E+02 -0.59546051384E+01  0.59301947218E+02  0.50000005819E+02 0.  0.
         12    1    1    2    0    0 -0.16545793591E+02  0.26598867534E+02  0.59546051384E+01  0.31886052782E+02  0.00000000000E+00 0. -1.
         11    1    3    3    0    0  0.59954313522E+01 -0.13411156792E+02 -0.82409130547E+01  0.16843900137E+02  0.51100000000E-03 0. -1.
        -11    1    3    3    0    0 -0.48479781097E+01  0.11755207908E+02 -0.18676460757E+01  0.12852077919E+02  0.51100000000E-03 0.  1.
        -12    1    3    3    0    0  0.15398340349E+02 -0.24942918650E+02  0.41539539920E+01  0.29605969162E+02  0.00000000000E+00 0.  1.
</event>
<event>
 7    1  0.4346085E-013  0.5930197E+02  0.7816164E-02  0.1266605E+00
        -11   -1    0    0    0    0  0.00000000000E+00  0.00000000000E+00  0.45593999997E+02  0.45594000000E+02  0.51100000000E-03 0. -1.
         11   -1    0    0    0    0 -0.00000000000E+00 -0.00000000000E+00 -0.45593999997E+02  0.45594000000E+02  0.51100000000E-03 0.  1.
    9900012    2    1    2    0    0 -0.28831503602E+02  0.19860489206E-01 -0.13618488109E+02  0.59301965239E+02  0.50000038685E+02 0.  0.
         12    1    1    2    0    0  0.28831503602E+02 -0.19860489206E-01  0.13618488109E+02  0.31886034761E+02  0.00000000000E+00 0. -1.
         11    1    3    3    0    0  0.40121198927E+01  0.98022558692E+01  0.74002492140E+01  0.12920720369E+02  0.51100000000E-03 0. -1.
        -11    1    3    3    0    0 -0.32459830953E+02 -0.12779224848E+02 -0.12033996323E+02  0.36902117568E+02  0.51100000000E-03 0.  1.
        -12    1    3    3    0    0 -0.38379254151E+00  0.29968294685E+01 -0.89847410007E+01  0.94791273030E+01  0.00000000000E+00 0.  1.
</event>
<event>
 7    1  0.4346085E-013  0.5930196E+02  0.7816164E-02  0.1266605E+00
        -11   -1    0    0    0    0  0.00000000000E+00  0.00000000000E+00  0.45593999997E+02  0.45594000000E+02  0.51100000000E-03 0.  1.
         11   -1    0    0    0    0 -0.00000000000E+00 -0.00000000000E+00 -0.45593999997E+02  0.45594000000E+02  0.51100000000E-03 0. -1.
    9900012    2    1    2    0    0 -0.63916901924E+01 -0.16085323810E+02  0.26779253230E+02  0.59301956828E+02  0.50000023345E+02 0.  0.
         12    1    1    2    0    0  0.63916901924E+01  0.16085323810E+02 -0.26779253230E+02  0.31886043172E+02  0.00000000000E+00 0. -1.
         11    1    3    3    0    0  0.26967886416E+01  0.11870376859E+02  0.33718352615E+01  0.12631222785E+02  0.51100000000E-03 0. -1.
        -11    1    3    3    0    0 -0.44084683964E+01 -0.22553699151E+02  0.83706923077E+00  0.22995752307E+02  0.51100000000E-03 0.  1.
        -12    1    3    3    0    0 -0.46800104375E+01 -0.54020015174E+01  0.22570348738E+02  0.23674981737E+02  0.00000000000E+00 0.  1.
</event>
<event>
 7    1  0.4346085E-013  0.5930193E+02  0.7816164E-02  0.1266605E+00
        -11   -1    0    0    0    0  0.00000000000E+00  0.00000000000E+00  0.45593999997E+02  0.45594000000E+02  0.51100000000E-03 0. -1.
         11   -1    0    0    0    0 -0.00000000000E+00 -0.00000000000E+00 -0.45593999997E+02  0.45594000000E+02  0.51100000000E-03 0.  1.
    9900012    2    1    2    0    0  0.99352498837E+01  0.62910465988E+00 -0.30292184657E+02  0.59301930718E+02  0.49999975727E+02 0.  0.
         12    1    1    2    0    0 -0.99352498837E+01 -0.62910465988E+00  0.30292184657E+02  0.31886069282E+02  0.00000000000E+00 0. -1.
         11    1    3    3    0    0 -0.10588609323E+02 -0.17889263331E+01  0.33042931735E+01  0.11235535522E+02  0.51100000000E-03 0. -1.
        -11    1    3    3    0    0  0.89955327815E+01 -0.72385608090E+01 -0.30635753947E+02  0.32739361521E+02  0.51100000000E-03 0.  1.
        -12    1    3    3    0    0  0.11528326425E+02  0.96565918020E+01 -0.29607238837E+01  0.15327033676E+02  0.00000000000E+00 0.  1.
</event>
<event>
 7    1  0.4346085E-013  0.5930193E+02  0.7816164E-02  0.1266605E+00
        -11   -1    0    0    0    0  0.00000000000E+00  0.00000000000E+00  0.45593999997E+02  0.45594000000E+02  0.51100000000E-03 0.  1.
         11   -1    0    0    0    0 -0.00000000000E+00 -0.00000000000E+00 -0.45593999997E+02  0.45594000000E+02  0.51100000000E-03 0. -1.
    9900012    2    1    2    0    0 -0.29602218542E+02 -0.10005867271E+02  0.63492484512E+01  0.59301926577E+02  0.49999968174E+02 0.  0.
         12    1    1    2    0    0  0.29602218542E+02  0.10005867271E+02 -0.63492484512E+01  0.31886073423E+02  0.00000000000E+00 0. -1.
         11    1    3    3    0    0 -0.11944182200E+02 -0.13795233341E+02 -0.13576932836E+02  0.22744341205E+02  0.51100000000E-03 0. -1.
        -11    1    3    3    0    0 -0.75962327154E+01  0.14238345569E+02  0.10850488992E+02  0.19446499624E+02  0.51100000000E-03 0.  1.
        -12    1    3    3    0    0 -0.10061803627E+02 -0.10448979500E+02  0.90756922953E+01  0.17111085747E+02  0.00000000000E+00 0.  1.
</event>
<event>
 7    1  0.4346085E-013  0.5930188E+02  0.7816164E-02  0.1266605E+00
        -11   -1    0    0    0    0  0.00000000000E+00  0.00000000000E+00  0.45593999997E+02  0.45594000000E+02  0.51100000000E-03 0.  1.
         11   -1    0    0    0    0 -0.00000000000E+00 -0.00000000000E+00 -0.45593999997E+02  0.45594000000E+02  0.51100000000E-03 0. -1.
    9900012    2    1    2    0    0  0.60640975262E+01  0.22336242530E+02 -0.21932704883E+02  0.59301881506E+02  0.49999885975E+02 0.  0.
         12    1    1    2    0    0 -0.60640975262E+01 -0.22336242530E+02  0.21932704883E+02  0.31886118494E+02  0.00000000000E+00 0. -1.
         11    1    3    3    0    0  0.14915325448E+02  0.14761304444E+02 -0.27110235689E+02  0.34283055894E+02  0.51100000000E-03 0. -1.
        -11    1    3    3    0    0 -0.67715326114E+01 -0.23291114062E+01  0.11162137714E+02  0.13261664016E+02  0.51100000000E-03 0.  1.
        -12    1    3    3    0    0 -0.20796953103E+01  0.99040494927E+01 -0.59846069080E+01  0.11757161595E+02  0.00000000000E+00 0.  1.
</event>
<event>
 7    1  0.4346085E-013  0.5930204E+02  0.7816164E-02  0.1266604E+00
        -11   -1    0    0    0    0  0.00000000000E+00  0.00000000000E+00  0.45593999997E+02  0.45594000000E+02  0.51100000000E-03 0. -1.
         11   -1    0    0    0    0 -0.00000000000E+00 -0.00000000000E+00 -0.45593999997E+02  0.45594000000E+02  0.51100000000E-03 0.  1.
    9900012    2    1    2    0    0  0.22400194929E+02  0.22466761233E+02 -0.31922365790E+01  0.59302039648E+02  0.50000174389E+02 0.  0.
         12    1    1    2    0    0 -0.22400194929E+02 -0.22466761233E+02  0.31922365790E+01  0.31885960352E+02  0.00000000000E+00 0. -1.
         11    1    3    3    0    0 -0.80456021404E+01 -0.78553103944E+01 -0.31797442170E+00  0.11248943203E+02  0.51100000000E-03 0. -1.
        -11    1    3    3    0    0  0.70872992280E+01  0.17945419922E+02  0.59393166808E+01  0.20187703916E+02  0.51100000000E-03 0.  1.
         12    1    3    3    0    0  0.23358497842E+02  0.12376651706E+02 -0.88135788382E+01  0.27865392529E+02  0.00000000000E+00 0. -1.
</event>
<event>
 7    1  0.4346085E-013  0.5930193E+02  0.7816164E-02  0.1266605E+00
        -11   -1    0    0    0    0  0.00000000000E+00  0.00000000000E+00  0.45593999997E+02  0.45594000000E+02  0.51100000000E-03 0. -1.
         11   -1    0    0    0    0 -0.00000000000E+00 -0.00000000000E+00 -0.45593999997E+02  0.45594000000E+02  0.51100000000E-03 0.  1.
    9900012    2    1    2    0    0 -0.15425654954E+02  0.43824682503E-01 -0.27906425318E+02  0.59301932111E+02  0.49999978268E+02 0.  0.
         12    1    1    2    0    0  0.15425654954E+02 -0.43824682503E-01  0.27906425318E+02  0.31886067889E+02  0.00000000000E+00 0. -1.
         11    1    3    3    0    0  0.65720252847E+01  0.17215982814E+02 -0.36445269177E+01  0.18784678792E+02  0.51100000000E-03 0. -1.
        -11    1    3    3    0    0 -0.20611259283E+02 -0.13253385320E+02 -0.11449658543E+02  0.27047567592E+02  0.51100000000E-03 0.  1.
        -12    1    3    3    0    0 -0.13864209558E+01 -0.39187728121E+01 -0.12812239858E+02  0.13469685727E+02  0.00000000000E+00 0.  1.
</event>
<event>
 7    1  0.4346085E-013  0.5930196E+02  0.7816164E-02  0.1266605E+00
        -11   -1    0    0    0    0  0.00000000000E+00  0.00000000000E+00  0.45593999997E+02  0.45594000000E+02  0.51100000000E-03 0.  1.
         11   -1    0    0    0    0 -0.00000000000E+00 -0.00000000000E+00 -0.45593999997E+02  0.45594000000E+02  0.51100000000E-03 0. -1.
    9900012    2    1    2    0    0  0.31252637945E+02 -0.45600559233E+01  0.43815875533E+01  0.59301956062E+02  0.50000021947E+02 0.  0.
         12    1    1    2    0    0 -0.31252637945E+02  0.45600559233E+01 -0.43815875533E+01  0.31886043938E+02  0.00000000000E+00 0. -1.
         11    1    3    3    0    0  0.30946731438E+02  0.42394816861E+01  0.10790795581E+01  0.31254404564E+02  0.51100000000E-03 0. -1.
        -11    1    3    3    0    0 -0.76235876961E+01  0.41021026035E+01 -0.57610358134E+01  0.10398839793E+02  0.51100000000E-03 0.  1.
        -12    1    3    3    0    0  0.79294942027E+01 -0.12901640213E+02  0.90635438086E+01  0.17648711706E+02  0.00000000000E+00 0.  1.
</event>
<event>
 7    1  0.4346085E-013  0.5930195E+02  0.7816164E-02  0.1266605E+00
        -11   -1    0    0    0    0  0.00000000000E+00  0.00000000000E+00  0.45593999997E+02  0.45594000000E+02  0.51100000000E-03 0.  1.
         11   -1    0    0    0    0 -0.00000000000E+00 -0.00000000000E+00 -0.45593999997E+02  0.45594000000E+02  0.51100000000E-03 0. -1.
    9900012    2    1    2    0    0  0.22449426164E+02 -0.10174638066E+02  0.20229191550E+02  0.59301949984E+02  0.50000010862E+02 0.  0.
         12    1    1    2    0    0 -0.22449426164E+02  0.10174638066E+02 -0.20229191550E+02  0.31886050016E+02  0.00000000000E+00 0. -1.
         11    1    3    3    0    0  0.23353143895E+02  0.45178920238E+01  0.56495999180E+01  0.24447876342E+02  0.51100000000E-03 0. -1.
        -11    1    3    3    0    0 -0.52187729859E+01 -0.21354330241E+02  0.52425192362E+01  0.22599270336E+02  0.51100000000E-03 0.  1.
         12    1    3    3    0    0  0.43150552550E+01  0.66618001521E+01  0.93370723961E+01  0.12254803305E+02  0.00000000000E+00 0. -1.
</event>
<event>
 7    1  0.4346085E-013  0.5930195E+02  0.7816164E-02  0.1266605E+00
        -11   -1    0    0    0    0  0.00000000000E+00  0.00000000000E+00  0.45593999997E+02  0.45594000000E+02  0.51100000000E-03 0. -1.
         11   -1    0    0    0    0 -0.00000000000E+00 -0.00000000000E+00 -0.45593999997E+02  0.45594000000E+02  0.51100000000E-03 0.  1.
    9900012    2    1    2    0    0 -0.18148644981E+02  0.21685043846E+02 -0.14734506400E+02  0.59301951012E+02  0.50000012737E+02 0.  0.
         12    1    1    2    0    0  0.18148644981E+02 -0.21685043846E+02  0.14734506400E+02  0.31886048988E+02  0.00000000000E+00 0. -1.
         11    1    3    3    0    0 -0.43829685459E+01  0.94500994790E+01  0.95693927860E+01  0.14145249096E+02  0.51100000000E-03 0. -1.
        -11    1    3    3    0    0 -0.24106536385E+02  0.40608050935E+01 -0.18944131044E+02  0.30927258782E+02  0.51100000000E-03 0.  1.
        -12    1    3    3    0    0  0.10340859950E+02  0.81741392732E+01 -0.53597681422E+01  0.14229443134E+02  0.00000000000E+00 0.  1.
</event>
<event>
 7    1  0.4346085E-013  0.5930196E+02  0.7816164E-02  0.1266605E+00
        -11   -1    0    0    0    0  0.00000000000E+00  0.00000000000E+00  0.45593999997E+02  0.45594000000E+02  0.51100000000E-03 0.  1.
         11   -1    0    0    0    0 -0.00000000000E+00 -0.00000000000E+00 -0.45593999997E+02  0.45594000000E+02  0.51100000000E-03 0. -1.
    9900012    2    1    2    0    0  0.12985173180E+02 -0.24031699507E+02 -0.16449380950E+02  0.59301961717E+02  0.50000032262E+02 0.  0.
         12    1    1    2    0    0 -0.12985173180E+02  0.24031699507E+02  0.16449380950E+02  0.31886038283E+02  0.00000000000E+00 0. -1.
         11    1    3    3    0    0  0.15811940757E+02  0.78933419175E+01 -0.13743816904E+02  0.22387827507E+02  0.51100000000E-03 0. -1.
        -11    1    3    3    0    0 -0.23686137378E+00 -0.22732011790E+02  0.65049802037E+01  0.23645617587E+02  0.51100000000E-03 0.  1.
        -12    1    3    3    0    0 -0.25899062040E+01 -0.91930296346E+01 -0.92105442497E+01  0.13268516623E+02  0.00000000000E+00 0.  1.
</event>
<event>
 7    1  0.4346085E-013  0.5930194E+02  0.7816164E-02  0.1266605E+00
        -11   -1    0    0    0    0  0.00000000000E+00  0.00000000000E+00  0.45593999997E+02  0.45594000000E+02  0.51100000000E-03 0. -1.
         11   -1    0    0    0    0 -0.00000000000E+00 -0.00000000000E+00 -0.45593999997E+02  0.45594000000E+02  0.51100000000E-03 0.  1.
    9900012    2    1    2    0    0  0.22989233873E+02  0.17885765132E+02 -0.12973635277E+02  0.59301942220E+02  0.49999996704E+02 0.  0.
         12    1    1    2    0    0 -0.22989233873E+02 -0.17885765132E+02  0.12973635277E+02  0.31886057780E+02  0.00000000000E+00 0. -1.
         11    1    3    3    0    0  0.97364155203E+01 -0.55317529714E+01  0.13291497571E+02  0.17379930554E+02  0.51100000000E-03 0. -1.
        -11    1    3    3    0    0  0.21451817528E+01  0.18768085391E+02 -0.22341935531E+02  0.29257561715E+02  0.51100000000E-03 0.  1.
         12    1    3    3    0    0  0.11107636600E+02  0.46494327123E+01 -0.39231973171E+01  0.12664449951E+02  0.00000000000E+00 0. -1.
</event>
<event>
 7    1  0.4346085E-013  0.5930179E+02  0.7816164E-02  0.1266605E+00
        -11   -1    0    0    0    0  0.00000000000E+00  0.00000000000E+00  0.45593999997E+02  0.45594000000E+02  0.51100000000E-03 0.  1.
         11   -1    0    0    0    0 -0.00000000000E+00 -0.00000000000E+00 -0.45593999997E+02  0.45594000000E+02  0.51100000000E-03 0. -1.
    9900012    2    1    2    0    0  0.25331262779E+02 -0.16644874584E+02  0.98997925538E+01  0.59301786419E+02  0.49999712559E+02 0.  0.
         12    1    1    2    0    0 -0.25331262779E+02  0.16644874584E+02 -0.98997925538E+01  0.31886213581E+02  0.00000000000E+00 0. -1.
         11    1    3    3    0    0  0.40275627019E+01  0.16883216629E+00 -0.12255258786E+02  0.12901206680E+02  0.51100000000E-03 0. -1.
        -11    1    3    3    0    0 -0.37908615771E+01 -0.80595732385E+01  0.17193937852E+02  0.19363854250E+02  0.51100000000E-03 0.  1.
        -12    1    3    3    0    0  0.25094561655E+02 -0.87541335118E+01  0.49611134880E+01  0.27036725490E+02  0.00000000000E+00 0.  1.
</event>
<event>
 7    1  0.4346085E-013  0.5930193E+02  0.7816164E-02  0.1266605E+00
        -11   -1    0    0    0    0  0.00000000000E+00  0.00000000000E+00  0.45593999997E+02  0.45594000000E+02  0.51100000000E-03 0. -1.
         11   -1    0    0    0    0 -0.00000000000E+00 -0.00000000000E+00 -0.45593999997E+02  0.45594000000E+02  0.51100000000E-03 0.  1.
    9900012    2    1    2    0    0  0.27627248354E+02 -0.37654687989E+01 -0.15468600494E+02  0.59301933950E+02  0.49999981621E+02 0.  0.
         12    1    1    2    0    0 -0.27627248354E+02  0.37654687989E+01  0.15468600494E+02  0.31886066050E+02  0.00000000000E+00 0. -1.
         11    1    3    3    0    0 -0.32151896359E+01  0.88206583908E+01  0.12027068896E+02  0.15257517666E+02  0.51100000000E-03 0. -1.
        -11    1    3    3    0    0  0.43559193511E+01 -0.17928922134E+01 -0.84746457747E+01  0.96957783159E+01  0.51100000000E-03 0.  1.
         12    1    3    3    0    0  0.26486518639E+02 -0.10793234976E+02 -0.19021023616E+02  0.34348637968E+02  0.00000000000E+00 0. -1.
</event>
<event>
 7    1  0.4346085E-013  0.5930194E+02  0.7816164E-02  0.1266605E+00
        -11   -1    0    0    0    0  0.00000000000E+00  0.00000000000E+00  0.45593999997E+02  0.45594000000E+02  0.51100000000E-03 0. -1.
         11   -1    0    0    0    0 -0.00000000000E+00 -0.00000000000E+00 -0.45593999997E+02  0.45594000000E+02  0.51100000000E-03 0.  1.
    9900012    2    1    2    0    0  0.27200518622E+02  0.70753841303E+01 -0.15059601153E+02  0.59301939397E+02  0.49999991555E+02 0.  0.
         12    1    1    2    0    0 -0.27200518622E+02 -0.70753841303E+01  0.15059601153E+02  0.31886060603E+02  0.00000000000E+00 0. -1.
         11    1    3    3    0    0 -0.11566239207E+01  0.21687414350E+01  0.12179957332E+02  0.12425481045E+02  0.51100000000E-03 0. -1.
        -11    1    3    3    0    0  0.26996188651E+02 -0.54488652730E+01 -0.21641561624E+02  0.35026297610E+02  0.51100000000E-03 0.  1.
         12    1    3    3    0    0  0.13609538910E+01  0.10355507968E+02 -0.55979968614E+01  0.11850160743E+02  0.00000000000E+00 0. -1.
</event>
<event>
 7    1  0.4346085E-013  0.5930194E+02  0.7816164E-02  0.1266605E+00
        -11   -1    0    0    0    0  0.00000000000E+00  0.00000000000E+00  0.45593999997E+02  0.45594000000E+02  0.51100000000E-03 0. -1.
         11   -1    0    0    0    0 -0.00000000000E+00 -0.00000000000E+00 -0.45593999997E+02  0.45594000000E+02  0.51100000000E-03 0.  1.
    9900012    2    1    2    0    0  0.31164708476E+02 -0.67440011628E+01  0.45172860480E-02  0.59301943071E+02  0.49999998255E+02 0.  0.
         12    1    1    2    0    0 -0.31164708476E+02  0.67440011628E+01 -0.45172860480E-02  0.31886056929E+02  0.00000000000E+00 0. -1.
         11    1    3    3    0    0 -0.78189795365E+01  0.62424241411E+01 -0.67060593040E+01  0.12044730458E+02  0.51100000000E-03 0. -1.
        -11    1    3    3    0    0  0.28467877561E+02  0.15368456792E+01  0.13452196892E+01  0.28541050502E+02  0.51100000000E-03 0.  1.
         12    1    3    3    0    0  0.10515810451E+02 -0.14523270983E+02  0.53653569009E+01  0.18716162111E+02  0.00000000000E+00 0. -1.
</event>
<event>
 7    1  0.4346085E-013  0.5930199E+02  0.7816164E-02  0.1266605E+00
        -11   -1    0    0    0    0  0.00000000000E+00  0.00000000000E+00  0.45593999997E+02  0.45594000000E+02  0.51100000000E-03 0. -1.
         11   -1    0    0    0    0 -0.00000000000E+00 -0.00000000000E+00 -0.45593999997E+02  0.45594000000E+02  0.51100000000E-03 0.  1.
    9900012    2    1    2    0    0 -0.37366483000E+01 -0.31480451815E+02  0.34258553870E+01  0.59301986261E+02  0.50000077024E+02 0.  0.
         12    1    1    2    0    0  0.37366483000E+01  0.31480451815E+02 -0.34258553870E+01  0.31886013739E+02  0.00000000000E+00 0. -1.
         11    1    3    3    0    0 -0.22359980642E+02 -0.66756948148E+01  0.10509227635E+02  0.25592528233E+02  0.51100000000E-03 0. -1.
        -11    1    3    3    0    0  0.11342844129E+02 -0.12449105787E+02 -0.92356320210E+01  0.19207739245E+02  0.51100000000E-03 0.  1.
         12    1    3    3    0    0  0.72804882138E+01 -0.12355651214E+02  0.21522597726E+01  0.14501718783E+02  0.00000000000E+00 0. -1.
</event>
<event>
 7    1  0.4346085E-013  0.5930193E+02  0.7816164E-02  0.1266605E+00
        -11   -1    0    0    0    0  0.00000000000E+00  0.00000000000E+00  0.45593999997E+02  0.45594000000E+02  0.51100000000E-03 0.  1.
         11   -1    0    0    0    0 -0.00000000000E+00 -0.00000000000E+00 -0.45593999997E+02  0.45594000000E+02  0.51100000000E-03 0. -1.
    9900012    2    1    2    0    0  0.20476638079E+02  0.24428608645E+02  0.81949727869E+00  0.59301934029E+02  0.49999981764E+02 0.  0.
         12    1    1    2    0    0 -0.20476638079E+02 -0.24428608645E+02 -0.81949727869E+00  0.31886065971E+02  0.00000000000E+00 0. -1.
         11    1    3    3    0    0  0.16074978191E+02 -0.16428300396E+01  0.96638268112E+01  0.18827994138E+02  0.51100000000E-03 0. -1.
        -11    1    3    3    0    0  0.92191177166E+01  0.29389924389E+02 -0.11698140052E+01  0.30824150469E+02  0.51100000000E-03 0.  1.
         12    1    3    3    0    0 -0.48174578284E+01 -0.33184857045E+01 -0.76745155273E+01  0.96497894215E+01  0.00000000000E+00 0. -1.
</event>
<event>
 7    1  0.4346085E-013  0.5930194E+02  0.7816164E-02  0.1266605E+00
        -11   -1    0    0    0    0  0.00000000000E+00  0.00000000000E+00  0.45593999997E+02  0.45594000000E+02  0.51100000000E-03 0.  1.
         11   -1    0    0    0    0 -0.00000000000E+00 -0.00000000000E+00 -0.45593999997E+02  0.45594000000E+02  0.51100000000E-03 0. -1.
    9900012    2    1    2    0    0 -0.28507774095E+02 -0.12762400275E+02 -0.64147209878E+01  0.59301942076E+02  0.49999996440E+02 0.  0.
         12    1    1    2    0    0  0.28507774095E+02  0.12762400275E+02  0.64147209878E+01  0.31886057924E+02  0.00000000000E+00 0. -1.
         11    1    3    3    0    0  0.12004968948E+02 -0.88905156937E+01  0.21775017764E+01  0.15096425503E+02  0.51100000000E-03 0. -1.
        -11    1    3    3    0    0 -0.15711762967E+02  0.30571461787E+01 -0.91723706024E+01  0.18448252520E+02  0.51100000000E-03 0.  1.
         12    1    3    3    0    0 -0.24800980075E+02 -0.69290307600E+01  0.58014783817E+00  0.25757264052E+02  0.00000000000E+00 0. -1.
</event>
<event>
 7    1  0.4346085E-013  0.5930194E+02  0.7816164E-02  0.1266605E+00
        -11   -1    0    0    0    0  0.00000000000E+00  0.00000000000E+00  0.45593999997E+02  0.45594000000E+02  0.51100000000E-03 0.  1.
         11   -1    0    0    0    0 -0.00000000000E+00 -0.00000000000E+00 -0.45593999997E+02  0.45594000000E+02  0.51100000000E-03 0. -1.
    9900012    2    1    2    0    0 -0.18334732980E+01 -0.13342403306E+02  0.28902234788E+02  0.59301944646E+02  0.50000001127E+02 0.  0.
         12    1    1    2    0    0  0.18334732980E+01  0.13342403306E+02 -0.28902234788E+02  0.31886055354E+02  0.00000000000E+00 0. -1.
         11    1    3    3    0    0 -0.97344386823E+01 -0.95979858726E-02 -0.78198957982E+01  0.12486398966E+02  0.51100000000E-03 0. -1.
        -11    1    3    3    0    0  0.97795741548E+01 -0.18708141939E+02  0.34988106587E+02  0.40863213876E+02  0.51100000000E-03 0.  1.
        -12    1    3    3    0    0 -0.18786087704E+01  0.53753366185E+01  0.17340239992E+01  0.59523318040E+01  0.00000000000E+00 0.  1.
</event>
<event>
 7    1  0.4346085E-013  0.5930196E+02  0.7816164E-02  0.1266605E+00
        -11   -1    0    0    0    0  0.00000000000E+00  0.00000000000E+00  0.45593999997E+02  0.45594000000E+02  0.51100000000E-03 0. -1.
         11   -1    0    0    0    0 -0.00000000000E+00 -0.00000000000E+00 -0.45593999997E+02  0.45594000000E+02  0.51100000000E-03 0.  1.
    9900012    2    1    2    0    0  0.29671861052E+02 -0.54797507547E+01  0.10308860746E+02  0.59301958908E+02  0.50000027138E+02 0.  0.
         12    1    1    2    0    0 -0.29671861052E+02  0.54797507547E+01 -0.10308860746E+02  0.31886041092E+02  0.00000000000E+00 0. -1.
         11    1    3    3    0    0  0.10076660884E+02  0.14521493450E+02  0.74225772353E+01  0.19170485640E+02  0.51100000000E-03 0. -1.
        -11    1    3    3    0    0  0.96313277397E+01 -0.22803948533E+02  0.10893395900E+02  0.27045306750E+02  0.51100000000E-03 0.  1.
        -12    1    3    3    0    0  0.99638724283E+01  0.28027043276E+01 -0.80071123894E+01  0.13086166518E+02  0.00000000000E+00 0.  1.
</event>
<event>
 7    1  0.4346085E-013  0.5930190E+02  0.7816164E-02  0.1266605E+00
        -11   -1    0    0    0    0  0.00000000000E+00  0.00000000000E+00  0.45593999997E+02  0.45594000000E+02  0.51100000000E-03 0. -1.
         11   -1    0    0    0    0 -0.00000000000E+00 -0.00000000000E+00 -0.45593999997E+02  0.45594000000E+02  0.51100000000E-03 0.  1.
    9900012    2    1    2    0    0  0.19278591077E+02  0.23960639881E+02 -0.84230249052E+01  0.59301895096E+02  0.49999910760E+02 0.  0.
         12    1    1    2    0    0 -0.19278591077E+02 -0.23960639881E+02  0.84230249052E+01  0.31886104904E+02  0.00000000000E+00 0. -1.
         11    1    3    3    0    0  0.25627441153E+02  0.10649843664E+02 -0.20241537126E+02  0.34349741419E+02  0.51100000000E-03 0. -1.
        -11    1    3    3    0    0 -0.16261248134E+01  0.16032908860E+02  0.10819501161E+02  0.19410307933E+02  0.51100000000E-03 0.  1.
         12    1    3    3    0    0 -0.47227252625E+01 -0.27221126432E+01  0.99901105954E+00  0.55418457435E+01  0.00000000000E+00 0. -1.
</event>
<event>
 7    1  0.4346085E-013  0.5930199E+02  0.7816164E-02  0.1266605E+00
        -11   -1    0    0    0    0  0.00000000000E+00  0.00000000000E+00  0.45593999997E+02  0.45594000000E+02  0.51100000000E-03 0. -1.
         11   -1    0    0    0    0 -0.00000000000E+00 -0.00000000000E+00 -0.45593999997E+02  0.45594000000E+02  0.51100000000E-03 0.  1.
    9900012    2    1    2    0    0 -0.46740666547E+01 -0.51853370391E+01 -0.31112420515E+02  0.59301994769E+02  0.50000092540E+02 0.  0.
         12    1    1    2    0    0  0.46740666547E+01  0.51853370391E+01  0.31112420515E+02  0.31886005231E+02  0.00000000000E+00 0. -1.
         11    1    3    3    0    0 -0.18971623188E+02  0.18887358789E+01 -0.45902506580E+01  0.19610206805E+02  0.51100000000E-03 0. -1.
        -11    1    3    3    0    0  0.16007595621E+02  0.14823772892E+01 -0.26466007835E+02  0.30965951155E+02  0.51100000000E-03 0.  1.
         12    1    3    3    0    0 -0.17100390877E+01 -0.85564502072E+01 -0.56162022152E-01  0.87258368081E+01  0.00000000000E+00 0. -1.
</event>
<event>
 7    1  0.4346085E-013  0.5930190E+02  0.7816164E-02  0.1266605E+00
        -11   -1    0    0    0    0  0.00000000000E+00  0.00000000000E+00  0.45593999997E+02  0.45594000000E+02  0.51100000000E-03 0.  1.
         11   -1    0    0    0    0 -0.00000000000E+00 -0.00000000000E+00 -0.45593999997E+02  0.45594000000E+02  0.51100000000E-03 0. -1.
    9900012    2    1    2    0    0  0.24905864702E+02  0.18390542063E+02  0.76294961593E+01  0.59301900434E+02  0.49999920495E+02 0.  0.
         12    1    1    2    0    0 -0.24905864702E+02 -0.18390542063E+02 -0.76294961593E+01  0.31886099566E+02  0.00000000000E+00 0. -1.
         11    1    3    3    0    0  0.83486663916E+01  0.80943273677E+01 -0.61741729564E+01  0.13165818547E+02  0.51100000000E-03 0. -1.
        -11    1    3    3    0    0  0.11846511716E+02  0.14000974977E+02  0.26423983810E+02  0.32165106262E+02  0.51100000000E-03 0.  1.
        -12    1    3    3    0    0  0.47106865937E+01 -0.37047602810E+01 -0.12620314695E+02  0.13970975625E+02  0.00000000000E+00 0.  1.
</event>
<event>
 7    1  0.4346085E-013  0.5930202E+02  0.7816164E-02  0.1266605E+00
        -11   -1    0    0    0    0  0.00000000000E+00  0.00000000000E+00  0.45593999997E+02  0.45594000000E+02  0.51100000000E-03 0.  1.
         11   -1    0    0    0    0 -0.00000000000E+00 -0.00000000000E+00 -0.45593999997E+02  0.45594000000E+02  0.51100000000E-03 0. -1.
    9900012    2    1    2    0    0 -0.42500607045E+01  0.15801500395E+02  0.27367232520E+02  0.59302018025E+02  0.50000134953E+02 0.  0.
         12    1    1    2    0    0  0.42500607045E+01 -0.15801500395E+02 -0.27367232520E+02  0.31885981975E+02  0.00000000000E+00 0. -1.
         11    1    3    3    0    0  0.55380983344E+01  0.28685191792E+01  0.21121152642E+01  0.65848285166E+01  0.51100000000E-03 0. -1.
        -11    1    3    3    0    0 -0.19971275134E+02 -0.84307967812E+01  0.68439840547E+01  0.22732581966E+02  0.51100000000E-03 0.  1.
        -12    1    3    3    0    0  0.10183116095E+02  0.21363777997E+02  0.18411133201E+02  0.29984607542E+02  0.00000000000E+00 0.  1.
</event>
<event>
 7    1  0.4346085E-013  0.5930194E+02  0.7816164E-02  0.1266605E+00
        -11   -1    0    0    0    0  0.00000000000E+00  0.00000000000E+00  0.45593999997E+02  0.45594000000E+02  0.51100000000E-03 0. -1.
         11   -1    0    0    0    0 -0.00000000000E+00 -0.00000000000E+00 -0.45593999997E+02  0.45594000000E+02  0.51100000000E-03 0.  1.
    9900012    2    1    2    0    0  0.14648963864E+02 -0.12985135776E+02 -0.25169726134E+02  0.59301937103E+02  0.49999987371E+02 0.  0.
         12    1    1    2    0    0 -0.14648963864E+02  0.12985135776E+02  0.25169726134E+02  0.31886062897E+02  0.00000000000E+00 0. -1.
         11    1    3    3    0    0 -0.87741828592E+01 -0.51232355114E+01  0.68163459797E+01  0.12235048007E+02  0.51100000000E-03 0. -1.
        -11    1    3    3    0    0  0.89378094698E+00 -0.73754818892E+01 -0.20436259085E+02  0.21744821524E+02  0.51100000000E-03 0.  1.
         12    1    3    3    0    0  0.22529365776E+02 -0.48641837587E+00 -0.11549813029E+02  0.25322067572E+02  0.00000000000E+00 0. -1.
</event>
<event>
 7    1  0.4346085E-013  0.5930203E+02  0.7816164E-02  0.1266604E+00
        -11   -1    0    0    0    0  0.00000000000E+00  0.00000000000E+00  0.45593999997E+02  0.45594000000E+02  0.51100000000E-03 0.  1.
         11   -1    0    0    0    0 -0.00000000000E+00 -0.00000000000E+00 -0.45593999997E+02  0.45594000000E+02  0.51100000000E-03 0. -1.
    9900012    2    1    2    0    0 -0.21102731366E+02  0.14519802663E+02  0.18988554242E+02  0.59302029218E+02  0.50000155367E+02 0.  0.
         12    1    1    2    0    0  0.21102731366E+02 -0.14519802663E+02 -0.18988554242E+02  0.31885970782E+02  0.00000000000E+00 0. -1.
         11    1    3    3    0    0  0.52201867409E+01  0.12120530900E+02 -0.12860988227E+01  0.13259399283E+02  0.51100000000E-03 0. -1.
        -11    1    3    3    0    0 -0.12594683440E+02 -0.99215487359E+01  0.22321648668E+02  0.27483070785E+02  0.51100000000E-03 0.  1.
         12    1    3    3    0    0 -0.13728234667E+02  0.12320820499E+02 -0.20469956032E+01  0.18559559150E+02  0.00000000000E+00 0. -1.
</event>
<event>
 7    1  0.4346085E-013  0.5930194E+02  0.7816164E-02  0.1266605E+00
        -11   -1    0    0    0    0  0.00000000000E+00  0.00000000000E+00  0.45593999997E+02  0.45594000000E+02  0.51100000000E-03 0.  1.
         11   -1    0    0    0    0 -0.00000000000E+00 -0.00000000000E+00 -0.45593999997E+02  0.45594000000E+02  0.51100000000E-03 0. -1.
    9900012    2    1    2    0    0  0.12050858145E+02 -0.10886233869E+02  0.27440618036E+02  0.59301940537E+02  0.49999993633E+02 0.  0.
         12    1    1    2    0    0 -0.12050858145E+02  0.10886233869E+02 -0.27440618036E+02  0.31886059463E+02  0.00000000000E+00 0. -1.
         11    1    3    3    0    0  0.41954709444E+01 -0.16570321836E+02  0.77468809979E+00  0.17110747620E+02  0.51100000000E-03 0. -1.
        -11    1    3    3    0    0  0.14473691940E+02  0.44743656060E+01  0.30779194848E+02  0.34305488507E+02  0.51100000000E-03 0.  1.
         12    1    3    3    0    0 -0.66183047391E+01  0.12097223611E+01 -0.41132649117E+01  0.78857044102E+01  0.00000000000E+00 0. -1.
</event>
<event>
 7    1  0.4346085E-013  0.5930190E+02  0.7816164E-02  0.1266605E+00
        -11   -1    0    0    0    0  0.00000000000E+00  0.00000000000E+00  0.45593999997E+02  0.45594000000E+02  0.51100000000E-03 0. -1.
         11   -1    0    0    0    0 -0.00000000000E+00 -0.00000000000E+00 -0.45593999997E+02  0.45594000000E+02  0.51100000000E-03 0.  1.
    9900012    2    1    2    0    0 -0.23950334287E+02 -0.11013836472E+02 -0.17938797536E+02  0.59301897018E+02  0.49999914266E+02 0.  0.
         12    1    1    2    0    0  0.23950334287E+02  0.11013836472E+02  0.17938797536E+02  0.31886102982E+02  0.00000000000E+00 0. -1.
         11    1    3    3    0    0 -0.16837552685E+02  0.16249014565E+01  0.40769699350E+01  0.17400148542E+02  0.51100000000E-03 0. -1.
        -11    1    3    3    0    0  0.86956345174E+01  0.27186051710E+01 -0.17016606774E+02  0.19302066731E+02  0.51100000000E-03 0.  1.
        -12    1    3    3    0    0 -0.15808416119E+02 -0.15357343100E+02 -0.49991606970E+01  0.22599681745E+02  0.00000000000E+00 0.  1.
</event>
<event>
 7    1  0.4346085E-013  0.5930194E+02  0.7816164E-02  0.1266605E+00
        -11   -1    0    0    0    0  0.00000000000E+00  0.00000000000E+00  0.45593999997E+02  0.45594000000E+02  0.51100000000E-03 0. -1.
         11   -1    0    0    0    0 -0.00000000000E+00 -0.00000000000E+00 -0.45593999997E+02  0.45594000000E+02  0.51100000000E-03 0.  1.
    9900012    2    1    2    0    0  0.15735096718E+02 -0.27378427657E+02  0.44214496788E+01  0.59301940555E+02  0.49999993666E+02 0.  0.
         12    1    1    2    0    0 -0.15735096718E+02  0.27378427657E+02 -0.44214496788E+01  0.31886059445E+02  0.00000000000E+00 0. -1.
         11    1    3    3    0    0 -0.11978698327E+02 -0.12549293682E+02  0.26514781555E+01  0.17550051914E+02  0.51100000000E-03 0. -1.
        -11    1    3    3    0    0  0.17596055339E+02 -0.20849710217E+02  0.80006125021E+01  0.28431345031E+02  0.51100000000E-03 0.  1.
         12    1    3    3    0    0  0.10117739705E+02  0.60205762417E+01 -0.62306409788E+01  0.13320543609E+02  0.00000000000E+00 0. -1.
</event>
<event>
 7    1  0.4346085E-013  0.5930195E+02  0.7816164E-02  0.1266605E+00
        -11   -1    0    0    0    0  0.00000000000E+00  0.00000000000E+00  0.45593999997E+02  0.45594000000E+02  0.51100000000E-03 0. -1.
         11   -1    0    0    0    0 -0.00000000000E+00 -0.00000000000E+00 -0.45593999997E+02  0.45594000000E+02  0.51100000000E-03 0.  1.
    9900012    2    1    2    0    0 -0.14684087691E+02  0.17796060480E+02 -0.22009049016E+02  0.59301946018E+02  0.50000003630E+02 0.  0.
         12    1    1    2    0    0  0.14684087691E+02 -0.17796060480E+02  0.22009049016E+02  0.31886053982E+02  0.00000000000E+00 0. -1.
         11    1    3    3    0    0 -0.11651425934E+02 -0.94549920426E+01  0.53662118176E+01  0.15935772035E+02  0.51100000000E-03 0. -1.
        -11    1    3    3    0    0  0.48464189464E+01  0.19457434842E+02 -0.24971840859E+02  0.32026120330E+02  0.51100000000E-03 0.  1.
        -12    1    3    3    0    0 -0.78790807040E+01  0.77936176810E+01 -0.24034199748E+01  0.11340053654E+02  0.00000000000E+00 0.  1.
</event>
<event>
 7    1  0.4346085E-013  0.5930194E+02  0.7816164E-02  0.1266605E+00
        -11   -1    0    0    0    0  0.00000000000E+00  0.00000000000E+00  0.45593999997E+02  0.45594000000E+02  0.51100000000E-03 0. -1.
         11   -1    0    0    0    0 -0.00000000000E+00 -0.00000000000E+00 -0.45593999997E+02  0.45594000000E+02  0.51100000000E-03 0.  1.
    9900012    2    1    2    0    0 -0.90797530037E+01  0.73730189458E+01 -0.29663408249E+02  0.59301935459E+02  0.49999984372E+02 0.  0.
         12    1    1    2    0    0  0.90797530037E+01 -0.73730189458E+01  0.29663408249E+02  0.31886064541E+02  0.00000000000E+00 0. -1.
         11    1    3    3    0    0 -0.86420767266E+01  0.81201818114E+01  0.44915344485E+01  0.12680564844E+02  0.51100000000E-03 0.  1.
        -11    1    3    3    0    0 -0.69586591846E+01 -0.13988531254E+02 -0.10799674677E+02  0.18993022869E+02  0.51100000000E-03 0. -1.
        -12    1    3    3    0    0  0.65209829075E+01  0.13241368388E+02 -0.23355268020E+02  0.27628347746E+02  0.00000000000E+00 0.  1.
</event>
<event>
 7    1  0.4346085E-013  0.5930208E+02  0.7816164E-02  0.1266604E+00
        -11   -1    0    0    0    0  0.00000000000E+00  0.00000000000E+00  0.45593999997E+02  0.45594000000E+02  0.51100000000E-03 0.  1.
         11   -1    0    0    0    0 -0.00000000000E+00 -0.00000000000E+00 -0.45593999997E+02  0.45594000000E+02  0.51100000000E-03 0. -1.
    9900012    2    1    2    0    0 -0.92556357415E+01 -0.40538244598E+01  0.30242549651E+02  0.59302076850E+02  0.50000242235E+02 0.  0.
         12    1    1    2    0    0  0.92556357415E+01  0.40538244598E+01 -0.30242549651E+02  0.31885923150E+02  0.00000000000E+00 0. -1.
         11    1    3    3    0    0  0.19441703372E+01  0.30431813657E+01 -0.37604614073E+01  0.52136188374E+01  0.51100000000E-03 0. -1.
        -11    1    3    3    0    0  0.51300025791E+01 -0.19652904646E+02  0.10598876940E+02  0.22910473154E+02  0.51100000000E-03 0.  1.
        -12    1    3    3    0    0 -0.16329808658E+02  0.12555898820E+02  0.23404134118E+02  0.31177984858E+02  0.00000000000E+00 0.  1.
</event>
<event>
 7    1  0.4346085E-013  0.5930198E+02  0.7816164E-02  0.1266605E+00
        -11   -1    0    0    0    0  0.00000000000E+00  0.00000000000E+00  0.45593999997E+02  0.45594000000E+02  0.51100000000E-03 0. -1.
         11   -1    0    0    0    0 -0.00000000000E+00 -0.00000000000E+00 -0.45593999997E+02  0.45594000000E+02  0.51100000000E-03 0.  1.
    9900012    2    1    2    0    0  0.19369471284E+02  0.24679567232E+02 -0.56974668544E+01  0.59301975081E+02  0.50000056633E+02 0.  0.
         12    1    1    2    0    0 -0.19369471284E+02 -0.24679567232E+02  0.56974668544E+01  0.31886024919E+02  0.00000000000E+00 0. -1.
         11    1    3    3    0    0  0.66276098348E+01 -0.23097257255E+01  0.17708409692E+02  0.19048564752E+02  0.51100000000E-03 0. -1.
        -11    1    3    3    0    0  0.33529814101E+01  0.11668224982E+02 -0.19979755098E+01  0.12303733781E+02  0.51100000000E-03 0.  1.
         12    1    3    3    0    0  0.93888800394E+01  0.15321067976E+02 -0.21407901036E+02  0.27949676547E+02  0.00000000000E+00 0. -1.
</event>
<event>
 7    1  0.4346085E-013  0.5930195E+02  0.7816164E-02  0.1266605E+00
        -11   -1    0    0    0    0  0.00000000000E+00  0.00000000000E+00  0.45593999997E+02  0.45594000000E+02  0.51100000000E-03 0. -1.
         11   -1    0    0    0    0 -0.00000000000E+00 -0.00000000000E+00 -0.45593999997E+02  0.45594000000E+02  0.51100000000E-03 0.  1.
    9900012    2    1    2    0    0 -0.18275375518E+00 -0.31195319903E+02 -0.65983894207E+01  0.59301950923E+02  0.50000012575E+02 0.  0.
         12    1    1    2    0    0  0.18275375518E+00  0.31195319903E+02  0.65983894207E+01  0.31886049077E+02  0.00000000000E+00 0. -1.
         11    1    3    3    0    0 -0.58599211906E+01 -0.23790460803E+02  0.19669381544E+02  0.31419886571E+02  0.51100000000E-03 0. -1.
        -11    1    3    3    0    0  0.64471348141E+00 -0.95249272761E+00 -0.27260783614E+01  0.29587837641E+01  0.51100000000E-03 0.  1.
         12    1    3    3    0    0  0.50324539540E+01 -0.64523663726E+01 -0.23541692603E+02  0.24923280587E+02  0.00000000000E+00 0. -1.
</event>
<event>
 7    1  0.4346085E-013  0.5930196E+02  0.7816164E-02  0.1266605E+00
        -11   -1    0    0    0    0  0.00000000000E+00  0.00000000000E+00  0.45593999997E+02  0.45594000000E+02  0.51100000000E-03 0.  1.
         11   -1    0    0    0    0 -0.00000000000E+00 -0.00000000000E+00 -0.45593999997E+02  0.45594000000E+02  0.51100000000E-03 0. -1.
    9900012    2    1    2    0    0 -0.11608747600E+02  0.25459963890E+02 -0.15288784280E+02  0.59301957491E+02  0.50000024554E+02 0.  0.
         12    1    1    2    0    0  0.11608747600E+02 -0.25459963890E+02  0.15288784280E+02  0.31886042509E+02  0.00000000000E+00 0. -1.
         11    1    3    3    0    0  0.38667532327E+01 -0.68998304745E+01  0.16324033522E+01  0.80761489650E+01  0.51100000000E-03 0. -1.
        -11    1    3    3    0    0 -0.21868456046E+02  0.23573723901E+02 -0.12796655267E+01  0.32180543384E+02  0.51100000000E-03 0.  1.
        -12    1    3    3    0    0  0.63929552130E+01  0.87860704640E+01 -0.15641522105E+02  0.19045265142E+02  0.00000000000E+00 0.  1.
</event>
<event>
 7    1  0.4346085E-013  0.5930191E+02  0.7816164E-02  0.1266605E+00
        -11   -1    0    0    0    0  0.00000000000E+00  0.00000000000E+00  0.45593999997E+02  0.45594000000E+02  0.51100000000E-03 0.  1.
         11   -1    0    0    0    0 -0.00000000000E+00 -0.00000000000E+00 -0.45593999997E+02  0.45594000000E+02  0.51100000000E-03 0. -1.
    9900012    2    1    2    0    0 -0.17896211159E+02 -0.16829515793E+02  0.20327705422E+02  0.59301912385E+02  0.49999942291E+02 0.  0.
         12    1    1    2    0    0  0.17896211159E+02  0.16829515793E+02 -0.20327705422E+02  0.31886087615E+02  0.00000000000E+00 0. -1.
         11    1    3    3    0    0  0.12669852272E+02 -0.13098238632E+02  0.75191731771E+01  0.19713624156E+02  0.51100000000E-03 0.  1.
        -11    1    3    3    0    0 -0.11034864629E+02 -0.81988543823E+01 -0.29953359287E+01  0.14069878754E+02  0.51100000000E-03 0. -1.
         12    1    3    3    0    0 -0.19531198802E+02  0.44675772217E+01  0.15803868174E+02  0.25518409475E+02  0.00000000000E+00 0. -1.
</event>
<event>
 7    1  0.4346085E-013  0.5930192E+02  0.7816164E-02  0.1266605E+00
        -11   -1    0    0    0    0  0.00000000000E+00  0.00000000000E+00  0.45593999997E+02  0.45594000000E+02  0.51100000000E-03 0. -1.
         11   -1    0    0    0    0 -0.00000000000E+00 -0.00000000000E+00 -0.45593999997E+02  0.45594000000E+02  0.51100000000E-03 0.  1.
    9900012    2    1    2    0    0 -0.10466333562E+02  0.30096783074E+02  0.11667991246E+01  0.59301922947E+02  0.49999961554E+02 0.  0.
         12    1    1    2    0    0  0.10466333562E+02 -0.30096783074E+02 -0.11667991246E+01  0.31886077053E+02  0.00000000000E+00 0. -1.
         11    1    3    3    0    0 -0.18335729108E+01  0.22001558405E+02  0.20569384706E+02  0.30174992118E+02  0.51100000000E-03 0. -1.
        -11    1    3    3    0    0  0.50402533230E+00  0.11577737800E+02 -0.78764215726E+01  0.14011997400E+02  0.51100000000E-03 0.  1.
         12    1    3    3    0    0 -0.91367859837E+01 -0.34825131306E+01 -0.11526164008E+02  0.15114933429E+02  0.00000000000E+00 0. -1.
</event>
<event>
 7    1  0.4346085E-013  0.5930192E+02  0.7816164E-02  0.1266605E+00
        -11   -1    0    0    0    0  0.00000000000E+00  0.00000000000E+00  0.45593999997E+02  0.45594000000E+02  0.51100000000E-03 0.  1.
         11   -1    0    0    0    0 -0.00000000000E+00 -0.00000000000E+00 -0.45593999997E+02  0.45594000000E+02  0.51100000000E-03 0. -1.
    9900012    2    1    2    0    0 -0.24030506342E+02  0.40292861840E+00  0.20954584056E+02  0.59301918718E+02  0.49999953841E+02 0.  0.
         12    1    1    2    0    0  0.24030506342E+02 -0.40292861840E+00 -0.20954584056E+02  0.31886081282E+02  0.00000000000E+00 0. -1.
         11    1    3    3    0    0  0.27097046970E+01 -0.21772900037E+01 -0.60812520605E+01  0.70046212024E+01  0.51100000000E-03 0. -1.
        -11    1    3    3    0    0 -0.14335489131E+02  0.19089619267E+02  0.17202252531E+02  0.29425113505E+02  0.51100000000E-03 0.  1.
        -12    1    3    3    0    0 -0.12404721909E+02 -0.16509400645E+02  0.98335835859E+01  0.22872184011E+02  0.00000000000E+00 0.  1.
</event>
<event>
 7    1  0.4346085E-013  0.5930196E+02  0.7816164E-02  0.1266605E+00
        -11   -1    0    0    0    0  0.00000000000E+00  0.00000000000E+00  0.45593999997E+02  0.45594000000E+02  0.51100000000E-03 0.  1.
         11   -1    0    0    0    0 -0.00000000000E+00 -0.00000000000E+00 -0.45593999997E+02  0.45594000000E+02  0.51100000000E-03 0. -1.
    9900012    2    1    2    0    0  0.12529973008E+02 -0.21565001787E+02  0.19866305872E+02  0.59301958623E+02  0.50000026619E+02 0.  0.
         12    1    1    2    0    0 -0.12529973008E+02  0.21565001787E+02 -0.19866305872E+02  0.31886041377E+02  0.00000000000E+00 0. -1.
         11    1    3    3    0    0  0.18840297575E+02 -0.20588611088E+02  0.15845229743E+02  0.32092351505E+02  0.51100000000E-03 0. -1.
        -11    1    3    3    0    0 -0.14415207221E+02 -0.68479337764E+01 -0.10430279614E+01  0.15993133021E+02  0.51100000000E-03 0.  1.
         12    1    3    3    0    0  0.81048826537E+01  0.58715430769E+01  0.50641040905E+01  0.11216474097E+02  0.00000000000E+00 0. -1.
</event>
<event>
 7    1  0.4346085E-013  0.5930196E+02  0.7816164E-02  0.1266605E+00
        -11   -1    0    0    0    0  0.00000000000E+00  0.00000000000E+00  0.45593999997E+02  0.45594000000E+02  0.51100000000E-03 0.  1.
         11   -1    0    0    0    0 -0.00000000000E+00 -0.00000000000E+00 -0.45593999997E+02  0.45594000000E+02  0.51100000000E-03 0. -1.
    9900012    2    1    2    0    0  0.97231275385E+01 -0.36486631939E+01  0.30147432149E+02  0.59301958894E+02  0.50000027113E+02 0.  0.
         12    1    1    2    0    0 -0.97231275385E+01  0.36486631939E+01 -0.30147432149E+02  0.31886041106E+02  0.00000000000E+00 0. -1.
         11    1    3    3    0    0  0.13061000467E+02 -0.19137503420E+02  0.45210145607E+01  0.23606637695E+02  0.51100000000E-03 0. -1.
        -11    1    3    3    0    0 -0.10140028691E+02  0.85766076668E+01  0.21243038021E+02  0.25052845059E+02  0.51100000000E-03 0.  1.
         12    1    3    3    0    0  0.68021557632E+01  0.69122325593E+01  0.43833795669E+01  0.10642476141E+02  0.00000000000E+00 0. -1.
</event>
<event>
 7    1  0.4346085E-013  0.5930194E+02  0.7816164E-02  0.1266605E+00
        -11   -1    0    0    0    0  0.00000000000E+00  0.00000000000E+00  0.45593999997E+02  0.45594000000E+02  0.51100000000E-03 0.  1.
         11   -1    0    0    0    0 -0.00000000000E+00 -0.00000000000E+00 -0.45593999997E+02  0.45594000000E+02  0.51100000000E-03 0. -1.
    9900012    2    1    2    0    0 -0.68453468053E+01 -0.17895617487E+02  0.25487424557E+02  0.59301941782E+02  0.49999995904E+02 0.  0.
         12    1    1    2    0    0  0.68453468053E+01  0.17895617487E+02 -0.25487424557E+02  0.31886058218E+02  0.00000000000E+00 0. -1.
         11    1    3    3    0    0 -0.47920899546E+01  0.88833352948E+01  0.27992373414E+01  0.10474421323E+02  0.51100000000E-03 0. -1.
        -11    1    3    3    0    0 -0.11085997905E+02 -0.27613807582E+02  0.25649562333E+02  0.39285134171E+02  0.51100000000E-03 0.  1.
        -12    1    3    3    0    0  0.90327410539E+01  0.83485480028E+00 -0.29613751168E+01  0.95423862878E+01  0.00000000000E+00 0.  1.
</event>
<event>
 7    1  0.4346085E-013  0.5930193E+02  0.7816164E-02  0.1266605E+00
        -11   -1    0    0    0    0  0.00000000000E+00  0.00000000000E+00  0.45593999997E+02  0.45594000000E+02  0.51100000000E-03 0. -1.
         11   -1    0    0    0    0 -0.00000000000E+00 -0.00000000000E+00 -0.45593999997E+02  0.45594000000E+02  0.51100000000E-03 0.  1.
    9900012    2    1    2    0    0 -0.75553495507E+00 -0.13277247072E+01 -0.31849459152E+02  0.59301925700E+02  0.49999966575E+02 0.  0.
         12    1    1    2    0    0  0.75553495507E+00  0.13277247072E+01  0.31849459152E+02  0.31886074300E+02  0.00000000000E+00 0. -1.
         11    1    3    3    0    0 -0.44823880178E+01 -0.19795018089E+02 -0.12458917109E+02  0.23815103595E+02  0.51100000000E-03 0. -1.
        -11    1    3    3    0    0  0.28737738476E+01  0.18833471054E+02 -0.24080698821E+02  0.30705671528E+02  0.51100000000E-03 0.  1.
        -12    1    3    3    0    0  0.85307921518E+00 -0.36617767236E+00  0.46901567775E+01  0.47811505763E+01  0.00000000000E+00 0.  1.
</event>
<event>
 7    1  0.4346085E-013  0.5930201E+02  0.7816164E-02  0.1266605E+00
        -11   -1    0    0    0    0  0.00000000000E+00  0.00000000000E+00  0.45593999997E+02  0.45594000000E+02  0.51100000000E-03 0.  1.
         11   -1    0    0    0    0 -0.00000000000E+00 -0.00000000000E+00 -0.45593999997E+02  0.45594000000E+02  0.51100000000E-03 0. -1.
    9900012    2    1    2    0    0  0.14930404553E+02  0.14170804377E+02  0.24351344436E+02  0.59302005384E+02  0.50000111898E+02 0.  0.
         12    1    1    2    0    0 -0.14930404553E+02 -0.14170804377E+02 -0.24351344436E+02  0.31885994616E+02  0.00000000000E+00 0. -1.
         11    1    3    3    0    0 -0.11543320065E+00 -0.33110757127E+01  0.29951862700E+02  0.30134542085E+02  0.51100000000E-03 0. -1.
        -11    1    3    3    0    0  0.55524426845E+01  0.17818489482E+02 -0.12105336608E+01  0.18702769292E+02  0.51100000000E-03 0.  1.
         12    1    3    3    0    0  0.94933950694E+01 -0.33660939259E+00 -0.43899846033E+01  0.10464694006E+02  0.00000000000E+00 0. -1.
</event>
<event>
 7    1  0.4346085E-013  0.5930194E+02  0.7816164E-02  0.1266605E+00
        -11   -1    0    0    0    0  0.00000000000E+00  0.00000000000E+00  0.45593999997E+02  0.45594000000E+02  0.51100000000E-03 0.  1.
         11   -1    0    0    0    0 -0.00000000000E+00 -0.00000000000E+00 -0.45593999997E+02  0.45594000000E+02  0.51100000000E-03 0. -1.
    9900012    2    1    2    0    0 -0.60446946985E+01 -0.13610853337E+02  0.28194452470E+02  0.59301940152E+02  0.49999992932E+02 0.  0.
         12    1    1    2    0    0  0.60446946985E+01  0.13610853337E+02 -0.28194452470E+02  0.31886059848E+02  0.00000000000E+00 0. -1.
         11    1    3    3    0    0  0.12695899766E+02 -0.17144085250E+02 -0.67051586013E+00  0.21343737295E+02  0.51100000000E-03 0. -1.
        -11    1    3    3    0    0 -0.76043665942E+01  0.77780726691E+01  0.21085623469E+02  0.23726110576E+02  0.51100000000E-03 0.  1.
        -12    1    3    3    0    0 -0.11136227871E+02 -0.42448407557E+01  0.77793448613E+01  0.14232092281E+02  0.00000000000E+00 0.  1.
</event>
<event>
 7    1  0.4346085E-013  0.5930196E+02  0.7816164E-02  0.1266605E+00
        -11   -1    0    0    0    0  0.00000000000E+00  0.00000000000E+00  0.45593999997E+02  0.45594000000E+02  0.51100000000E-03 0. -1.
         11   -1    0    0    0    0 -0.00000000000E+00 -0.00000000000E+00 -0.45593999997E+02  0.45594000000E+02  0.51100000000E-03 0.  1.
    9900012    2    1    2    0    0  0.23443554730E+02  0.27902646992E+01 -0.21432070450E+02  0.59301961061E+02  0.50000031064E+02 0.  0.
         12    1    1    2    0    0 -0.23443554730E+02 -0.27902646992E+01  0.21432070450E+02  0.31886038939E+02  0.00000000000E+00 0. -1.
         11    1    3    3    0    0  0.38059562538E+00  0.44279304799E+01  0.12833246498E+02  0.13581002809E+02  0.51100000000E-03 0. -1.
        -11    1    3    3    0    0  0.12276151243E+02 -0.25497410495E+00 -0.30307232677E+01  0.12647299511E+02  0.51100000000E-03 0.  1.
         12    1    3    3    0    0  0.10786807862E+02 -0.13826916757E+01 -0.31234593680E+02  0.33073658740E+02  0.00000000000E+00 0. -1.
</event>
<event>
 7    1  0.4346085E-013  0.5930193E+02  0.7816164E-02  0.1266605E+00
        -11   -1    0    0    0    0  0.00000000000E+00  0.00000000000E+00  0.45593999997E+02  0.45594000000E+02  0.51100000000E-03 0.  1.
         11   -1    0    0    0    0 -0.00000000000E+00 -0.00000000000E+00 -0.45593999997E+02  0.45594000000E+02  0.51100000000E-03 0. -1.
    9900012    2    1    2    0    0 -0.17894915433E+02 -0.16136321981E+02  0.20883301726E+02  0.59301934448E+02  0.49999982529E+02 0.  0.
         12    1    1    2    0    0  0.17894915433E+02  0.16136321981E+02 -0.20883301726E+02  0.31886065552E+02  0.00000000000E+00 0. -1.
         11    1    3    3    0    0  0.67840366526E+01  0.41578753543E+01  0.12128943705E+02  0.14505942108E+02  0.51100000000E-03 0. -1.
        -11    1    3    3    0    0 -0.15102882068E+02 -0.79043660344E+01 -0.10467082557E+02  0.20003396379E+02  0.51100000000E-03 0.  1.
         12    1    3    3    0    0 -0.95760700173E+01 -0.12389831301E+02  0.19221440578E+02  0.24792595961E+02  0.00000000000E+00 0. -1.
</event>
<event>
 7    1  0.4346085E-013  0.5930195E+02  0.7816164E-02  0.1266605E+00
        -11   -1    0    0    0    0  0.00000000000E+00  0.00000000000E+00  0.45593999997E+02  0.45594000000E+02  0.51100000000E-03 0.  1.
         11   -1    0    0    0    0 -0.00000000000E+00 -0.00000000000E+00 -0.45593999997E+02  0.45594000000E+02  0.51100000000E-03 0. -1.
    9900012    2    1    2    0    0 -0.31571462660E+02  0.28765049233E+01  0.34189084850E+01  0.59301945520E+02  0.50000002722E+02 0.  0.
         12    1    1    2    0    0  0.31571462660E+02 -0.28765049233E+01 -0.34189084850E+01  0.31886054480E+02  0.00000000000E+00 0. -1.
         11    1    3    3    0    0  0.12321201149E+02  0.49821600288E+01 -0.17886661915E+01  0.13410191770E+02  0.51100000000E-03 0. -1.
        -11    1    3    3    0    0 -0.37826710214E+02 -0.53958715031E+01  0.67989801316E+01  0.38809812753E+02  0.51100000000E-03 0.  1.
         12    1    3    3    0    0 -0.60659535951E+01  0.32902163976E+01 -0.15914054552E+01  0.70819409969E+01  0.00000000000E+00 0. -1.
</event>
<event>
 7    1  0.4346085E-013  0.5930194E+02  0.7816164E-02  0.1266605E+00
        -11   -1    0    0    0    0  0.00000000000E+00  0.00000000000E+00  0.45593999997E+02  0.45594000000E+02  0.51100000000E-03 0.  1.
         11   -1    0    0    0    0 -0.00000000000E+00 -0.00000000000E+00 -0.45593999997E+02  0.45594000000E+02  0.51100000000E-03 0. -1.
    9900012    2    1    2    0    0 -0.72326368564E+01  0.63891915309E+01  0.30390593280E+02  0.59301937775E+02  0.49999988597E+02 0.  0.
         12    1    1    2    0    0  0.72326368564E+01 -0.63891915309E+01 -0.30390593280E+02  0.31886062225E+02  0.00000000000E+00 0. -1.
         11    1    3    3    0    0  0.76789852244E+01  0.27527045385E+01 -0.11152628692E+01  0.82333473073E+01  0.51100000000E-03 0. -1.
        -11    1    3    3    0    0 -0.19832959185E+01  0.28549481712E+01  0.36881814907E+02  0.37045275851E+02  0.51100000000E-03 0.  1.
        -12    1    3    3    0    0 -0.12928326162E+02  0.78153882107E+00 -0.53759587579E+01  0.14023314617E+02  0.00000000000E+00 0.  1.
</event>
<event>
 7    1  0.4346085E-013  0.5930201E+02  0.7816164E-02  0.1266605E+00
        -11   -1    0    0    0    0  0.00000000000E+00  0.00000000000E+00  0.45593999997E+02  0.45594000000E+02  0.51100000000E-03 0. -1.
         11   -1    0    0    0    0 -0.00000000000E+00 -0.00000000000E+00 -0.45593999997E+02  0.45594000000E+02  0.51100000000E-03 0.  1.
    9900012    2    1    2    0    0  0.70562369177E+01 -0.16811063089E+02 -0.26159393214E+02  0.59302012874E+02  0.50000125560E+02 0.  0.
         12    1    1    2    0    0 -0.70562369177E+01  0.16811063089E+02  0.26159393214E+02  0.31885987126E+02  0.00000000000E+00 0. -1.
         11    1    3    3    0    0  0.10459631403E+01 -0.10500561948E+02  0.66150628808E+01  0.12454513129E+02  0.51100000000E-03 0. -1.
        -11    1    3    3    0    0  0.46478287135E+01  0.91769108103E+01 -0.29110221471E+02  0.30874309678E+02  0.51100000000E-03 0.  1.
        -12    1    3    3    0    0  0.13624450639E+01 -0.15487411952E+02 -0.36642346242E+01  0.15973190067E+02  0.00000000000E+00 0.  1.
</event>
<event>
 7    1  0.4346085E-013  0.5930193E+02  0.7816164E-02  0.1266605E+00
        -11   -1    0    0    0    0  0.00000000000E+00  0.00000000000E+00  0.45593999997E+02  0.45594000000E+02  0.51100000000E-03 0. -1.
         11   -1    0    0    0    0 -0.00000000000E+00 -0.00000000000E+00 -0.45593999997E+02  0.45594000000E+02  0.51100000000E-03 0.  1.
    9900012    2    1    2    0    0 -0.89462309068E+01  0.46126536703E+01 -0.30255736501E+02  0.59301933881E+02  0.49999981495E+02 0.  0.
         12    1    1    2    0    0  0.89462309068E+01 -0.46126536703E+01  0.30255736501E+02  0.31886066119E+02  0.00000000000E+00 0. -1.
         11    1    3    3    0    0 -0.29369847918E+01 -0.11270096642E+02  0.49164101508E+00  0.11656872185E+02  0.51100000000E-03 0. -1.
        -11    1    3    3    0    0  0.83171908928E+01  0.13327740568E+02 -0.29008106792E+02  0.32989007152E+02  0.51100000000E-03 0.  1.
        -12    1    3    3    0    0 -0.14326437008E+02  0.25550097442E+01 -0.17392707242E+01  0.14656054544E+02  0.00000000000E+00 0.  1.
</event>
<event>
 7    1  0.4346085E-013  0.5930193E+02  0.7816164E-02  0.1266605E+00
        -11   -1    0    0    0    0  0.00000000000E+00  0.00000000000E+00  0.45593999997E+02  0.45594000000E+02  0.51100000000E-03 0. -1.
         11   -1    0    0    0    0 -0.00000000000E+00 -0.00000000000E+00 -0.45593999997E+02  0.45594000000E+02  0.51100000000E-03 0.  1.
    9900012    2    1    2    0    0  0.98171242642E+01 -0.74506027042E+01 -0.29408062985E+02  0.59301928150E+02  0.49999971044E+02 0.  0.
         12    1    1    2    0    0 -0.98171242642E+01  0.74506027042E+01  0.29408062985E+02  0.31886071850E+02  0.00000000000E+00 0. -1.
         11    1    3    3    0    0 -0.49670626860E+00  0.57245621208E+01  0.85856363965E+01  0.10331044535E+02  0.51100000000E-03 0. -1.
        -11    1    3    3    0    0  0.10079301304E+02  0.28678512403E+01 -0.28411721002E+02  0.30282714147E+02  0.51100000000E-03 0.  1.
        -12    1    3    3    0    0  0.23452922908E+00 -0.16043016065E+02 -0.95819783791E+01  0.18688169469E+02  0.00000000000E+00 0.  1.
</event>
<event>
 7    1  0.4346085E-013  0.5930191E+02  0.7816164E-02  0.1266605E+00
        -11   -1    0    0    0    0  0.00000000000E+00  0.00000000000E+00  0.45593999997E+02  0.45594000000E+02  0.51100000000E-03 0. -1.
         11   -1    0    0    0    0 -0.00000000000E+00 -0.00000000000E+00 -0.45593999997E+02  0.45594000000E+02  0.51100000000E-03 0.  1.
    9900012    2    1    2    0    0 -0.29645918084E+02 -0.13590141238E+01 -0.11661707152E+02  0.59301909112E+02  0.49999936322E+02 0.  0.
         12    1    1    2    0    0  0.29645918084E+02  0.13590141238E+01  0.11661707152E+02  0.31886090888E+02  0.00000000000E+00 0. -1.
         11    1    3    3    0    0 -0.18794788649E+02 -0.12722205600E+02 -0.24588385675E+02  0.33461728976E+02  0.51100000000E-03 0.  1.
        -11    1    3    3    0    0 -0.14809628535E+02  0.69292445608E+01  0.84920970057E+01  0.18424311096E+02  0.51100000000E-03 0. -1.
         12    1    3    3    0    0  0.39584991007E+01  0.44339469157E+01  0.44345815178E+01  0.74158690400E+01  0.00000000000E+00 0. -1.
</event>
<event>
 7    1  0.4346085E-013  0.5930195E+02  0.7816164E-02  0.1266605E+00
        -11   -1    0    0    0    0  0.00000000000E+00  0.00000000000E+00  0.45593999997E+02  0.45594000000E+02  0.51100000000E-03 0.  1.
         11   -1    0    0    0    0 -0.00000000000E+00 -0.00000000000E+00 -0.45593999997E+02  0.45594000000E+02  0.51100000000E-03 0. -1.
    9900012    2    1    2    0    0  0.18495141157E+02 -0.18832756665E+02  0.17887898212E+02  0.59301954895E+02  0.50000019819E+02 0.  0.
         12    1    1    2    0    0 -0.18495141157E+02  0.18832756665E+02 -0.17887898212E+02  0.31886045105E+02  0.00000000000E+00 0. -1.
         11    1    3    3    0    0 -0.13062730865E+02 -0.13507252613E+02  0.31337115829E+01  0.19049959563E+02  0.51100000000E-03 0. -1.
        -11    1    3    3    0    0  0.52975334759E+01  0.36228680499E+01 -0.32349756884E+01  0.71870788086E+01  0.51100000000E-03 0.  1.
         12    1    3    3    0    0  0.26260338546E+02 -0.89483721023E+01  0.17989162317E+02  0.33064916523E+02  0.00000000000E+00 0. -1.
</event>
<event>
 7    1  0.4346085E-013  0.5930194E+02  0.7816164E-02  0.1266605E+00
        -11   -1    0    0    0    0  0.00000000000E+00  0.00000000000E+00  0.45593999997E+02  0.45594000000E+02  0.51100000000E-03 0.  1.
         11   -1    0    0    0    0 -0.00000000000E+00 -0.00000000000E+00 -0.45593999997E+02  0.45594000000E+02  0.51100000000E-03 0. -1.
    9900012    2    1    2    0    0  0.12396312247E+02  0.21405069312E+02  0.20121504862E+02  0.59301944937E+02  0.50000001658E+02 0.  0.
         12    1    1    2    0    0 -0.12396312247E+02 -0.21405069312E+02 -0.20121504862E+02  0.31886055063E+02  0.00000000000E+00 0. -1.
         11    1    3    3    0    0  0.18258955518E+02  0.17082565835E+02  0.10102530258E+02  0.26967844370E+02  0.51100000000E-03 0. -1.
        -11    1    3    3    0    0 -0.18006871184E+02  0.45665510823E+01  0.66144280013E+01  0.19719316841E+02  0.51100000000E-03 0.  1.
        -12    1    3    3    0    0  0.12144227914E+02 -0.24404760477E+00  0.34045466023E+01  0.12614783725E+02  0.00000000000E+00 0.  1.
</event>
<event>
 7    1  0.4346085E-013  0.5930195E+02  0.7816164E-02  0.1266605E+00
        -11   -1    0    0    0    0  0.00000000000E+00  0.00000000000E+00  0.45593999997E+02  0.45594000000E+02  0.51100000000E-03 0. -1.
         11   -1    0    0    0    0 -0.00000000000E+00 -0.00000000000E+00 -0.45593999997E+02  0.45594000000E+02  0.51100000000E-03 0.  1.
    9900012    2    1    2    0    0 -0.26862293596E+01  0.31763487066E+02  0.76520214698E+00  0.59301945476E+02  0.50000002641E+02 0.  0.
         12    1    1    2    0    0  0.26862293596E+01 -0.31763487066E+02 -0.76520214698E+00  0.31886054524E+02  0.00000000000E+00 0. -1.
         11    1    3    3    0    0  0.12104330739E+02  0.18650957798E+02 -0.13965680269E+00  0.22234939931E+02  0.51100000000E-03 0. -1.
        -11    1    3    3    0    0 -0.12936510269E+02  0.14291349923E+00  0.13637449680E+02  0.18797706142E+02  0.51100000000E-03 0.  1.
        -12    1    3    3    0    0 -0.18540498305E+01  0.12969615769E+02 -0.12732590730E+02  0.18269299403E+02  0.00000000000E+00 0.  1.
</event>
<event>
 7    1  0.4346085E-013  0.5930193E+02  0.7816164E-02  0.1266605E+00
        -11   -1    0    0    0    0  0.00000000000E+00  0.00000000000E+00  0.45593999997E+02  0.45594000000E+02  0.51100000000E-03 0.  1.
         11   -1    0    0    0    0 -0.00000000000E+00 -0.00000000000E+00 -0.45593999997E+02  0.45594000000E+02  0.51100000000E-03 0. -1.
    9900012    2    1    2    0    0 -0.45458747316E+01 -0.10424535464E+02  0.29789016596E+02  0.59301930526E+02  0.49999975377E+02 0.  0.
         12    1    1    2    0    0  0.45458747316E+01  0.10424535464E+02 -0.29789016596E+02  0.31886069474E+02  0.00000000000E+00 0. -1.
         11    1    3    3    0    0 -0.66968590416E+01 -0.83303069235E+01 -0.17851022097E+01  0.10836444280E+02  0.51100000000E-03 0. -1.
        -11    1    3    3    0    0  0.17340055404E+02 -0.66777681690E+01  0.84272371908E+01  0.20403147700E+02  0.51100000000E-03 0.  1.
        -12    1    3    3    0    0 -0.15189071094E+02  0.45835396285E+01  0.23146881615E+02  0.28062338547E+02  0.00000000000E+00 0.  1.
</event>
<event>
 7    1  0.4346085E-013  0.5930195E+02  0.7816164E-02  0.1266605E+00
        -11   -1    0    0    0    0  0.00000000000E+00  0.00000000000E+00  0.45593999997E+02  0.45594000000E+02  0.51100000000E-03 0.  1.
         11   -1    0    0    0    0 -0.00000000000E+00 -0.00000000000E+00 -0.45593999997E+02  0.45594000000E+02  0.51100000000E-03 0. -1.
    9900012    2    1    2    0    0 -0.38813229152E+01 -0.79999338244E+01  0.30621180068E+02  0.59301948543E+02  0.50000008234E+02 0.  0.
         12    1    1    2    0    0  0.38813229152E+01  0.79999338244E+01 -0.30621180068E+02  0.31886051457E+02  0.00000000000E+00 0. -1.
         11    1    3    3    0    0  0.81976025064E+01 -0.11911445095E+02 -0.44466415380E+01  0.15127981767E+02  0.51100000000E-03 0. -1.
        -11    1    3    3    0    0 -0.13945362838E+02  0.25400467671E+01  0.37929968288E+02  0.40492066839E+02  0.51100000000E-03 0.  1.
        -12    1    3    3    0    0  0.18664374169E+01  0.13714645037E+01 -0.28621466820E+01  0.36818999369E+01  0.00000000000E+00 0.  1.
</event>
<event>
 7    1  0.4346085E-013  0.5930193E+02  0.7816164E-02  0.1266605E+00
        -11   -1    0    0    0    0  0.00000000000E+00  0.00000000000E+00  0.45593999997E+02  0.45594000000E+02  0.51100000000E-03 0.  1.
         11   -1    0    0    0    0 -0.00000000000E+00 -0.00000000000E+00 -0.45593999997E+02  0.45594000000E+02  0.51100000000E-03 0. -1.
    9900012    2    1    2    0    0  0.14077092115E+02  0.28170327870E+02 -0.49989640477E+01  0.59301928804E+02  0.49999972236E+02 0.  0.
         12    1    1    2    0    0 -0.14077092115E+02 -0.28170327870E+02  0.49989640477E+01  0.31886071196E+02  0.00000000000E+00 0. -1.
         11    1    3    3    0    0 -0.35158303051E+01 -0.84099325011E+01  0.52444290509E+01  0.10516276135E+02  0.51100000000E-03 0. -1.
        -11    1    3    3    0    0  0.23882134546E+02  0.30438395748E+02 -0.10133494706E+02  0.39994249604E+02  0.51100000000E-03 0.  1.
        -12    1    3    3    0    0 -0.62892121250E+01  0.61418646238E+01 -0.10989839279E+00  0.87914030659E+01  0.00000000000E+00 0.  1.
</event>
<event>
 7    1  0.4346085E-013  0.5930162E+02  0.7816164E-02  0.1266606E+00
        -11   -1    0    0    0    0  0.00000000000E+00  0.00000000000E+00  0.45593999997E+02  0.45594000000E+02  0.51100000000E-03 0.  1.
         11   -1    0    0    0    0 -0.00000000000E+00 -0.00000000000E+00 -0.45593999997E+02  0.45594000000E+02  0.51100000000E-03 0. -1.
    9900012    2    1    2    0    0  0.83799390957E+01  0.20037073375E+02  0.23345954096E+02  0.59301619500E+02  0.49999408137E+02 0.  0.
         12    1    1    2    0    0 -0.83799390957E+01 -0.20037073375E+02 -0.23345954096E+02  0.31886380500E+02  0.00000000000E+00 0. -1.
         11    1    3    3    0    0 -0.14631724360E+02  0.10112891319E+02 -0.48037328117E+01  0.18423728661E+02  0.51100000000E-03 0. -1.
        -11    1    3    3    0    0  0.14783433304E+02  0.27382555613E+01  0.60136343878E+01  0.16192953485E+02  0.51100000000E-03 0.  1.
         12    1    3    3    0    0  0.82282301516E+01  0.71859264947E+01  0.22136052520E+02  0.24684937355E+02  0.00000000000E+00 0. -1.
</event>
<event>
 7    1  0.4346085E-013  0.5930194E+02  0.7816164E-02  0.1266605E+00
        -11   -1    0    0    0    0  0.00000000000E+00  0.00000000000E+00  0.45593999997E+02  0.45594000000E+02  0.51100000000E-03 0.  1.
         11   -1    0    0    0    0 -0.00000000000E+00 -0.00000000000E+00 -0.45593999997E+02  0.45594000000E+02  0.51100000000E-03 0. -1.
    9900012    2    1    2    0    0 -0.22601601156E+02  0.17889565446E+01  0.22420701811E+02  0.59301943329E+02  0.49999998725E+02 0.  0.
         12    1    1    2    0    0  0.22601601156E+02 -0.17889565446E+01 -0.22420701811E+02  0.31886056671E+02  0.00000000000E+00 0. -1.
         11    1    3    3    0    0 -0.12823397683E+02 -0.42360839515E+01 -0.51089493727E+01  0.14439020027E+02  0.51100000000E-03 0. -1.
        -11    1    3    3    0    0 -0.13846171171E+02  0.17245290151E+02  0.23489874444E+02  0.32262837602E+02  0.51100000000E-03 0.  1.
        -12    1    3    3    0    0  0.40679676980E+01 -0.11220249655E+02  0.40397767399E+01  0.12600085699E+02  0.00000000000E+00 0.  1.
</event>
<event>
 7    1  0.4346085E-013  0.5930195E+02  0.7816164E-02  0.1266605E+00
        -11   -1    0    0    0    0  0.00000000000E+00  0.00000000000E+00  0.45593999997E+02  0.45594000000E+02  0.51100000000E-03 0.  1.
         11   -1    0    0    0    0 -0.00000000000E+00 -0.00000000000E+00 -0.45593999997E+02  0.45594000000E+02  0.51100000000E-03 0. -1.
    9900012    2    1    2    0    0  0.19831669971E+02 -0.98801151840E+01  0.22930513798E+02  0.59301948615E+02  0.50000008367E+02 0.  0.
         12    1    1    2    0    0 -0.19831669971E+02  0.98801151840E+01 -0.22930513798E+02  0.31886051385E+02  0.00000000000E+00 0. -1.
         11    1    3    3    0    0  0.22312284743E+02 -0.21404661842E+02  0.17577190737E+02  0.35566209153E+02  0.51100000000E-03 0. -1.
        -11    1    3    3    0    0 -0.95964547572E+01  0.15843505161E+01  0.61123688739E+01  0.11487522099E+02  0.51100000000E-03 0.  1.
        -12    1    3    3    0    0  0.71158399843E+01  0.99401961423E+01 -0.75904581331E+00  0.12248217363E+02  0.00000000000E+00 0.  1.
</event>
<event>
 7    1  0.4346085E-013  0.5930196E+02  0.7816164E-02  0.1266605E+00
        -11   -1    0    0    0    0  0.00000000000E+00  0.00000000000E+00  0.45593999997E+02  0.45594000000E+02  0.51100000000E-03 0. -1.
         11   -1    0    0    0    0 -0.00000000000E+00 -0.00000000000E+00 -0.45593999997E+02  0.45594000000E+02  0.51100000000E-03 0.  1.
    9900012    2    1    2    0    0  0.22722112481E+02 -0.12120153348E+02 -0.18802317573E+02  0.59301958244E+02  0.50000025927E+02 0.  0.
         12    1    1    2    0    0 -0.22722112481E+02  0.12120153348E+02  0.18802317573E+02  0.31886041756E+02  0.00000000000E+00 0. -1.
         11    1    3    3    0    0  0.10318221484E+02 -0.13856713742E+02  0.40564458098E+00  0.17281167730E+02  0.51100000000E-03 0. -1.
        -11    1    3    3    0    0  0.77670410721E+01  0.16477296252E+02 -0.19339060143E+02  0.26567413617E+02  0.51100000000E-03 0.  1.
        -12    1    3    3    0    0  0.46368499248E+01 -0.14740735858E+02  0.13109798977E+00  0.15453376898E+02  0.00000000000E+00 0.  1.
</event>
<event>
 7    1  0.4346085E-013  0.5930173E+02  0.7816164E-02  0.1266605E+00
        -11   -1    0    0    0    0  0.00000000000E+00  0.00000000000E+00  0.45593999997E+02  0.45594000000E+02  0.51100000000E-03 0.  1.
         11   -1    0    0    0    0 -0.00000000000E+00 -0.00000000000E+00 -0.45593999997E+02  0.45594000000E+02  0.51100000000E-03 0. -1.
    9900012    2    1    2    0    0 -0.58177811093E+01 -0.54807008901E+01  0.30868257554E+02  0.59301733619E+02  0.49999616264E+02 0.  0.
         12    1    1    2    0    0  0.58177811093E+01  0.54807008901E+01 -0.30868257554E+02  0.31886266381E+02  0.00000000000E+00 0. -1.
         11    1    3    3    0    0 -0.20027367594E+02  0.83567789280E+01  0.12786804158E+00  0.21701326164E+02  0.51100000000E-03 0. -1.
        -11    1    3    3    0    0  0.24586277838E+01 -0.21823173683E+01  0.12697877369E+02  0.13116533445E+02  0.51100000000E-03 0.  1.
         12    1    3    3    0    0  0.11750958701E+02 -0.11655162450E+02  0.18042512144E+02  0.24483874011E+02  0.00000000000E+00 0. -1.
</event>
<event>
 7    1  0.4346085E-013  0.5930194E+02  0.7816164E-02  0.1266605E+00
        -11   -1    0    0    0    0  0.00000000000E+00  0.00000000000E+00  0.45593999997E+02  0.45594000000E+02  0.51100000000E-03 0.  1.
         11   -1    0    0    0    0 -0.00000000000E+00 -0.00000000000E+00 -0.45593999997E+02  0.45594000000E+02  0.51100000000E-03 0. -1.
    9900012    2    1    2    0    0  0.25176221638E+02  0.11586097222E+02  0.15768356811E+02  0.59301939388E+02  0.49999991539E+02 0.  0.
         12    1    1    2    0    0 -0.25176221638E+02 -0.11586097222E+02 -0.15768356811E+02  0.31886060612E+02  0.00000000000E+00 0. -1.
         11    1    3    3    0    0  0.26488479710E+02 -0.77950495491E+01  0.13466309887E+02  0.30720414338E+02  0.51100000000E-03 0. -1.
        -11    1    3    3    0    0  0.32550075428E+01  0.22155188428E+02 -0.79141390932E+00  0.22407003026E+02  0.51100000000E-03 0.  1.
        -12    1    3    3    0    0 -0.45672656148E+01 -0.27740416567E+01  0.30934608334E+01  0.61745220250E+01  0.00000000000E+00 0.  1.
</event>
<event>
 7    1  0.4346085E-013  0.5930195E+02  0.7816164E-02  0.1266605E+00
        -11   -1    0    0    0    0  0.00000000000E+00  0.00000000000E+00  0.45593999997E+02  0.45594000000E+02  0.51100000000E-03 0.  1.
         11   -1    0    0    0    0 -0.00000000000E+00 -0.00000000000E+00 -0.45593999997E+02  0.45594000000E+02  0.51100000000E-03 0. -1.
    9900012    2    1    2    0    0  0.25146323370E+02  0.44055021533E+01  0.19104304501E+02  0.59301945388E+02  0.50000002480E+02 0.  0.
         12    1    1    2    0    0 -0.25146323370E+02 -0.44055021533E+01 -0.19104304501E+02  0.31886054612E+02  0.00000000000E+00 0. -1.
         11    1    3    3    0    0  0.91569572573E+01  0.89299664678E+01 -0.40780861453E+01  0.13424788795E+02  0.51100000000E-03 0. -1.
        -11    1    3    3    0    0  0.24961425719E+02 -0.11876368036E+02  0.13477733629E+02  0.30753376981E+02  0.51100000000E-03 0.  1.
        -12    1    3    3    0    0 -0.89720596067E+01  0.73519037217E+01  0.97046570176E+01  0.15123779612E+02  0.00000000000E+00 0.  1.
</event>
<event>
 7    1  0.4346085E-013  0.5930193E+02  0.7816164E-02  0.1266605E+00
        -11   -1    0    0    0    0  0.00000000000E+00  0.00000000000E+00  0.45593999997E+02  0.45594000000E+02  0.51100000000E-03 0. -1.
         11   -1    0    0    0    0 -0.00000000000E+00 -0.00000000000E+00 -0.45593999997E+02  0.45594000000E+02  0.51100000000E-03 0.  1.
    9900012    2    1    2    0    0  0.18164192622E+02  0.30244891722E+01 -0.26031439894E+02  0.59301932646E+02  0.49999979243E+02 0.  0.
         12    1    1    2    0    0 -0.18164192622E+02 -0.30244891722E+01  0.26031439894E+02  0.31886067354E+02  0.00000000000E+00 0. -1.
         11    1    3    3    0    0 -0.77070768377E+01 -0.45658421404E+01  0.31925680625E+01  0.95099126667E+01  0.51100000000E-03 0. -1.
        -11    1    3    3    0    0  0.23059886520E+02 -0.26190647783E+01 -0.55572543220E+01  0.23864218874E+02  0.51100000000E-03 0.  1.
        -12    1    3    3    0    0  0.28113829394E+01  0.10209396091E+02 -0.23666753634E+02  0.25927801105E+02  0.00000000000E+00 0.  1.
</event>
<event>
 7    1  0.4346085E-013  0.5930195E+02  0.7816164E-02  0.1266605E+00
        -11   -1    0    0    0    0  0.00000000000E+00  0.00000000000E+00  0.45593999997E+02  0.45594000000E+02  0.51100000000E-03 0. -1.
         11   -1    0    0    0    0 -0.00000000000E+00 -0.00000000000E+00 -0.45593999997E+02  0.45594000000E+02  0.51100000000E-03 0.  1.
    9900012    2    1    2    0    0  0.18003389832E+02  0.23328306351E+02 -0.12181461221E+02  0.59301954147E+02  0.50000018456E+02 0.  0.
         12    1    1    2    0    0 -0.18003389832E+02 -0.23328306351E+02  0.12181461221E+02  0.31886045853E+02  0.00000000000E+00 0. -1.
         11    1    3    3    0    0 -0.22432745310E+00 -0.47686045599E+01 -0.23089094547E+02  0.23577451082E+02  0.51100000000E-03 0. -1.
        -11    1    3    3    0    0  0.39104026512E+01  0.50690121169E+01 -0.24015139262E+00  0.64065439739E+01  0.51100000000E-03 0.  1.
         12    1    3    3    0    0  0.14317314634E+02  0.23027898794E+02  0.11147784718E+02  0.29317959092E+02  0.00000000000E+00 0. -1.
</event>
<event>
 7    1  0.4346085E-013  0.5930199E+02  0.7816164E-02  0.1266605E+00
        -11   -1    0    0    0    0  0.00000000000E+00  0.00000000000E+00  0.45593999997E+02  0.45594000000E+02  0.51100000000E-03 0.  1.
         11   -1    0    0    0    0 -0.00000000000E+00 -0.00000000000E+00 -0.45593999997E+02  0.45594000000E+02  0.51100000000E-03 0. -1.
    9900012    2    1    2    0    0  0.30287666815E+02 -0.12911926526E+00  0.99678506354E+01  0.59301992424E+02  0.50000088263E+02 0.  0.
         12    1    1    2    0    0 -0.30287666815E+02  0.12911926526E+00 -0.99678506354E+01  0.31886007576E+02  0.00000000000E+00 0. -1.
         11    1    3    3    0    0 -0.23969644388E+01  0.68382555770E+01 -0.10621684602E+02  0.12857968809E+02  0.51100000000E-03 0. -1.
        -11    1    3    3    0    0  0.35587917018E+02 -0.17635463596E+01  0.16909573380E+02  0.39440380393E+02  0.51100000000E-03 0.  1.
         12    1    3    3    0    0 -0.29032857643E+01 -0.52038284826E+01  0.36799618571E+01  0.70036432216E+01  0.00000000000E+00 0. -1.
</event>
<event>
 7    1  0.4346085E-013  0.5930195E+02  0.7816164E-02  0.1266605E+00
        -11   -1    0    0    0    0  0.00000000000E+00  0.00000000000E+00  0.45593999997E+02  0.45594000000E+02  0.51100000000E-03 0.  1.
         11   -1    0    0    0    0 -0.00000000000E+00 -0.00000000000E+00 -0.45593999997E+02  0.45594000000E+02  0.51100000000E-03 0. -1.
    9900012    2    1    2    0    0 -0.18474474161E+02 -0.91207967613E+01  0.24335674459E+02  0.59301950065E+02  0.50000011010E+02 0.  0.
         12    1    1    2    0    0  0.18474474161E+02  0.91207967613E+01 -0.24335674459E+02  0.31886049935E+02  0.00000000000E+00 0. -1.
         11    1    3    3    0    0  0.16210397882E+02 -0.79284573938E+01  0.94014589913E+01  0.20347601028E+02  0.51100000000E-03 0.  1.
        -11    1    3    3    0    0 -0.26493266859E+02 -0.86807007977E+00  0.15552307767E+02  0.30733060565E+02  0.51100000000E-03 0. -1.
        -12    1    3    3    0    0 -0.81916051841E+01 -0.32426928766E+00 -0.61809229893E+00  0.82212884728E+01  0.00000000000E+00 0.  1.
</event>
<event>
 7    1  0.4346085E-013  0.5930204E+02  0.7816164E-02  0.1266604E+00
        -11   -1    0    0    0    0  0.00000000000E+00  0.00000000000E+00  0.45593999997E+02  0.45594000000E+02  0.51100000000E-03 0. -1.
         11   -1    0    0    0    0 -0.00000000000E+00 -0.00000000000E+00 -0.45593999997E+02  0.45594000000E+02  0.51100000000E-03 0.  1.
    9900012    2    1    2    0    0  0.42845390953E+01  0.61653091289E+01 -0.30989447802E+02  0.59302044048E+02  0.50000182412E+02 0.  0.
         12    1    1    2    0    0 -0.42845390953E+01 -0.61653091289E+01  0.30989447802E+02  0.31885955952E+02  0.00000000000E+00 0. -1.
         11    1    3    3    0    0 -0.17353764447E+02  0.45066680367E+01 -0.59142770156E+01  0.18879668168E+02  0.51100000000E-03 0. -1.
        -11    1    3    3    0    0  0.22653188089E+02 -0.52633221564E+01 -0.13481928292E+02  0.26881813210E+02  0.51100000000E-03 0.  1.
        -12    1    3    3    0    0 -0.10148845471E+01  0.69219632486E+01 -0.11593242495E+02  0.13540562669E+02  0.00000000000E+00 0.  1.
</event>
<event>
 7    1  0.4346085E-013  0.5930206E+02  0.7816164E-02  0.1266604E+00
        -11   -1    0    0    0    0  0.00000000000E+00  0.00000000000E+00  0.45593999997E+02  0.45594000000E+02  0.51100000000E-03 0.  1.
         11   -1    0    0    0    0 -0.00000000000E+00 -0.00000000000E+00 -0.45593999997E+02  0.45594000000E+02  0.51100000000E-03 0. -1.
    9900012    2    1    2    0    0  0.29894544143E+01  0.14788146587E+02  0.28090688821E+02  0.59302063984E+02  0.50000218771E+02 0.  0.
         12    1    1    2    0    0 -0.29894544143E+01 -0.14788146587E+02 -0.28090688821E+02  0.31885936016E+02  0.00000000000E+00 0. -1.
         11    1    3    3    0    0 -0.15694308762E+02  0.12052500303E+02  0.28942065293E+01  0.19998763031E+02  0.51100000000E-03 0. -1.
        -11    1    3    3    0    0  0.65610996648E+01  0.15475633805E+01  0.26226580284E+02  0.27079078546E+02  0.51100000000E-03 0.  1.
         12    1    3    3    0    0  0.12122663511E+02  0.11880829032E+01 -0.10300979923E+01  0.12224222407E+02  0.00000000000E+00 0. -1.
</event>
<event>
 7    1  0.4346085E-013  0.5930191E+02  0.7816164E-02  0.1266605E+00
        -11   -1    0    0    0    0  0.00000000000E+00  0.00000000000E+00  0.45593999997E+02  0.45594000000E+02  0.51100000000E-03 0. -1.
         11   -1    0    0    0    0 -0.00000000000E+00 -0.00000000000E+00 -0.45593999997E+02  0.45594000000E+02  0.51100000000E-03 0.  1.
    9900012    2    1    2    0    0 -0.12262934823E+02  0.17659001732E+02 -0.23547888465E+02  0.59301906420E+02  0.49999931412E+02 0.  0.
         12    1    1    2    0    0  0.12262934823E+02 -0.17659001732E+02  0.23547888465E+02  0.31886093580E+02  0.00000000000E+00 0. -1.
         11    1    3    3    0    0 -0.55433706148E+01  0.16073007425E+01  0.40056702840E+01  0.70255083898E+01  0.51100000000E-03 0. -1.
        -11    1    3    3    0    0  0.13162639292E+02  0.18481897460E+02 -0.21729556504E+02  0.31416703089E+02  0.51100000000E-03 0.  1.
        -12    1    3    3    0    0 -0.19882203500E+02 -0.24301964703E+01 -0.58240022453E+01  0.20859694941E+02  0.00000000000E+00 0.  1.
</event>
<event>
 7    1  0.4346085E-013  0.5930185E+02  0.7816164E-02  0.1266605E+00
        -11   -1    0    0    0    0  0.00000000000E+00  0.00000000000E+00  0.45593999997E+02  0.45594000000E+02  0.51100000000E-03 0.  1.
         11   -1    0    0    0    0 -0.00000000000E+00 -0.00000000000E+00 -0.45593999997E+02  0.45594000000E+02  0.51100000000E-03 0. -1.
    9900012    2    1    2    0    0  0.14309796299E+02 -0.25214094447E+02 -0.13274252527E+02  0.59301849260E+02  0.49999827165E+02 0.  0.
         12    1    1    2    0    0 -0.14309796299E+02  0.25214094447E+02  0.13274252527E+02  0.31886150740E+02  0.00000000000E+00 0. -1.
         11    1    3    3    0    0  0.19098761079E+02  0.10203739631E+01 -0.14018538605E+02  0.23713356209E+02  0.51100000000E-03 0. -1.
        -11    1    3    3    0    0 -0.14223985134E+02 -0.12618277524E+02  0.51669015447E+00  0.19021294639E+02  0.51100000000E-03 0.  1.
         12    1    3    3    0    0  0.94350203534E+01 -0.13616190886E+02  0.22759592409E+00  0.16567198412E+02  0.00000000000E+00 0. -1.
</event>
<event>
 7    1  0.4346085E-013  0.5930193E+02  0.7816164E-02  0.1266605E+00
        -11   -1    0    0    0    0  0.00000000000E+00  0.00000000000E+00  0.45593999997E+02  0.45594000000E+02  0.51100000000E-03 0. -1.
         11   -1    0    0    0    0 -0.00000000000E+00 -0.00000000000E+00 -0.45593999997E+02  0.45594000000E+02  0.51100000000E-03 0.  1.
    9900012    2    1    2    0    0  0.25730307598E+02  0.11732349930E+02 -0.14731763362E+02  0.59301927559E+02  0.49999969964E+02 0.  0.
         12    1    1    2    0    0 -0.25730307598E+02 -0.11732349930E+02  0.14731763362E+02  0.31886072441E+02  0.00000000000E+00 0. -1.
         11    1    3    3    0    0  0.22014835640E+02 -0.20492083315E+01  0.11149314905E+02  0.24762056986E+02  0.51100000000E-03 0. -1.
        -11    1    3    3    0    0 -0.74908302248E+00 -0.11617424809E+01 -0.16038107453E+02  0.16097566956E+02  0.51100000000E-03 0.  1.
         12    1    3    3    0    0  0.44645549809E+01  0.14943300742E+02 -0.98429708151E+01  0.18442303617E+02  0.00000000000E+00 0. -1.
</event>
<event>
 7    1  0.4346085E-013  0.5930181E+02  0.7816164E-02  0.1266605E+00
        -11   -1    0    0    0    0  0.00000000000E+00  0.00000000000E+00  0.45593999997E+02  0.45594000000E+02  0.51100000000E-03 0.  1.
         11   -1    0    0    0    0 -0.00000000000E+00 -0.00000000000E+00 -0.45593999997E+02  0.45594000000E+02  0.51100000000E-03 0. -1.
    9900012    2    1    2    0    0 -0.89606820422E+01  0.17614268607E+02  0.25023447249E+02  0.59301808734E+02  0.49999753256E+02 0.  0.
         12    1    1    2    0    0  0.89606820422E+01 -0.17614268607E+02 -0.25023447249E+02  0.31886191266E+02  0.00000000000E+00 0. -1.
         11    1    3    3    0    0  0.14891087707E+02 -0.16485194194E+01  0.45756814090E+01  0.15665215287E+02  0.51100000000E-03 0. -1.
        -11    1    3    3    0    0 -0.97595136903E+01  0.22066016848E+02  0.13914243215E+02  0.27852528996E+02  0.51100000000E-03 0.  1.
        -12    1    3    3    0    0 -0.14092256059E+02 -0.28032288216E+01  0.65335226258E+01  0.15784064450E+02  0.00000000000E+00 0.  1.
</event>
<event>
 7    1  0.4346085E-013  0.5930194E+02  0.7816164E-02  0.1266605E+00
        -11   -1    0    0    0    0  0.00000000000E+00  0.00000000000E+00  0.45593999997E+02  0.45594000000E+02  0.51100000000E-03 0.  1.
         11   -1    0    0    0    0 -0.00000000000E+00 -0.00000000000E+00 -0.45593999997E+02  0.45594000000E+02  0.51100000000E-03 0. -1.
    9900012    2    1    2    0    0  0.30998787898E+02 -0.15041667285E+01  0.73166707302E+01  0.59301936598E+02  0.49999986450E+02 0.  0.
         12    1    1    2    0    0 -0.30998787898E+02  0.15041667285E+01 -0.73166707302E+01  0.31886063402E+02  0.00000000000E+00 0. -1.
         11    1    3    3    0    0  0.33756930910E+02 -0.92806545836E+01 -0.12529722497E+01  0.35031855127E+02  0.51100000000E-03 0. -1.
        -11    1    3    3    0    0 -0.20011319318E+01  0.89919337099E+01 -0.50974248096E+01  0.10528206913E+02  0.51100000000E-03 0.  1.
         12    1    3    3    0    0 -0.75701107996E+00 -0.12154458548E+01  0.13667067789E+02  0.13741874558E+02  0.00000000000E+00 0. -1.
</event>
<event>
 7    1  0.4346085E-013  0.5930192E+02  0.7816164E-02  0.1266605E+00
        -11   -1    0    0    0    0  0.00000000000E+00  0.00000000000E+00  0.45593999997E+02  0.45594000000E+02  0.51100000000E-03 0.  1.
         11   -1    0    0    0    0 -0.00000000000E+00 -0.00000000000E+00 -0.45593999997E+02  0.45594000000E+02  0.51100000000E-03 0. -1.
    9900012    2    1    2    0    0  0.39309569696E+01  0.30320574705E+02  0.90516625128E+01  0.59301917340E+02  0.49999951328E+02 0.  0.
         12    1    1    2    0    0 -0.39309569696E+01 -0.30320574705E+02 -0.90516625128E+01  0.31886082660E+02  0.00000000000E+00 0. -1.
         11    1    3    3    0    0 -0.15052893933E+02  0.78987809046E+01  0.91292418624E-01  0.16999667353E+02  0.51100000000E-03 0. -1.
        -11    1    3    3    0    0  0.23635241988E+02  0.63496048847E+01  0.36240977855E+01  0.24740174434E+02  0.51100000000E-03 0.  1.
        -12    1    3    3    0    0 -0.46513910850E+01  0.16072188916E+02  0.53362723087E+01  0.17562075553E+02  0.00000000000E+00 0.  1.
</event>
<event>
 7    1  0.4346085E-013  0.5930193E+02  0.7816164E-02  0.1266605E+00
        -11   -1    0    0    0    0  0.00000000000E+00  0.00000000000E+00  0.45593999997E+02  0.45594000000E+02  0.51100000000E-03 0. -1.
         11   -1    0    0    0    0 -0.00000000000E+00 -0.00000000000E+00 -0.45593999997E+02  0.45594000000E+02  0.51100000000E-03 0.  1.
    9900012    2    1    2    0    0  0.25706218551E+02  0.88276118279E+01 -0.16672884548E+02  0.59301929657E+02  0.49999973791E+02 0.  0.
         12    1    1    2    0    0 -0.25706218551E+02 -0.88276118279E+01  0.16672884548E+02  0.31886070343E+02  0.00000000000E+00 0. -1.
         11    1    3    3    0    0 -0.13511724864E+02 -0.42200271738E+01 -0.71783092500E+01  0.15871466917E+02  0.51100000000E-03 0. -1.
        -11    1    3    3    0    0  0.25419200518E+02  0.12108394548E+02 -0.91154308309E+01  0.29594594996E+02  0.51100000000E-03 0.  1.
         12    1    3    3    0    0  0.13798742898E+02  0.93924445415E+00 -0.37914446672E+00  0.13835867744E+02  0.00000000000E+00 0. -1.
</event>
<event>
 7    1  0.4346085E-013  0.5930194E+02  0.7816164E-02  0.1266605E+00
        -11   -1    0    0    0    0  0.00000000000E+00  0.00000000000E+00  0.45593999997E+02  0.45594000000E+02  0.51100000000E-03 0. -1.
         11   -1    0    0    0    0 -0.00000000000E+00 -0.00000000000E+00 -0.45593999997E+02  0.45594000000E+02  0.51100000000E-03 0.  1.
    9900012    2    1    2    0    0  0.34803611631E+01 -0.31695427515E+02  0.88923118020E-01  0.59301938052E+02  0.49999989102E+02 0.  0.
         12    1    1    2    0    0 -0.34803611631E+01  0.31695427515E+02 -0.88923118020E-01  0.31886061948E+02  0.00000000000E+00 0. -1.
         11    1    3    3    0    0  0.96871258146E-01 -0.21253175357E+02  0.18547022815E+02  0.28208135393E+02  0.51100000000E-03 0. -1.
        -11    1    3    3    0    0 -0.15333370441E+01 -0.16008169819E+02 -0.17225751994E+02  0.23565635054E+02  0.51100000000E-03 0.  1.
        -12    1    3    3    0    0  0.49168269491E+01  0.55659176603E+01 -0.12323477023E+01  0.75281676063E+01  0.00000000000E+00 0.  1.
</event>
<event>
 7    1  0.4346085E-013  0.5930194E+02  0.7816164E-02  0.1266605E+00
        -11   -1    0    0    0    0  0.00000000000E+00  0.00000000000E+00  0.45593999997E+02  0.45594000000E+02  0.51100000000E-03 0.  1.
         11   -1    0    0    0    0 -0.00000000000E+00 -0.00000000000E+00 -0.45593999997E+02  0.45594000000E+02  0.51100000000E-03 0. -1.
    9900012    2    1    2    0    0  0.10272760972E+02  0.13689283950E+02  0.26903433421E+02  0.59301939678E+02  0.49999992066E+02 0.  0.
         12    1    1    2    0    0 -0.10272760972E+02 -0.13689283950E+02 -0.26903433421E+02  0.31886060322E+02  0.00000000000E+00 0. -1.
         11    1    3    3    0    0 -0.96422657409E-01 -0.36657054845E+01  0.24039860802E+02  0.24317927577E+02  0.51100000000E-03 0.  1.
        -11    1    3    3    0    0  0.12254807686E+02  0.19208427195E+01 -0.90840524360E+01  0.15374978280E+02  0.51100000000E-03 0. -1.
         12    1    3    3    0    0 -0.18856240567E+01  0.15434146715E+02  0.11947625055E+02  0.19609033820E+02  0.00000000000E+00 0. -1.
</event>
<event>
 7    1  0.4346085E-013  0.5930189E+02  0.7816164E-02  0.1266605E+00
        -11   -1    0    0    0    0  0.00000000000E+00  0.00000000000E+00  0.45593999997E+02  0.45594000000E+02  0.51100000000E-03 0.  1.
         11   -1    0    0    0    0 -0.00000000000E+00 -0.00000000000E+00 -0.45593999997E+02  0.45594000000E+02  0.51100000000E-03 0. -1.
    9900012    2    1    2    0    0  0.28704885138E+02 -0.12938367177E+02  0.50351292217E+01  0.59301885432E+02  0.49999893135E+02 0.  0.
         12    1    1    2    0    0 -0.28704885138E+02  0.12938367177E+02 -0.50351292217E+01  0.31886114568E+02  0.00000000000E+00 0. -1.
         11    1    3    3    0    0  0.11109201031E+02 -0.21702718288E+02 -0.20612020940E+01  0.24467751899E+02  0.51100000000E-03 0. -1.
        -11    1    3    3    0    0  0.58721758576E+01  0.15235999801E+02 -0.46966027065E+01  0.16990474287E+02  0.51100000000E-03 0.  1.
         12    1    3    3    0    0  0.11723508249E+02 -0.64716486908E+01  0.11792934022E+02  0.17843659246E+02  0.00000000000E+00 0. -1.
</event>
<event>
 7    1  0.4346085E-013  0.5930194E+02  0.7816164E-02  0.1266605E+00
        -11   -1    0    0    0    0  0.00000000000E+00  0.00000000000E+00  0.45593999997E+02  0.45594000000E+02  0.51100000000E-03 0.  1.
         11   -1    0    0    0    0 -0.00000000000E+00 -0.00000000000E+00 -0.45593999997E+02  0.45594000000E+02  0.51100000000E-03 0. -1.
    9900012    2    1    2    0    0 -0.61348017416E+00 -0.78990901232E+01  0.30886064262E+02  0.59301938025E+02  0.49999989053E+02 0.  0.
         12    1    1    2    0    0  0.61348017416E+00  0.78990901232E+01 -0.30886064262E+02  0.31886061975E+02  0.00000000000E+00 0. -1.
         11    1    3    3    0    0 -0.62026583888E+01 -0.19943549393E+02  0.27465487269E+02  0.34504653667E+02  0.51100000000E-03 0. -1.
        -11    1    3    3    0    0 -0.21086813345E+01  0.15669856479E+02  0.56197715685E+00  0.15821085855E+02  0.51100000000E-03 0.  1.
         12    1    3    3    0    0  0.76978595492E+01 -0.36253972084E+01  0.28585998361E+01  0.89761985039E+01  0.00000000000E+00 0. -1.
</event>
<event>
 7    1  0.4346085E-013  0.5930194E+02  0.7816164E-02  0.1266605E+00
        -11   -1    0    0    0    0  0.00000000000E+00  0.00000000000E+00  0.45593999997E+02  0.45594000000E+02  0.51100000000E-03 0.  1.
         11   -1    0    0    0    0 -0.00000000000E+00 -0.00000000000E+00 -0.45593999997E+02  0.45594000000E+02  0.51100000000E-03 0. -1.
    9900012    2    1    2    0    0  0.12044606309E+02  0.85714970278E+01  0.28252038217E+02  0.59301940886E+02  0.49999994270E+02 0.  0.
         12    1    1    2    0    0 -0.12044606309E+02 -0.85714970278E+01 -0.28252038217E+02  0.31886059114E+02  0.00000000000E+00 0. -1.
         11    1    3    3    0    0  0.16537006045E+02  0.50361211982E+01  0.26745837968E+02  0.31846113335E+02  0.51100000000E-03 0.  1.
        -11    1    3    3    0    0 -0.96583632617E+01  0.12862550326E+02  0.38491479084E+01  0.16539199547E+02  0.51100000000E-03 0. -1.
        -12    1    3    3    0    0  0.51659635258E+01 -0.93271744964E+01 -0.23429476597E+01  0.10916628004E+02  0.00000000000E+00 0.  1.
</event>
<event>
 7    1  0.4346085E-013  0.5930193E+02  0.7816164E-02  0.1266605E+00
        -11   -1    0    0    0    0  0.00000000000E+00  0.00000000000E+00  0.45593999997E+02  0.45594000000E+02  0.51100000000E-03 0. -1.
         11   -1    0    0    0    0 -0.00000000000E+00 -0.00000000000E+00 -0.45593999997E+02  0.45594000000E+02  0.51100000000E-03 0.  1.
    9900012    2    1    2    0    0 -0.29034749798E+02  0.13140667066E+02 -0.10138758956E+01  0.59301925123E+02  0.49999965522E+02 0.  0.
         12    1    1    2    0    0  0.29034749798E+02 -0.13140667066E+02  0.10138758956E+01  0.31886074877E+02  0.00000000000E+00 0. -1.
         11    1    3    3    0    0 -0.17570668627E+02  0.17452377457E+02 -0.18782982457E+02  0.31082379336E+02  0.51100000000E-03 0. -1.
        -11    1    3    3    0    0 -0.14881391585E+02 -0.63087053850E+01  0.18077190057E+02  0.24249543908E+02  0.51100000000E-03 0.  1.
        -12    1    3    3    0    0  0.34173104150E+01  0.19969949938E+01 -0.30808349540E+00  0.39700018788E+01  0.00000000000E+00 0.  1.
</event>
<event>
 7    1  0.4346085E-013  0.5930194E+02  0.7816164E-02  0.1266605E+00
        -11   -1    0    0    0    0  0.00000000000E+00  0.00000000000E+00  0.45593999997E+02  0.45594000000E+02  0.51100000000E-03 0. -1.
         11   -1    0    0    0    0 -0.00000000000E+00 -0.00000000000E+00 -0.45593999997E+02  0.45594000000E+02  0.51100000000E-03 0.  1.
    9900012    2    1    2    0    0 -0.13623377222E+02 -0.25767995415E+02  0.12928073862E+02  0.59301935827E+02  0.49999985044E+02 0.  0.
         12    1    1    2    0    0  0.13623377222E+02  0.25767995415E+02 -0.12928073862E+02  0.31886064173E+02  0.00000000000E+00 0. -1.
         11    1    3    3    0    0  0.12038130187E+02 -0.18116950007E+02  0.16036976215E+02  0.27024527051E+02  0.51100000000E-03 0. -1.
        -11    1    3    3    0    0 -0.18500609334E+02 -0.73292608653E+01  0.59084050382E+01  0.20758127587E+02  0.51100000000E-03 0.  1.
        -12    1    3    3    0    0 -0.71608980752E+01 -0.32178454302E+00 -0.90173073907E+01  0.11519281189E+02  0.00000000000E+00 0.  1.
</event>
<event>
 7    1  0.4346085E-013  0.5930194E+02  0.7816164E-02  0.1266605E+00
        -11   -1    0    0    0    0  0.00000000000E+00  0.00000000000E+00  0.45593999997E+02  0.45594000000E+02  0.51100000000E-03 0.  1.
         11   -1    0    0    0    0 -0.00000000000E+00 -0.00000000000E+00 -0.45593999997E+02  0.45594000000E+02  0.51100000000E-03 0. -1.
    9900012    2    1    2    0    0 -0.28409093484E+02  0.70486528446E+01  0.12647546402E+02  0.59301944591E+02  0.50000001028E+02 0.  0.
         12    1    1    2    0    0  0.28409093484E+02 -0.70486528446E+01 -0.12647546402E+02  0.31886055409E+02  0.00000000000E+00 0. -1.
         11    1    3    3    0    0 -0.12565888611E+02 -0.24747893216E+01 -0.37337529980E+01  0.13340429172E+02  0.51100000000E-03 0. -1.
        -11    1    3    3    0    0 -0.24923254929E+02  0.13008615407E+02  0.21100192674E+02  0.35151256623E+02  0.51100000000E-03 0.  1.
        -12    1    3    3    0    0  0.90800500554E+01 -0.34851732404E+01 -0.47188932737E+01  0.10810258797E+02  0.00000000000E+00 0.  1.
</event>
<event>
 7    1  0.4346085E-013  0.5930194E+02  0.7816164E-02  0.1266605E+00
        -11   -1    0    0    0    0  0.00000000000E+00  0.00000000000E+00  0.45593999997E+02  0.45594000000E+02  0.51100000000E-03 0.  1.
         11   -1    0    0    0    0 -0.00000000000E+00 -0.00000000000E+00 -0.45593999997E+02  0.45594000000E+02  0.51100000000E-03 0. -1.
    9900012    2    1    2    0    0  0.13506299069E+02 -0.99457707859E+01  0.27117934279E+02  0.59301939870E+02  0.49999992416E+02 0.  0.
         12    1    1    2    0    0 -0.13506299069E+02  0.99457707859E+01 -0.27117934279E+02  0.31886060130E+02  0.00000000000E+00 0. -1.
         11    1    3    3    0    0 -0.82902253838E+01 -0.21904039449E+02  0.61121288262E+01  0.24204811508E+02  0.51100000000E-03 0. -1.
        -11    1    3    3    0    0  0.92588829666E+01  0.10653845930E+02  0.55844828037E+01  0.15179518943E+02  0.51100000000E-03 0.  1.
         12    1    3    3    0    0  0.12537641486E+02  0.13044227324E+01  0.15421322649E+02  0.19917609419E+02  0.00000000000E+00 0. -1.
</event>
<event>
 7    1  0.4346085E-013  0.5930197E+02  0.7816164E-02  0.1266605E+00
        -11   -1    0    0    0    0  0.00000000000E+00  0.00000000000E+00  0.45593999997E+02  0.45594000000E+02  0.51100000000E-03 0.  1.
         11   -1    0    0    0    0 -0.00000000000E+00 -0.00000000000E+00 -0.45593999997E+02  0.45594000000E+02  0.51100000000E-03 0. -1.
    9900012    2    1    2    0    0  0.13997036652E+02 -0.24700272325E+02 -0.14515461931E+02  0.59301966646E+02  0.50000041251E+02 0.  0.
         12    1    1    2    0    0 -0.13997036652E+02  0.24700272325E+02  0.14515461931E+02  0.31886033354E+02  0.00000000000E+00 0. -1.
         11    1    3    3    0    0  0.21124392071E+02 -0.18991678697E+02 -0.19512275193E+01  0.28473339973E+02  0.51100000000E-03 0. -1.
        -11    1    3    3    0    0 -0.73817249962E+01 -0.12806584358E+02 -0.16943028710E+02  0.22484765709E+02  0.51100000000E-03 0.  1.
         12    1    3    3    0    0  0.25436957646E+00  0.70979907305E+01  0.43787942980E+01  0.83438609646E+01  0.00000000000E+00 0. -1.
</event>
<event>
 7    1  0.4346085E-013  0.5930194E+02  0.7816164E-02  0.1266605E+00
        -11   -1    0    0    0    0  0.00000000000E+00  0.00000000000E+00  0.45593999997E+02  0.45594000000E+02  0.51100000000E-03 0.  1.
         11   -1    0    0    0    0 -0.00000000000E+00 -0.00000000000E+00 -0.45593999997E+02  0.45594000000E+02  0.51100000000E-03 0. -1.
    9900012    2    1    2    0    0 -0.32221858615E+01 -0.15576594391E+02  0.27635269421E+02  0.59301938931E+02  0.49999990704E+02 0.  0.
         12    1    1    2    0    0  0.32221858615E+01  0.15576594391E+02 -0.27635269421E+02  0.31886061069E+02  0.00000000000E+00 0. -1.
         11    1    3    3    0    0  0.18747459028E+01 -0.11752451168E+02  0.12325514792E+02  0.17133391252E+02  0.51100000000E-03 0. -1.
        -11    1    3    3    0    0 -0.19668712419E+02  0.40154358717E+01  0.15904282105E+02  0.25611094530E+02  0.51100000000E-03 0.  1.
        -12    1    3    3    0    0  0.14571780655E+02 -0.78395790954E+01 -0.59452747628E+00  0.16557453149E+02  0.00000000000E+00 0.  1.
</event>
<event>
 7    1  0.4346085E-013  0.5930163E+02  0.7816164E-02  0.1266606E+00
        -11   -1    0    0    0    0  0.00000000000E+00  0.00000000000E+00  0.45593999997E+02  0.45594000000E+02  0.51100000000E-03 0.  1.
         11   -1    0    0    0    0 -0.00000000000E+00 -0.00000000000E+00 -0.45593999997E+02  0.45594000000E+02  0.51100000000E-03 0. -1.
    9900012    2    1    2    0    0  0.25949280332E+02 -0.18490359461E+02  0.12174526535E+01  0.59301627774E+02  0.49999423226E+02 0.  0.
         12    1    1    2    0    0 -0.25949280332E+02  0.18490359461E+02 -0.12174526535E+01  0.31886372226E+02  0.00000000000E+00 0. -1.
         11    1    3    3    0    0 -0.10134624144E+02 -0.14076888067E+02 -0.67905531928E+01  0.18627425939E+02  0.51100000000E-03 0. -1.
        -11    1    3    3    0    0  0.15375003343E+02  0.55476827232E+01  0.66744663121E+01  0.17655481081E+02  0.51100000000E-03 0.  1.
        -12    1    3    3    0    0  0.20708901133E+02 -0.99611541173E+01  0.13335395342E+01  0.23018720755E+02  0.00000000000E+00 0.  1.
</event>
<event>
 7    1  0.4346085E-013  0.5930195E+02  0.7816164E-02  0.1266605E+00
        -11   -1    0    0    0    0  0.00000000000E+00  0.00000000000E+00  0.45593999997E+02  0.45594000000E+02  0.51100000000E-03 0.  1.
         11   -1    0    0    0    0 -0.00000000000E+00 -0.00000000000E+00 -0.45593999997E+02  0.45594000000E+02  0.51100000000E-03 0. -1.
    9900012    2    1    2    0    0  0.22817799674E+02  0.18480733251E+01  0.22195786597E+02  0.59301948196E+02  0.50000007602E+02 0.  0.
         12    1    1    2    0    0 -0.22817799674E+02 -0.18480733251E+01 -0.22195786597E+02  0.31886051804E+02  0.00000000000E+00 0. -1.
         11    1    3    3    0    0 -0.67988906179E+01  0.95542655677E+01  0.70127432552E+01  0.13663362412E+02  0.51100000000E-03 0. -1.
        -11    1    3    3    0    0  0.84436315456E+01 -0.16000971740E+02  0.13985059257E+02  0.22867179384E+02  0.51100000000E-03 0.  1.
        -12    1    3    3    0    0  0.21173058746E+02  0.82947794971E+01  0.11979840850E+01  0.22771406400E+02  0.00000000000E+00 0.  1.
</event>
<event>
 7    1  0.4346085E-013  0.5930195E+02  0.7816164E-02  0.1266605E+00
        -11   -1    0    0    0    0  0.00000000000E+00  0.00000000000E+00  0.45593999997E+02  0.45594000000E+02  0.51100000000E-03 0.  1.
         11   -1    0    0    0    0 -0.00000000000E+00 -0.00000000000E+00 -0.45593999997E+02  0.45594000000E+02  0.51100000000E-03 0. -1.
    9900012    2    1    2    0    0 -0.16495722366E+02 -0.25889059080E+02 -0.86236925966E+01  0.59301948027E+02  0.50000007294E+02 0.  0.
         12    1    1    2    0    0  0.16495722366E+02  0.25889059080E+02  0.86236925966E+01  0.31886051973E+02  0.00000000000E+00 0. -1.
         11    1    3    3    0    0  0.83448712207E+01 -0.74894293924E+01  0.11919638036E+02  0.16364785348E+02  0.51100000000E-03 0.  1.
        -11    1    3    3    0    0 -0.23175883240E+02 -0.57854731147E+01 -0.18126685882E+02  0.29986163550E+02  0.51100000000E-03 0. -1.
        -12    1    3    3    0    0 -0.16647103471E+01 -0.12614156573E+02 -0.24166447507E+01  0.12950999129E+02  0.00000000000E+00 0.  1.
</event>
<event>
 7    1  0.4346085E-013  0.5930194E+02  0.7816164E-02  0.1266605E+00
        -11   -1    0    0    0    0  0.00000000000E+00  0.00000000000E+00  0.45593999997E+02  0.45594000000E+02  0.51100000000E-03 0.  1.
         11   -1    0    0    0    0 -0.00000000000E+00 -0.00000000000E+00 -0.45593999997E+02  0.45594000000E+02  0.51100000000E-03 0. -1.
    9900012    2    1    2    0    0 -0.11117634576E+00 -0.31778757660E+02  0.26112991999E+01  0.59301942198E+02  0.49999996664E+02 0.  0.
         12    1    1    2    0    0  0.11117634576E+00  0.31778757660E+02 -0.26112991999E+01  0.31886057802E+02  0.00000000000E+00 0. -1.
         11    1    3    3    0    0 -0.34277531035E+01 -0.59192570082E+01 -0.64230553560E+01  0.93831090389E+01  0.51100000000E-03 0. -1.
        -11    1    3    3    0    0  0.96415605358E+01 -0.86450822036E+01  0.23318352050E+02  0.26672882830E+02  0.51100000000E-03 0.  1.
        -12    1    3    3    0    0 -0.63249837781E+01 -0.17214418449E+02 -0.14283997494E+02  0.23245950330E+02  0.00000000000E+00 0.  1.
</event>
<event>
 7    1  0.4346085E-013  0.5930192E+02  0.7816164E-02  0.1266605E+00
        -11   -1    0    0    0    0  0.00000000000E+00  0.00000000000E+00  0.45593999997E+02  0.45594000000E+02  0.51100000000E-03 0.  1.
         11   -1    0    0    0    0 -0.00000000000E+00 -0.00000000000E+00 -0.45593999997E+02  0.45594000000E+02  0.51100000000E-03 0. -1.
    9900012    2    1    2    0    0 -0.77641795263E+01 -0.30163053681E+02  0.68285973904E+01  0.59301921009E+02  0.49999958019E+02 0.  0.
         12    1    1    2    0    0  0.77641795263E+01  0.30163053681E+02 -0.68285973904E+01  0.31886078991E+02  0.00000000000E+00 0. -1.
         11    1    3    3    0    0 -0.23950350350E+02 -0.33519377783E+02  0.87563568527E+01  0.42117000777E+02  0.51100000000E-03 0. -1.
        -11    1    3    3    0    0  0.11136339524E+02  0.85458038719E+00 -0.27158366050E+01  0.11494526278E+02  0.51100000000E-03 0.  1.
         12    1    3    3    0    0  0.50498313001E+01  0.25017437145E+01  0.78807714270E+00  0.56903939543E+01  0.00000000000E+00 0. -1.
</event>
<event>
 7    1  0.4346085E-013  0.5930195E+02  0.7816164E-02  0.1266605E+00
        -11   -1    0    0    0    0  0.00000000000E+00  0.00000000000E+00  0.45593999997E+02  0.45594000000E+02  0.51100000000E-03 0.  1.
         11   -1    0    0    0    0 -0.00000000000E+00 -0.00000000000E+00 -0.45593999997E+02  0.45594000000E+02  0.51100000000E-03 0. -1.
    9900012    2    1    2    0    0  0.26732431251E+02  0.10612191293E+02  0.13765126124E+02  0.59301950043E+02  0.50000010971E+02 0.  0.
         12    1    1    2    0    0 -0.26732431251E+02 -0.10612191293E+02 -0.13765126124E+02  0.31886049957E+02  0.00000000000E+00 0. -1.
         11    1    3    3    0    0  0.82763858665E+01 -0.63921885611E+01 -0.61934672598E+01  0.12153916018E+02  0.51100000000E-03 0. -1.
        -11    1    3    3    0    0  0.20716735338E+00 -0.28922583135E-01  0.22092898442E+02  0.22093888672E+02  0.51100000000E-03 0.  1.
        -12    1    3    3    0    0  0.18248878031E+02  0.17033302437E+02 -0.21343050581E+01  0.25054145353E+02  0.00000000000E+00 0.  1.
</event>
<event>
 7    1  0.4346085E-013  0.5930200E+02  0.7816164E-02  0.1266605E+00
        -11   -1    0    0    0    0  0.00000000000E+00  0.00000000000E+00  0.45593999997E+02  0.45594000000E+02  0.51100000000E-03 0.  1.
         11   -1    0    0    0    0 -0.00000000000E+00 -0.00000000000E+00 -0.45593999997E+02  0.45594000000E+02  0.51100000000E-03 0. -1.
    9900012    2    1    2    0    0 -0.28290478639E+02  0.10939092071E+02  0.98337128823E+01  0.59302002666E+02  0.50000106941E+02 0.  0.
         12    1    1    2    0    0  0.28290478639E+02 -0.10939092071E+02 -0.98337128823E+01  0.31885997334E+02  0.00000000000E+00 0. -1.
         11    1    3    3    0    0 -0.17779316825E+02 -0.25694209213E+01 -0.96154468801E+01  0.20375545382E+02  0.51100000000E-03 0. -1.
        -11    1    3    3    0    0 -0.17735710114E+02  0.21555322389E+01  0.18050370885E+02  0.25397197125E+02  0.51100000000E-03 0.  1.
         12    1    3    3    0    0  0.72245482999E+01  0.11352980753E+02  0.13987888778E+01  0.13529260159E+02  0.00000000000E+00 0. -1.
</event>
<event>
 7    1  0.4346085E-013  0.5930194E+02  0.7816164E-02  0.1266605E+00
        -11   -1    0    0    0    0  0.00000000000E+00  0.00000000000E+00  0.45593999997E+02  0.45594000000E+02  0.51100000000E-03 0.  1.
         11   -1    0    0    0    0 -0.00000000000E+00 -0.00000000000E+00 -0.45593999997E+02  0.45594000000E+02  0.51100000000E-03 0. -1.
    9900012    2    1    2    0    0  0.57102427995E+01  0.25115181457E+02  0.18797377835E+02  0.59301943080E+02  0.49999998272E+02 0.  0.
         12    1    1    2    0    0 -0.57102427995E+01 -0.25115181457E+02 -0.18797377835E+02  0.31886056920E+02  0.00000000000E+00 0. -1.
         11    1    3    3    0    0 -0.58227870875E+01  0.21529249443E+02 -0.49119014449E+01  0.22837254807E+02  0.51100000000E-03 0. -1.
        -11    1    3    3    0    0  0.10416288161E+02 -0.45248193004E+01 -0.26382570508E-01  0.11356660823E+02  0.51100000000E-03 0.  1.
        -12    1    3    3    0    0  0.11167417259E+01  0.81107513144E+01  0.23735661850E+02  0.25108027450E+02  0.00000000000E+00 0.  1.
</event>
<event>
 7    1  0.4346085E-013  0.5930194E+02  0.7816164E-02  0.1266605E+00
        -11   -1    0    0    0    0  0.00000000000E+00  0.00000000000E+00  0.45593999997E+02  0.45594000000E+02  0.51100000000E-03 0.  1.
         11   -1    0    0    0    0 -0.00000000000E+00 -0.00000000000E+00 -0.45593999997E+02  0.45594000000E+02  0.51100000000E-03 0. -1.
    9900012    2    1    2    0    0 -0.59352169140E+00 -0.72410436226E+01  0.31047317820E+02  0.59301938397E+02  0.49999989730E+02 0.  0.
         12    1    1    2    0    0  0.59352169140E+00  0.72410436226E+01 -0.31047317820E+02  0.31886061603E+02  0.00000000000E+00 0. -1.
         11    1    3    3    0    0  0.91181629120E+01  0.12806960299E+02  0.41806134891E+01  0.16267656758E+02  0.51100000000E-03 0. -1.
        -11    1    3    3    0    0  0.16498883083E+01 -0.17543472469E+02  0.25945627270E+02  0.31363531886E+02  0.51100000000E-03 0.  1.
         12    1    3    3    0    0 -0.11361572912E+02 -0.25045314533E+01  0.92107706162E+00  0.11670749752E+02  0.00000000000E+00 0. -1.
</event>
<event>
 7    1  0.4346085E-013  0.5930198E+02  0.7816164E-02  0.1266605E+00
        -11   -1    0    0    0    0  0.00000000000E+00  0.00000000000E+00  0.45593999997E+02  0.45594000000E+02  0.51100000000E-03 0.  1.
         11   -1    0    0    0    0 -0.00000000000E+00 -0.00000000000E+00 -0.45593999997E+02  0.45594000000E+02  0.51100000000E-03 0. -1.
    9900012    2    1    2    0    0 -0.49427811871E+01  0.81448817881E+01  0.30429391019E+02  0.59301983895E+02  0.50000072709E+02 0.  0.
         12    1    1    2    0    0  0.49427811871E+01 -0.81448817881E+01 -0.30429391019E+02  0.31886016105E+02  0.00000000000E+00 0. -1.
         11    1    3    3    0    0 -0.16427863551E+01  0.18614241275E+02  0.30782945680E+02  0.36010810463E+02  0.51100000000E-03 0.  1.
        -11    1    3    3    0    0  0.74109971704E+01 -0.10147572449E+02 -0.47529160306E+00  0.12574657372E+02  0.51100000000E-03 0. -1.
        -12    1    3    3    0    0 -0.10710992002E+02 -0.32178703829E+00  0.12173694291E+00  0.10716516060E+02  0.00000000000E+00 0.  1.
</event>
<event>
 7    1  0.4346085E-013  0.5930185E+02  0.7816164E-02  0.1266605E+00
        -11   -1    0    0    0    0  0.00000000000E+00  0.00000000000E+00  0.45593999997E+02  0.45594000000E+02  0.51100000000E-03 0.  1.
         11   -1    0    0    0    0 -0.00000000000E+00 -0.00000000000E+00 -0.45593999997E+02  0.45594000000E+02  0.51100000000E-03 0. -1.
    9900012    2    1    2    0    0 -0.22208797480E+02 -0.20976330066E+02  0.91372679892E+01  0.59301846660E+02  0.49999822424E+02 0.  0.
         12    1    1    2    0    0  0.22208797480E+02  0.20976330066E+02 -0.91372679892E+01  0.31886153340E+02  0.00000000000E+00 0. -1.
         11    1    3    3    0    0 -0.16793695308E+01 -0.53117060204E+00 -0.11314326928E+02  0.11450607771E+02  0.51100000000E-03 0. -1.
        -11    1    3    3    0    0 -0.24748011064E+02 -0.24325095655E+02  0.22944784932E+02  0.41600931313E+02  0.51100000000E-03 0.  1.
         12    1    3    3    0    0  0.42185831154E+01  0.38799361913E+01 -0.24931900148E+01  0.62503075764E+01  0.00000000000E+00 0. -1.
</event>
<event>
 7    1  0.4346085E-013  0.5930197E+02  0.7816164E-02  0.1266605E+00
        -11   -1    0    0    0    0  0.00000000000E+00  0.00000000000E+00  0.45593999997E+02  0.45594000000E+02  0.51100000000E-03 0.  1.
         11   -1    0    0    0    0 -0.00000000000E+00 -0.00000000000E+00 -0.45593999997E+02  0.45594000000E+02  0.51100000000E-03 0. -1.
    9900012    2    1    2    0    0  0.19323151395E+02  0.17857945410E+02  0.18011905646E+02  0.59301966394E+02  0.50000040791E+02 0.  0.
         12    1    1    2    0    0 -0.19323151395E+02 -0.17857945410E+02 -0.18011905646E+02  0.31886033606E+02  0.00000000000E+00 0. -1.
         11    1    3    3    0    0  0.22283205591E+02  0.83205126988E+01 -0.15271429984E+01  0.23834939668E+02  0.51100000000E-03 0. -1.
        -11    1    3    3    0    0 -0.57443355547E+01 -0.43706381810E+01  0.20013219208E+02  0.21275074910E+02  0.51100000000E-03 0.  1.
        -12    1    3    3    0    0  0.27842813590E+01  0.13908070892E+02 -0.47417056395E+00  0.14191951816E+02  0.00000000000E+00 0.  1.
</event>
<event>
 7    1  0.4346085E-013  0.5930195E+02  0.7816164E-02  0.1266605E+00
        -11   -1    0    0    0    0  0.00000000000E+00  0.00000000000E+00  0.45593999997E+02  0.45594000000E+02  0.51100000000E-03 0. -1.
         11   -1    0    0    0    0 -0.00000000000E+00 -0.00000000000E+00 -0.45593999997E+02  0.45594000000E+02  0.51100000000E-03 0.  1.
    9900012    2    1    2    0    0  0.48248050137E+01  0.11429116787E+02 -0.29373744222E+02  0.59301948135E+02  0.50000007490E+02 0.  0.
         12    1    1    2    0    0 -0.48248050137E+01 -0.11429116787E+02  0.29373744222E+02  0.31886051865E+02  0.00000000000E+00 0. -1.
         11    1    3    3    0    0  0.98593380370E+01  0.12165763736E+02 -0.25526542879E+02  0.29946898762E+02  0.51100000000E-03 0. -1.
        -11    1    3    3    0    0  0.75110928474E+01 -0.10560915969E+02  0.13340593173E-01  0.12959538576E+02  0.51100000000E-03 0.  1.
         12    1    3    3    0    0 -0.12545625871E+02  0.98242690203E+01 -0.38605419354E+01  0.16395510797E+02  0.00000000000E+00 0. -1.
</event>
<event>
 7    1  0.4346085E-013  0.5930192E+02  0.7816164E-02  0.1266605E+00
        -11   -1    0    0    0    0  0.00000000000E+00  0.00000000000E+00  0.45593999997E+02  0.45594000000E+02  0.51100000000E-03 0.  1.
         11   -1    0    0    0    0 -0.00000000000E+00 -0.00000000000E+00 -0.45593999997E+02  0.45594000000E+02  0.51100000000E-03 0. -1.
    9900012    2    1    2    0    0 -0.34571588040E+01 -0.25591272977E+02 -0.18704455749E+02  0.59301923659E+02  0.49999962852E+02 0.  0.
         12    1    1    2    0    0  0.34571588040E+01  0.25591272977E+02  0.18704455749E+02  0.31886076341E+02  0.00000000000E+00 0. -1.
         11    1    3    3    0    0 -0.11588568634E+01 -0.16380228136E+02 -0.17910577261E+02  0.24299045271E+02  0.51100000000E-03 0. -1.
        -11    1    3    3    0    0  0.24682755029E+01 -0.11783897787E+02  0.14459861822E+02  0.18815956930E+02  0.51100000000E-03 0.  1.
        -12    1    3    3    0    0 -0.47665774435E+01  0.25728529460E+01 -0.15253740310E+02  0.16186921457E+02  0.00000000000E+00 0.  1.
</event>
<event>
 7    1  0.4346085E-013  0.5930195E+02  0.7816164E-02  0.1266605E+00
        -11   -1    0    0    0    0  0.00000000000E+00  0.00000000000E+00  0.45593999997E+02  0.45594000000E+02  0.51100000000E-03 0.  1.
         11   -1    0    0    0    0 -0.00000000000E+00 -0.00000000000E+00 -0.45593999997E+02  0.45594000000E+02  0.51100000000E-03 0. -1.
    9900012    2    1    2    0    0 -0.31414057412E+02 -0.23552933433E+01 -0.49325084792E+01  0.59301952115E+02  0.50000014749E+02 0.  0.
         12    1    1    2    0    0  0.31414057412E+02  0.23552933433E+01  0.49325084792E+01  0.31886047885E+02  0.00000000000E+00 0. -1.
         11    1    3    3    0    0 -0.33036545113E+02  0.57182218149E+01  0.83662684046E+01  0.34555836280E+02  0.51100000000E-03 0. -1.
        -11    1    3    3    0    0  0.36266543980E+01  0.41372113971E+01  0.12548845933E+01  0.56430378229E+01  0.51100000000E-03 0.  1.
         12    1    3    3    0    0 -0.20041666978E+01 -0.12210726555E+02 -0.14553661477E+02  0.19103078012E+02  0.00000000000E+00 0. -1.
</event>
<event>
 7    1  0.4346085E-013  0.5930195E+02  0.7816164E-02  0.1266605E+00
        -11   -1    0    0    0    0  0.00000000000E+00  0.00000000000E+00  0.45593999997E+02  0.45594000000E+02  0.51100000000E-03 0.  1.
         11   -1    0    0    0    0 -0.00000000000E+00 -0.00000000000E+00 -0.45593999997E+02  0.45594000000E+02  0.51100000000E-03 0. -1.
    9900012    2    1    2    0    0  0.13556010396E+02  0.24592332679E+02  0.15105360557E+02  0.59301950354E+02  0.50000011538E+02 0.  0.
         12    1    1    2    0    0 -0.13556010396E+02 -0.24592332679E+02 -0.15105360557E+02  0.31886049646E+02  0.00000000000E+00 0. -1.
         11    1    3    3    0    0  0.14033302763E+02  0.16539572137E+02  0.29139367478E+00  0.21692762467E+02  0.51100000000E-03 0. -1.
        -11    1    3    3    0    0 -0.15074516018E+02  0.64415804813E+00 -0.63357568520E+00  0.15101569163E+02  0.51100000000E-03 0.  1.
        -12    1    3    3    0    0  0.14597223651E+02  0.74086024933E+01  0.15447542568E+02  0.22507618724E+02  0.00000000000E+00 0.  1.
</event>
<event>
 7    1  0.4346085E-013  0.5930194E+02  0.7816164E-02  0.1266605E+00
        -11   -1    0    0    0    0  0.00000000000E+00  0.00000000000E+00  0.45593999997E+02  0.45594000000E+02  0.51100000000E-03 0.  1.
         11   -1    0    0    0    0 -0.00000000000E+00 -0.00000000000E+00 -0.45593999997E+02  0.45594000000E+02  0.51100000000E-03 0. -1.
    9900012    2    1    2    0    0 -0.15826862739E+02 -0.24898364904E+02  0.12095555072E+02  0.59301943305E+02  0.49999998682E+02 0.  0.
         12    1    1    2    0    0  0.15826862739E+02  0.24898364904E+02 -0.12095555072E+02  0.31886056695E+02  0.00000000000E+00 0. -1.
         11    1    3    3    0    0  0.79369329895E+01 -0.60239713484E+01 -0.13421887413E+02  0.16716165770E+02  0.51100000000E-03 0. -1.
        -11    1    3    3    0    0 -0.30366191257E+01 -0.11476574750E+02  0.67109560818E+01  0.13637072835E+02  0.51100000000E-03 0.  1.
         12    1    3    3    0    0 -0.20727176603E+02 -0.73978188059E+01  0.18806486402E+02  0.28948704700E+02  0.00000000000E+00 0. -1.
</event>
<event>
 7    1  0.4346085E-013  0.5930195E+02  0.7816164E-02  0.1266605E+00
        -11   -1    0    0    0    0  0.00000000000E+00  0.00000000000E+00  0.45593999997E+02  0.45594000000E+02  0.51100000000E-03 0. -1.
         11   -1    0    0    0    0 -0.00000000000E+00 -0.00000000000E+00 -0.45593999997E+02  0.45594000000E+02  0.51100000000E-03 0.  1.
    9900012    2    1    2    0    0 -0.14665774532E+02  0.97527613105E+01 -0.26580422278E+02  0.59301950633E+02  0.50000012046E+02 0.  0.
         12    1    1    2    0    0  0.14665774532E+02 -0.97527613105E+01  0.26580422278E+02  0.31886049367E+02  0.00000000000E+00 0. -1.
         11    1    3    3    0    0 -0.49121992787E+01  0.11679726529E+02  0.97991555412E+01  0.16017776473E+02  0.51100000000E-03 0. -1.
        -11    1    3    3    0    0 -0.54624629129E+01  0.95605589275E+01 -0.14559846854E+02  0.18254641294E+02  0.51100000000E-03 0.  1.
         12    1    3    3    0    0 -0.42911123400E+01 -0.11487524146E+02 -0.21819730965E+02  0.25029532866E+02  0.00000000000E+00 0. -1.
</event>
<event>
 7    1  0.4346085E-013  0.5930188E+02  0.7816164E-02  0.1266605E+00
        -11   -1    0    0    0    0  0.00000000000E+00  0.00000000000E+00  0.45593999997E+02  0.45594000000E+02  0.51100000000E-03 0.  1.
         11   -1    0    0    0    0 -0.00000000000E+00 -0.00000000000E+00 -0.45593999997E+02  0.45594000000E+02  0.51100000000E-03 0. -1.
    9900012    2    1    2    0    0  0.23031229400E+02  0.45668871008E+01  0.21573845927E+02  0.59301877414E+02  0.49999878513E+02 0.  0.
         12    1    1    2    0    0 -0.23031229400E+02 -0.45668871008E+01 -0.21573845927E+02  0.31886122586E+02  0.00000000000E+00 0. -1.
         11    1    3    3    0    0 -0.60467328434E+00  0.16661770674E+01 -0.14142317201E+02  0.14252961513E+02  0.51100000000E-03 0. -1.
        -11    1    3    3    0    0  0.25099373711E+02  0.41343975852E+01  0.32096569357E+02  0.40954384000E+02  0.51100000000E-03 0.  1.
        -12    1    3    3    0    0 -0.14634710264E+01 -0.12336875518E+01  0.36195937714E+01  0.40945319013E+01  0.00000000000E+00 0.  1.
</event>
<event>
 7    1  0.4346085E-013  0.5930197E+02  0.7816164E-02  0.1266605E+00
        -11   -1    0    0    0    0  0.00000000000E+00  0.00000000000E+00  0.45593999997E+02  0.45594000000E+02  0.51100000000E-03 0. -1.
         11   -1    0    0    0    0 -0.00000000000E+00 -0.00000000000E+00 -0.45593999997E+02  0.45594000000E+02  0.51100000000E-03 0.  1.
    9900012    2    1    2    0    0  0.17571028874E+02 -0.93034557395E+01 -0.24928373248E+02  0.59301966425E+02  0.50000040846E+02 0.  0.
         12    1    1    2    0    0 -0.17571028874E+02  0.93034557395E+01  0.24928373248E+02  0.31886033575E+02  0.00000000000E+00 0. -1.
         11    1    3    3    0    0 -0.10360336164E+01  0.66548585803E+00  0.53497822439E+01  0.54896636873E+01  0.51100000000E-03 0. -1.
        -11    1    3    3    0    0 -0.19481736855E+01 -0.13909701877E+02 -0.29723995644E+02  0.32875387516E+02  0.51100000000E-03 0.  1.
        -12    1    3    3    0    0  0.20555236176E+02  0.39407602794E+01 -0.55415984754E+00  0.20936915221E+02  0.00000000000E+00 0.  1.
</event>
<event>
 7    1  0.4346085E-013  0.5930195E+02  0.7816164E-02  0.1266605E+00
        -11   -1    0    0    0    0  0.00000000000E+00  0.00000000000E+00  0.45593999997E+02  0.45594000000E+02  0.51100000000E-03 0. -1.
         11   -1    0    0    0    0 -0.00000000000E+00 -0.00000000000E+00 -0.45593999997E+02  0.45594000000E+02  0.51100000000E-03 0.  1.
    9900012    2    1    2    0    0  0.35410333737E+01  0.13278205038E+02 -0.28772741671E+02  0.59301948039E+02  0.50000007316E+02 0.  0.
         12    1    1    2    0    0 -0.35410333737E+01 -0.13278205038E+02  0.28772741671E+02  0.31886051961E+02  0.00000000000E+00 0. -1.
         11    1    3    3    0    0  0.48694562622E+01  0.24450613256E+02 -0.47352287751E+01  0.25376494728E+02  0.51100000000E-03 0. -1.
        -11    1    3    3    0    0  0.44269150592E+01 -0.15159769499E+02 -0.21043445571E+02  0.26310507216E+02  0.51100000000E-03 0.  1.
        -12    1    3    3    0    0 -0.57553379477E+01  0.39873612811E+01 -0.29940673244E+01  0.76149460945E+01  0.00000000000E+00 0.  1.
</event>
<event>
 7    1  0.4346085E-013  0.5930195E+02  0.7816164E-02  0.1266605E+00
        -11   -1    0    0    0    0  0.00000000000E+00  0.00000000000E+00  0.45593999997E+02  0.45594000000E+02  0.51100000000E-03 0.  1.
         11   -1    0    0    0    0 -0.00000000000E+00 -0.00000000000E+00 -0.45593999997E+02  0.45594000000E+02  0.51100000000E-03 0. -1.
    9900012    2    1    2    0    0  0.21635467759E+02 -0.95493719286E+01 -0.21387755851E+02  0.59301951802E+02  0.50000014178E+02 0.  0.
         12    1    1    2    0    0 -0.21635467759E+02  0.95493719286E+01  0.21387755851E+02  0.31886048198E+02  0.00000000000E+00 0. -1.
         11    1    3    3    0    0  0.70383269777E+01  0.15489607671E+02 -0.16388914415E+02  0.23623346681E+02  0.51100000000E-03 0. -1.
        -11    1    3    3    0    0  0.15425709034E+02 -0.25463523451E+02  0.82289918157E+00  0.29782892556E+02  0.51100000000E-03 0.  1.
        -12    1    3    3    0    0 -0.82856825229E+00  0.42454385105E+00 -0.58217406167E+01  0.58957125641E+01  0.00000000000E+00 0.  1.
</event>
<event>
 7    1  0.4346085E-013  0.5930194E+02  0.7816164E-02  0.1266605E+00
        -11   -1    0    0    0    0  0.00000000000E+00  0.00000000000E+00  0.45593999997E+02  0.45594000000E+02  0.51100000000E-03 0. -1.
         11   -1    0    0    0    0 -0.00000000000E+00 -0.00000000000E+00 -0.45593999997E+02  0.45594000000E+02  0.51100000000E-03 0.  1.
    9900012    2    1    2    0    0  0.31841674868E+02  0.13220688752E+01 -0.10396973734E+01  0.59301935722E+02  0.49999984853E+02 0.  0.
         12    1    1    2    0    0 -0.31841674868E+02 -0.13220688752E+01  0.10396973734E+01  0.31886064278E+02  0.00000000000E+00 0. -1.
         11    1    3    3    0    0  0.39129963151E+01 -0.65812914037E+01 -0.18618621167E+02  0.20131517357E+02  0.51100000000E-03 0. -1.
        -11    1    3    3    0    0  0.15144123116E+02 -0.41616837665E+01  0.22869457299E+01  0.15871175059E+02  0.51100000000E-03 0.  1.
         12    1    3    3    0    0  0.12784555437E+02  0.12065044045E+02  0.15291978063E+02  0.23299243306E+02  0.00000000000E+00 0. -1.
</event>
<event>
 7    1  0.4346085E-013  0.5930197E+02  0.7816164E-02  0.1266605E+00
        -11   -1    0    0    0    0  0.00000000000E+00  0.00000000000E+00  0.45593999997E+02  0.45594000000E+02  0.51100000000E-03 0.  1.
         11   -1    0    0    0    0 -0.00000000000E+00 -0.00000000000E+00 -0.45593999997E+02  0.45594000000E+02  0.51100000000E-03 0. -1.
    9900012    2    1    2    0    0  0.47120676095E+01  0.17697815363E+02  0.26101781063E+02  0.59301965056E+02  0.50000038351E+02 0.  0.
         12    1    1    2    0    0 -0.47120676095E+01 -0.17697815363E+02 -0.26101781063E+02  0.31886034944E+02  0.00000000000E+00 0. -1.
         11    1    3    3    0    0  0.10436587041E+02  0.63509659383E+01 -0.11400350160E+02  0.16710029966E+02  0.51100000000E-03 0. -1.
        -11    1    3    3    0    0  0.19698919516E+01  0.70687609267E+01  0.30421705070E+02  0.31294216637E+02  0.51100000000E-03 0.  1.
         12    1    3    3    0    0 -0.76944113832E+01  0.42780884978E+01  0.70804261539E+01  0.11297718453E+02  0.00000000000E+00 0. -1.
</event>
<event>
 7    1  0.4346085E-013  0.5930199E+02  0.7816164E-02  0.1266605E+00
        -11   -1    0    0    0    0  0.00000000000E+00  0.00000000000E+00  0.45593999997E+02  0.45594000000E+02  0.51100000000E-03 0.  1.
         11   -1    0    0    0    0 -0.00000000000E+00 -0.00000000000E+00 -0.45593999997E+02  0.45594000000E+02  0.51100000000E-03 0. -1.
    9900012    2    1    2    0    0 -0.46290743167E+01  0.29051012126E+02  0.12301557324E+02  0.59301985085E+02  0.50000074879E+02 0.  0.
         12    1    1    2    0    0  0.46290743167E+01 -0.29051012126E+02 -0.12301557324E+02  0.31886014915E+02  0.00000000000E+00 0. -1.
         11    1    3    3    0    0  0.12297632690E+02 -0.16293773655E+01  0.20773867930E+01  0.12577844670E+02  0.51100000000E-03 0. -1.
        -11    1    3    3    0    0 -0.12214583749E+02  0.22526830900E+02  0.20477657029E+02  0.32802265230E+02  0.51100000000E-03 0.  1.
        -12    1    3    3    0    0 -0.47121232584E+01  0.81535585916E+01 -0.10253486499E+02  0.13921875186E+02  0.00000000000E+00 0.  1.
</event>
<event>
 7    1  0.4346085E-013  0.5930204E+02  0.7816164E-02  0.1266604E+00
        -11   -1    0    0    0    0  0.00000000000E+00  0.00000000000E+00  0.45593999997E+02  0.45594000000E+02  0.51100000000E-03 0. -1.
         11   -1    0    0    0    0 -0.00000000000E+00 -0.00000000000E+00 -0.45593999997E+02  0.45594000000E+02  0.51100000000E-03 0.  1.
    9900012    2    1    2    0    0  0.18841070706E+02  0.21875003100E+02 -0.13535603192E+02  0.59302042907E+02  0.50000180332E+02 0.  0.
         12    1    1    2    0    0 -0.18841070706E+02 -0.21875003100E+02  0.13535603192E+02  0.31885957093E+02  0.00000000000E+00 0. -1.
         11    1    3    3    0    0  0.15879783228E+02  0.14322453101E+02  0.12413269359E+02  0.24726290354E+02  0.51100000000E-03 0. -1.
        -11    1    3    3    0    0 -0.56797973769E+00  0.14427060977E+02 -0.20685414518E+02  0.25225960110E+02  0.51100000000E-03 0.  1.
        -12    1    3    3    0    0  0.35292672149E+01 -0.68745109785E+01 -0.52634580331E+01  0.93497924433E+01  0.00000000000E+00 0.  1.
</event>
<event>
 7    1  0.4346085E-013  0.5930194E+02  0.7816164E-02  0.1266605E+00
        -11   -1    0    0    0    0  0.00000000000E+00  0.00000000000E+00  0.45593999997E+02  0.45594000000E+02  0.51100000000E-03 0.  1.
         11   -1    0    0    0    0 -0.00000000000E+00 -0.00000000000E+00 -0.45593999997E+02  0.45594000000E+02  0.51100000000E-03 0. -1.
    9900012    2    1    2    0    0 -0.11707699415E+01  0.23755035840E+02  0.21237892592E+02  0.59301944870E+02  0.50000001535E+02 0.  0.
         12    1    1    2    0    0  0.11707699415E+01 -0.23755035840E+02 -0.21237892592E+02  0.31886055130E+02  0.00000000000E+00 0. -1.
         11    1    3    3    0    0  0.42525602902E+01 -0.23719021814E+01 -0.76017049352E+01  0.90275194358E+01  0.51100000000E-03 0. -1.
        -11    1    3    3    0    0 -0.53714653805E+01  0.11745189013E+02  0.32888514940E+02  0.35333504220E+02  0.51100000000E-03 0.  1.
        -12    1    3    3    0    0 -0.51864851261E-01  0.14381749008E+02 -0.40489174120E+01  0.14940921214E+02  0.00000000000E+00 0.  1.
</event>
<event>
 7    1  0.4346085E-013  0.5930193E+02  0.7816164E-02  0.1266605E+00
        -11   -1    0    0    0    0  0.00000000000E+00  0.00000000000E+00  0.45593999997E+02  0.45594000000E+02  0.51100000000E-03 0. -1.
         11   -1    0    0    0    0 -0.00000000000E+00 -0.00000000000E+00 -0.45593999997E+02  0.45594000000E+02  0.51100000000E-03 0.  1.
    9900012    2    1    2    0    0 -0.23249611878E+02  0.15395514351E+01 -0.21767098437E+02  0.59301933364E+02  0.49999980552E+02 0.  0.
         12    1    1    2    0    0  0.23249611878E+02 -0.15395514351E+01  0.21767098437E+02  0.31886066636E+02  0.00000000000E+00 0. -1.
         11    1    3    3    0    0 -0.33614529766E+02  0.13183360415E+01 -0.40965402804E+01  0.33888881124E+02  0.51100000000E-03 0. -1.
        -11    1    3    3    0    0  0.18541937354E+01 -0.51013707947E+01 -0.13486700294E+02  0.14537988289E+02  0.51100000000E-03 0.  1.
         12    1    3    3    0    0  0.85107241526E+01  0.53225861883E+01 -0.41838578629E+01  0.10875063952E+02  0.00000000000E+00 0. -1.
</event>
<event>
 7    1  0.4346085E-013  0.5930189E+02  0.7816164E-02  0.1266605E+00
        -11   -1    0    0    0    0  0.00000000000E+00  0.00000000000E+00  0.45593999997E+02  0.45594000000E+02  0.51100000000E-03 0.  1.
         11   -1    0    0    0    0 -0.00000000000E+00 -0.00000000000E+00 -0.45593999997E+02  0.45594000000E+02  0.51100000000E-03 0. -1.
    9900012    2    1    2    0    0 -0.20066249588E+02 -0.24216604890E+02  0.52560315337E+01  0.59301887155E+02  0.49999896277E+02 0.  0.
         12    1    1    2    0    0  0.20066249588E+02  0.24216604890E+02 -0.52560315337E+01  0.31886112845E+02  0.00000000000E+00 0. -1.
         11    1    3    3    0    0 -0.19303654702E+02  0.49900572441E+01  0.17821846119E+02  0.26742287776E+02  0.51100000000E-03 0. -1.
        -11    1    3    3    0    0 -0.27325404000E+01 -0.16101094786E+02 -0.41152954224E+01  0.16841843338E+02  0.51100000000E-03 0.  1.
         12    1    3    3    0    0  0.19699455146E+01 -0.13105567348E+02 -0.84505191625E+01  0.15717756041E+02  0.00000000000E+00 0. -1.
</event>
<event>
 7    1  0.4346085E-013  0.5930191E+02  0.7816164E-02  0.1266605E+00
        -11   -1    0    0    0    0  0.00000000000E+00  0.00000000000E+00  0.45593999997E+02  0.45594000000E+02  0.51100000000E-03 0.  1.
         11   -1    0    0    0    0 -0.00000000000E+00 -0.00000000000E+00 -0.45593999997E+02  0.45594000000E+02  0.51100000000E-03 0. -1.
    9900012    2    1    2    0    0  0.19995103734E+01  0.15055933263E+02  0.28036472506E+02  0.59301906499E+02  0.49999931556E+02 0.  0.
         12    1    1    2    0    0 -0.19995103734E+01 -0.15055933263E+02 -0.28036472506E+02  0.31886093501E+02  0.00000000000E+00 0. -1.
         11    1    3    3    0    0  0.12202780416E+01  0.16867047838E+02  0.96692641898E+01  0.19480273394E+02  0.51100000000E-03 0. -1.
        -11    1    3    3    0    0  0.74428722920E+00 -0.36094915533E+01  0.28901171680E+02  0.29135204092E+02  0.51100000000E-03 0.  1.
        -12    1    3    3    0    0  0.34945102635E-01  0.17983769782E+01 -0.10533963363E+02  0.10686429013E+02  0.00000000000E+00 0.  1.
</event>
<event>
 7    1  0.4346085E-013  0.5930195E+02  0.7816164E-02  0.1266605E+00
        -11   -1    0    0    0    0  0.00000000000E+00  0.00000000000E+00  0.45593999997E+02  0.45594000000E+02  0.51100000000E-03 0. -1.
         11   -1    0    0    0    0 -0.00000000000E+00 -0.00000000000E+00 -0.45593999997E+02  0.45594000000E+02  0.51100000000E-03 0.  1.
    9900012    2    1    2    0    0  0.23453726679E+02  0.21120112585E+02 -0.45369624455E+01  0.59301945384E+02  0.50000002473E+02 0.  0.
         12    1    1    2    0    0 -0.23453726679E+02 -0.21120112585E+02  0.45369624455E+01  0.31886054616E+02  0.00000000000E+00 0. -1.
         11    1    3    3    0    0 -0.72549196520E-01 -0.13067029148E+02 -0.91587127389E+01  0.15957272118E+02  0.51100000000E-03 0. -1.
        -11    1    3    3    0    0  0.19647295020E+02  0.19933140891E+02  0.55880901261E+01  0.28540726321E+02  0.51100000000E-03 0.  1.
         12    1    3    3    0    0  0.38789808555E+01  0.14254000842E+02 -0.96633983265E+00  0.14803946945E+02  0.00000000000E+00 0. -1.
</event>
<event>
 7    1  0.4346085E-013  0.5930197E+02  0.7816164E-02  0.1266605E+00
        -11   -1    0    0    0    0  0.00000000000E+00  0.00000000000E+00  0.45593999997E+02  0.45594000000E+02  0.51100000000E-03 0. -1.
         11   -1    0    0    0    0 -0.00000000000E+00 -0.00000000000E+00 -0.45593999997E+02  0.45594000000E+02  0.51100000000E-03 0.  1.
    9900012    2    1    2    0    0  0.14843944774E+02  0.23773937603E+02 -0.15204474781E+02  0.59301970787E+02  0.50000048802E+02 0.  0.
         12    1    1    2    0    0 -0.14843944774E+02 -0.23773937603E+02  0.15204474781E+02  0.31886029213E+02  0.00000000000E+00 0. -1.
         11    1    3    3    0    0 -0.68975503562E+01 -0.95421624097E+01 -0.75121720198E+00  0.11798024916E+02  0.51100000000E-03 0. -1.
        -11    1    3    3    0    0  0.12951817482E+02  0.33193850162E+02 -0.15080388424E+02  0.38691076231E+02  0.51100000000E-03 0.  1.
        -12    1    3    3    0    0  0.87896776483E+01  0.12224985132E+00  0.62713084572E+00  0.88128696397E+01  0.00000000000E+00 0.  1.
</event>
<event>
 7    1  0.4346085E-013  0.5930184E+02  0.7816164E-02  0.1266605E+00
        -11   -1    0    0    0    0  0.00000000000E+00  0.00000000000E+00  0.45593999997E+02  0.45594000000E+02  0.51100000000E-03 0.  1.
         11   -1    0    0    0    0 -0.00000000000E+00 -0.00000000000E+00 -0.45593999997E+02  0.45594000000E+02  0.51100000000E-03 0. -1.
    9900012    2    1    2    0    0  0.17852032714E+02  0.25660828670E+02  0.62891809404E+01  0.59301843177E+02  0.49999816071E+02 0.  0.
         12    1    1    2    0    0 -0.17852032714E+02 -0.25660828670E+02 -0.62891809404E+01  0.31886156823E+02  0.00000000000E+00 0. -1.
         11    1    3    3    0    0 -0.63930035053E+01 -0.98633305049E+01  0.30860376337E+01  0.12152341791E+02  0.51100000000E-03 0. -1.
        -11    1    3    3    0    0  0.24556182464E+02  0.32263028961E+02  0.80136195161E+01  0.41329495920E+02  0.51100000000E-03 0.  1.
        -12    1    3    3    0    0 -0.31114624526E+00  0.32611302141E+01 -0.48104762095E+01  0.58200054657E+01  0.00000000000E+00 0.  1.
</event>
<event>
 7    1  0.4346085E-013  0.5930194E+02  0.7816164E-02  0.1266605E+00
        -11   -1    0    0    0    0  0.00000000000E+00  0.00000000000E+00  0.45593999997E+02  0.45594000000E+02  0.51100000000E-03 0.  1.
         11   -1    0    0    0    0 -0.00000000000E+00 -0.00000000000E+00 -0.45593999997E+02  0.45594000000E+02  0.51100000000E-03 0. -1.
    9900012    2    1    2    0    0 -0.59920005209E+00 -0.31658441617E+02  0.37556303850E+01  0.59301941512E+02  0.49999995411E+02 0.  0.
         12    1    1    2    0    0  0.59920005209E+00  0.31658441617E+02 -0.37556303850E+01  0.31886058488E+02  0.00000000000E+00 0. -1.
         11    1    3    3    0    0  0.51987955905E+01  0.27269705951E+01 -0.17298298408E+01  0.61201434426E+01  0.51100000000E-03 0. -1.
        -11    1    3    3    0    0 -0.20597721689E+02 -0.70227558443E+01  0.14145777433E+01  0.21807940500E+02  0.51100000000E-03 0.  1.
        -12    1    3    3    0    0  0.14799726046E+02 -0.27362656368E+02  0.40708824825E+01  0.31373857569E+02  0.00000000000E+00 0.  1.
</event>
<event>
 7    1  0.4346085E-013  0.5930195E+02  0.7816164E-02  0.1266605E+00
        -11   -1    0    0    0    0  0.00000000000E+00  0.00000000000E+00  0.45593999997E+02  0.45594000000E+02  0.51100000000E-03 0.  1.
         11   -1    0    0    0    0 -0.00000000000E+00 -0.00000000000E+00 -0.45593999997E+02  0.45594000000E+02  0.51100000000E-03 0. -1.
    9900012    2    1    2    0    0  0.11437082527E+02 -0.78422676855E+00  0.29753965265E+02  0.59301947919E+02  0.50000007096E+02 0.  0.
         12    1    1    2    0    0 -0.11437082527E+02  0.78422676855E+00 -0.29753965265E+02  0.31886052081E+02  0.00000000000E+00 0. -1.
         11    1    3    3    0    0 -0.98218840776E+01 -0.24162766883E+01 -0.66719121613E+01  0.12117021582E+02  0.51100000000E-03 0. -1.
        -11    1    3    3    0    0  0.13416825254E+02 -0.94142667305E+01  0.18505820463E+02  0.24720538207E+02  0.51100000000E-03 0.  1.
         12    1    3    3    0    0  0.78421413505E+01  0.11046316650E+02  0.17920056963E+02  0.22464388130E+02  0.00000000000E+00 0. -1.
</event>
<event>
 7    1  0.4346085E-013  0.5930193E+02  0.7816164E-02  0.1266605E+00
        -11   -1    0    0    0    0  0.00000000000E+00  0.00000000000E+00  0.45593999997E+02  0.45594000000E+02  0.51100000000E-03 0.  1.
         11   -1    0    0    0    0 -0.00000000000E+00 -0.00000000000E+00 -0.45593999997E+02  0.45594000000E+02  0.51100000000E-03 0. -1.
    9900012    2    1    2    0    0 -0.15457592023E+02  0.17053050482E+02  0.22067572488E+02  0.59301930355E+02  0.49999975065E+02 0.  0.
         12    1    1    2    0    0  0.15457592023E+02 -0.17053050482E+02 -0.22067572488E+02  0.31886069645E+02  0.00000000000E+00 0. -1.
         11    1    3    3    0    0 -0.16968849554E+01  0.47274980575E+00 -0.25138597722E+01  0.30695931565E+01  0.51100000000E-03 0. -1.
        -11    1    3    3    0    0 -0.18469722820E+02  0.40940844523E-02  0.32411549121E+02  0.37304680598E+02  0.51100000000E-03 0.  1.
        -12    1    3    3    0    0  0.47090157524E+01  0.16576206592E+02 -0.78301168616E+01  0.18927656601E+02  0.00000000000E+00 0.  1.
</event>
<event>
 7    1  0.4346085E-013  0.5930194E+02  0.7816164E-02  0.1266605E+00
        -11   -1    0    0    0    0  0.00000000000E+00  0.00000000000E+00  0.45593999997E+02  0.45594000000E+02  0.51100000000E-03 0.  1.
         11   -1    0    0    0    0 -0.00000000000E+00 -0.00000000000E+00 -0.45593999997E+02  0.45594000000E+02  0.51100000000E-03 0. -1.
    9900012    2    1    2    0    0 -0.13273499079E+02 -0.87828491672E+01  0.27629636340E+02  0.59301936876E+02  0.49999986956E+02 0.  0.
         12    1    1    2    0    0  0.13273499079E+02  0.87828491672E+01 -0.27629636340E+02  0.31886063124E+02  0.00000000000E+00 0. -1.
         11    1    3    3    0    0 -0.92296185891E+01  0.23547507821E+01 -0.10058240153E+02  0.13852758057E+02  0.51100000000E-03 0. -1.
        -11    1    3    3    0    0 -0.12586051056E+02 -0.10940547316E+02  0.22268798148E+02  0.27820920689E+02  0.51100000000E-03 0.  1.
         12    1    3    3    0    0  0.85421705654E+01 -0.19705263368E+00  0.15419078344E+02  0.17628258130E+02  0.00000000000E+00 0. -1.
</event>
<event>
 7    1  0.4346085E-013  0.5930196E+02  0.7816164E-02  0.1266605E+00
        -11   -1    0    0    0    0  0.00000000000E+00  0.00000000000E+00  0.45593999997E+02  0.45594000000E+02  0.51100000000E-03 0.  1.
         11   -1    0    0    0    0 -0.00000000000E+00 -0.00000000000E+00 -0.45593999997E+02  0.45594000000E+02  0.51100000000E-03 0. -1.
    9900012    2    1    2    0    0  0.60902737377E+01  0.16984022529E+02  0.26290131820E+02  0.59301960946E+02  0.50000030854E+02 0.  0.
         12    1    1    2    0    0 -0.60902737377E+01 -0.16984022529E+02 -0.26290131820E+02  0.31886039054E+02  0.00000000000E+00 0. -1.
         11    1    3    3    0    0  0.75797077202E+01  0.30772599977E+02  0.17069262759E+02  0.35996730544E+02  0.51100000000E-03 0. -1.
        -11    1    3    3    0    0 -0.39116925922E+01 -0.39639538414E+01 -0.38536971896E+01  0.67723888904E+01  0.51100000000E-03 0.  1.
         12    1    3    3    0    0  0.24222586097E+01 -0.98246236069E+01  0.13074566251E+02  0.16532841511E+02  0.00000000000E+00 0. -1.
</event>
<event>
 7    1  0.4346085E-013  0.5930195E+02  0.7816164E-02  0.1266605E+00
        -11   -1    0    0    0    0  0.00000000000E+00  0.00000000000E+00  0.45593999997E+02  0.45594000000E+02  0.51100000000E-03 0.  1.
         11   -1    0    0    0    0 -0.00000000000E+00 -0.00000000000E+00 -0.45593999997E+02  0.45594000000E+02  0.51100000000E-03 0. -1.
    9900012    2    1    2    0    0 -0.19297929880E+02  0.22150964250E+02  0.12395365097E+02  0.59301946768E+02  0.50000004997E+02 0.  0.
         12    1    1    2    0    0  0.19297929880E+02 -0.22150964250E+02 -0.12395365097E+02  0.31886053232E+02  0.00000000000E+00 0. -1.
         11    1    3    3    0    0  0.12502740337E+02  0.16451360917E+02 -0.47070012019E+00  0.20668511093E+02  0.51100000000E-03 0. -1.
        -11    1    3    3    0    0 -0.29214155380E+02  0.10145688225E+02  0.90309837607E+01  0.32217394867E+02  0.51100000000E-03 0.  1.
        -12    1    3    3    0    0 -0.25865148369E+01 -0.44460848914E+01  0.38350814566E+01  0.64160408074E+01  0.00000000000E+00 0.  1.
</event>
<event>
 7    1  0.4346085E-013  0.5930203E+02  0.7816164E-02  0.1266604E+00
        -11   -1    0    0    0    0  0.00000000000E+00  0.00000000000E+00  0.45593999997E+02  0.45594000000E+02  0.51100000000E-03 0. -1.
         11   -1    0    0    0    0 -0.00000000000E+00 -0.00000000000E+00 -0.45593999997E+02  0.45594000000E+02  0.51100000000E-03 0.  1.
    9900012    2    1    2    0    0 -0.26516606391E+02 -0.17704463071E+02 -0.36964469057E+00  0.59302030291E+02  0.50000157323E+02 0.  0.
         12    1    1    2    0    0  0.26516606391E+02  0.17704463071E+02  0.36964469057E+00  0.31885969709E+02  0.00000000000E+00 0. -1.
         11    1    3    3    0    0  0.23529863772E+01 -0.77215564906E+00  0.64408815590E+00  0.25588315794E+01  0.51100000000E-03 0. -1.
        -11    1    3    3    0    0 -0.25132523783E+02  0.10424240780E+02 -0.78121597383E+01  0.28307920933E+02  0.51100000000E-03 0.  1.
        -12    1    3    3    0    0 -0.37370689851E+01 -0.27356548202E+02  0.67984268919E+01  0.28435277778E+02  0.00000000000E+00 0.  1.
</event>
<event>
 7    1  0.4346085E-013  0.5930177E+02  0.7816164E-02  0.1266605E+00
        -11   -1    0    0    0    0  0.00000000000E+00  0.00000000000E+00  0.45593999997E+02  0.45594000000E+02  0.51100000000E-03 0.  1.
         11   -1    0    0    0    0 -0.00000000000E+00 -0.00000000000E+00 -0.45593999997E+02  0.45594000000E+02  0.51100000000E-03 0. -1.
    9900012    2    1    2    0    0 -0.10401179100E+02  0.16691414536E+02  0.25098678921E+02  0.59301772104E+02  0.49999686451E+02 0.  0.
         12    1    1    2    0    0  0.10401179100E+02 -0.16691414536E+02 -0.25098678921E+02  0.31886227896E+02  0.00000000000E+00 0. -1.
         11    1    3    3    0    0 -0.23286251402E+02  0.11189842011E+01  0.74453507476E+01  0.24473146059E+02  0.51100000000E-03 0. -1.
        -11    1    3    3    0    0  0.15107115677E+02  0.19999653582E+02  0.14985671062E+02  0.29202421560E+02  0.51100000000E-03 0.  1.
         12    1    3    3    0    0 -0.22220433754E+01 -0.44272232478E+01  0.26676571111E+01  0.56262044853E+01  0.00000000000E+00 0. -1.
</event>
<event>
 7    1  0.4346085E-013  0.5930193E+02  0.7816164E-02  0.1266605E+00
        -11   -1    0    0    0    0  0.00000000000E+00  0.00000000000E+00  0.45593999997E+02  0.45594000000E+02  0.51100000000E-03 0.  1.
         11   -1    0    0    0    0 -0.00000000000E+00 -0.00000000000E+00 -0.45593999997E+02  0.45594000000E+02  0.51100000000E-03 0. -1.
    9900012    2    1    2    0    0 -0.93081993613E+01  0.30446897574E+02 -0.17508052785E+01  0.59301929901E+02  0.49999974237E+02 0.  0.
         12    1    1    2    0    0  0.93081993613E+01 -0.30446897574E+02  0.17508052785E+01  0.31886070099E+02  0.00000000000E+00 0. -1.
         11    1    3    3    0    0  0.13651037141E+02  0.15691093901E+02  0.90302109188E+01  0.22673904656E+02  0.51100000000E-03 0. -1.
        -11    1    3    3    0    0 -0.19013573850E+02  0.12190981403E+02  0.23222920084E+01  0.22705264996E+02  0.51100000000E-03 0.  1.
         12    1    3    3    0    0 -0.39456626524E+01  0.25648222698E+01 -0.13103308206E+02  0.13922760250E+02  0.00000000000E+00 0. -1.
</event>
<event>
 7    1  0.4346085E-013  0.5930193E+02  0.7816164E-02  0.1266605E+00
        -11   -1    0    0    0    0  0.00000000000E+00  0.00000000000E+00  0.45593999997E+02  0.45594000000E+02  0.51100000000E-03 0. -1.
         11   -1    0    0    0    0 -0.00000000000E+00 -0.00000000000E+00 -0.45593999997E+02  0.45594000000E+02  0.51100000000E-03 0.  1.
    9900012    2    1    2    0    0 -0.15098774768E+02  0.12510610584E+02 -0.25144241871E+02  0.59301932887E+02  0.49999979682E+02 0.  0.
         12    1    1    2    0    0  0.15098774768E+02 -0.12510610584E+02  0.25144241871E+02  0.31886067113E+02  0.00000000000E+00 0. -1.
         11    1    3    3    0    0 -0.14708600260E+02  0.23315265354E+02 -0.82657086045E+01  0.28779618815E+02  0.51100000000E-03 0. -1.
        -11    1    3    3    0    0  0.10278472149E+02 -0.26168438663E+01 -0.26261693876E+01  0.10926647586E+02  0.51100000000E-03 0.  1.
        -12    1    3    3    0    0 -0.10668646657E+02 -0.81878109040E+01 -0.14252363879E+02  0.19595666486E+02  0.00000000000E+00 0.  1.
</event>
<event>
 7    1  0.4346085E-013  0.5930192E+02  0.7816164E-02  0.1266605E+00
        -11   -1    0    0    0    0  0.00000000000E+00  0.00000000000E+00  0.45593999997E+02  0.45594000000E+02  0.51100000000E-03 0. -1.
         11   -1    0    0    0    0 -0.00000000000E+00 -0.00000000000E+00 -0.45593999997E+02  0.45594000000E+02  0.51100000000E-03 0.  1.
    9900012    2    1    2    0    0  0.87302571343E+01  0.28234858232E+02 -0.11970696523E+02  0.59301918644E+02  0.49999953706E+02 0.  0.
         12    1    1    2    0    0 -0.87302571343E+01 -0.28234858232E+02  0.11970696523E+02  0.31886081356E+02  0.00000000000E+00 0. -1.
         11    1    3    3    0    0  0.18716964296E+02  0.98215499428E+01  0.60435136048E+01  0.21984350177E+02  0.51100000000E-03 0. -1.
        -11    1    3    3    0    0 -0.87842187144E+01  0.21092119160E+02 -0.42455560019E+01  0.23239292913E+02  0.51100000000E-03 0.  1.
        -12    1    3    3    0    0 -0.12024884476E+01 -0.26788108708E+01 -0.13768654125E+02  0.14078275554E+02  0.00000000000E+00 0.  1.
</event>
<event>
 7    1  0.4346085E-013  0.5930196E+02  0.7816164E-02  0.1266605E+00
        -11   -1    0    0    0    0  0.00000000000E+00  0.00000000000E+00  0.45593999997E+02  0.45594000000E+02  0.51100000000E-03 0. -1.
         11   -1    0    0    0    0 -0.00000000000E+00 -0.00000000000E+00 -0.45593999997E+02  0.45594000000E+02  0.51100000000E-03 0.  1.
    9900012    2    1    2    0    0  0.17149370943E+02  0.18842888120E+02 -0.19171957800E+02  0.59301963521E+02  0.50000035551E+02 0.  0.
         12    1    1    2    0    0 -0.17149370943E+02 -0.18842888120E+02  0.19171957800E+02  0.31886036479E+02  0.00000000000E+00 0. -1.
         11    1    3    3    0    0 -0.53815899028E+01  0.33897127526E+00  0.57704530200E+01  0.78977553599E+01  0.51100000000E-03 0. -1.
        -11    1    3    3    0    0  0.22672447810E+02  0.22873169757E+02 -0.30484486373E+02  0.44345526202E+02  0.51100000000E-03 0.  1.
        -12    1    3    3    0    0 -0.14148696365E+00 -0.43692529123E+01  0.55420755527E+01  0.70586819594E+01  0.00000000000E+00 0.  1.
</event>
<event>
 7    1  0.4346085E-013  0.5930195E+02  0.7816164E-02  0.1266605E+00
        -11   -1    0    0    0    0  0.00000000000E+00  0.00000000000E+00  0.45593999997E+02  0.45594000000E+02  0.51100000000E-03 0.  1.
         11   -1    0    0    0    0 -0.00000000000E+00 -0.00000000000E+00 -0.45593999997E+02  0.45594000000E+02  0.51100000000E-03 0. -1.
    9900012    2    1    2    0    0  0.25082166058E+02  0.13855681321E+02  0.13986604954E+02  0.59301951685E+02  0.50000013964E+02 0.  0.
         12    1    1    2    0    0 -0.25082166058E+02 -0.13855681321E+02 -0.13986604954E+02  0.31886048315E+02  0.00000000000E+00 0. -1.
         11    1    3    3    0    0  0.24515546842E+02  0.29021404976E+02  0.53775219213E+01  0.38368890081E+02  0.51100000000E-03 0. -1.
        -11    1    3    3    0    0  0.57412318594E+01 -0.95607108665E+01  0.32691680411E+01  0.11621376660E+02  0.51100000000E-03 0.  1.
         12    1    3    3    0    0 -0.51746126432E+01 -0.56050127887E+01  0.53399149915E+01  0.93116849434E+01  0.00000000000E+00 0. -1.
</event>
<event>
 7    1  0.4346085E-013  0.5930197E+02  0.7816164E-02  0.1266605E+00
        -11   -1    0    0    0    0  0.00000000000E+00  0.00000000000E+00  0.45593999997E+02  0.45594000000E+02  0.51100000000E-03 0. -1.
         11   -1    0    0    0    0 -0.00000000000E+00 -0.00000000000E+00 -0.45593999997E+02  0.45594000000E+02  0.51100000000E-03 0.  1.
    9900012    2    1    2    0    0  0.12948653481E+02  0.29013849508E+02 -0.26921427568E+01  0.59301972921E+02  0.50000052694E+02 0.  0.
         12    1    1    2    0    0 -0.12948653481E+02 -0.29013849508E+02  0.26921427568E+01  0.31886027079E+02  0.00000000000E+00 0. -1.
         11    1    3    3    0    0 -0.97952178563E+01 -0.12280429043E+01  0.10619792972E+01  0.99288560528E+01  0.51100000000E-03 0. -1.
        -11    1    3    3    0    0  0.37322607724E+01  0.27789305676E+02 -0.90894859732E+01  0.29475312313E+02  0.51100000000E-03 0.  1.
         12    1    3    3    0    0  0.19011610565E+02  0.24525867370E+01  0.53353639192E+01  0.19897804555E+02  0.00000000000E+00 0. -1.
</event>
<event>
 7    1  0.4346085E-013  0.5930195E+02  0.7816164E-02  0.1266605E+00
        -11   -1    0    0    0    0  0.00000000000E+00  0.00000000000E+00  0.45593999997E+02  0.45594000000E+02  0.51100000000E-03 0. -1.
         11   -1    0    0    0    0 -0.00000000000E+00 -0.00000000000E+00 -0.45593999997E+02  0.45594000000E+02  0.51100000000E-03 0.  1.
    9900012    2    1    2    0    0  0.13147399398E+02  0.21955375591E+02 -0.19021771401E+02  0.59301946380E+02  0.50000004290E+02 0.  0.
         12    1    1    2    0    0 -0.13147399398E+02 -0.21955375591E+02  0.19021771401E+02  0.31886053620E+02  0.00000000000E+00 0. -1.
         11    1    3    3    0    0  0.54466222254E+01  0.23263747447E+01  0.13042458329E+02  0.14324225377E+02  0.51100000000E-03 0. -1.
        -11    1    3    3    0    0  0.11136013726E+02  0.15344911146E+02 -0.84927882314E+01  0.20775094512E+02  0.51100000000E-03 0.  1.
         12    1    3    3    0    0 -0.34352365540E+01  0.42840897000E+01 -0.23571441498E+02  0.24202626491E+02  0.00000000000E+00 0. -1.
</event>
<event>
 7    1  0.4346085E-013  0.5930158E+02  0.7816164E-02  0.1266606E+00
        -11   -1    0    0    0    0  0.00000000000E+00  0.00000000000E+00  0.45593999997E+02  0.45594000000E+02  0.51100000000E-03 0.  1.
         11   -1    0    0    0    0 -0.00000000000E+00 -0.00000000000E+00 -0.45593999997E+02  0.45594000000E+02  0.51100000000E-03 0. -1.
    9900012    2    1    2    0    0 -0.57754081043E+01  0.24154120790E+02  0.19999170206E+02  0.59301581279E+02  0.49999338428E+02 0.  0.
         12    1    1    2    0    0  0.57754081043E+01 -0.24154120790E+02 -0.19999170206E+02  0.31886418721E+02  0.00000000000E+00 0. -1.
         11    1    3    3    0    0  0.30450998074E+01  0.84522032476E+00 -0.85916196570E+01  0.91543956013E+01  0.51100000000E-03 0. -1.
        -11    1    3    3    0    0 -0.34492742041E+01  0.31148537018E+02  0.19016403790E+02  0.36657229359E+02  0.51100000000E-03 0.  1.
        -12    1    3    3    0    0 -0.53712337075E+01 -0.78396365519E+01  0.95743860729E+01  0.13489956319E+02  0.00000000000E+00 0.  1.
</event>
<event>
 7    1  0.4346085E-013  0.5930195E+02  0.7816164E-02  0.1266605E+00
        -11   -1    0    0    0    0  0.00000000000E+00  0.00000000000E+00  0.45593999997E+02  0.45594000000E+02  0.51100000000E-03 0.  1.
         11   -1    0    0    0    0 -0.00000000000E+00 -0.00000000000E+00 -0.45593999997E+02  0.45594000000E+02  0.51100000000E-03 0. -1.
    9900012    2    1    2    0    0  0.24280713863E+02  0.22292092041E+01  0.20547447005E+02  0.59301952616E+02  0.50000015662E+02 0.  0.
         12    1    1    2    0    0 -0.24280713863E+02 -0.22292092041E+01 -0.20547447005E+02  0.31886047384E+02  0.00000000000E+00 0. -1.
         11    1    3    3    0    0 -0.96548991353E+01  0.82663956563E+01 -0.18023962548E+00  0.12711524733E+02  0.51100000000E-03 0. -1.
        -11    1    3    3    0    0  0.22543786283E+02 -0.15129254830E+02  0.13592425584E+02  0.30362323449E+02  0.51100000000E-03 0.  1.
         12    1    3    3    0    0  0.11391826716E+02  0.90920683781E+01  0.71352610464E+01  0.16228104434E+02  0.00000000000E+00 0. -1.
</event>
<event>
 7    1  0.4346085E-013  0.5930194E+02  0.7816164E-02  0.1266605E+00
        -11   -1    0    0    0    0  0.00000000000E+00  0.00000000000E+00  0.45593999997E+02  0.45594000000E+02  0.51100000000E-03 0. -1.
         11   -1    0    0    0    0 -0.00000000000E+00 -0.00000000000E+00 -0.45593999997E+02  0.45594000000E+02  0.51100000000E-03 0.  1.
    9900012    2    1    2    0    0  0.23892533520E+02 -0.17420026626E+02 -0.11933580441E+02  0.59301939914E+02  0.49999992497E+02 0.  0.
         12    1    1    2    0    0 -0.23892533520E+02  0.17420026626E+02  0.11933580441E+02  0.31886060086E+02  0.00000000000E+00 0. -1.
         11    1    3    3    0    0  0.85099580012E+01 -0.15509541776E+02 -0.13733602221E+02  0.22395917072E+02  0.51100000000E-03 0.  1.
        -11    1    3    3    0    0  0.17926072367E+02  0.10727215789E+02 -0.61296112233E+01  0.21771296771E+02  0.51100000000E-03 0. -1.
        -12    1    3    3    0    0 -0.25434968476E+01 -0.12637700639E+02  0.79296330034E+01  0.15134726070E+02  0.00000000000E+00 0.  1.
</event>
<event>
 7    1  0.4346085E-013  0.5930193E+02  0.7816164E-02  0.1266605E+00
        -11   -1    0    0    0    0  0.00000000000E+00  0.00000000000E+00  0.45593999997E+02  0.45594000000E+02  0.51100000000E-03 0.  1.
         11   -1    0    0    0    0 -0.00000000000E+00 -0.00000000000E+00 -0.45593999997E+02  0.45594000000E+02  0.51100000000E-03 0. -1.
    9900012    2    1    2    0    0  0.11251114579E+02  0.18460910116E+02  0.23437755479E+02  0.59301934651E+02  0.49999982899E+02 0.  0.
         12    1    1    2    0    0 -0.11251114579E+02 -0.18460910116E+02 -0.23437755479E+02  0.31886065349E+02  0.00000000000E+00 0. -1.
         11    1    3    3    0    0 -0.82602963496E+01  0.20469593489E+02  0.48282091397E-01  0.22073492810E+02  0.51100000000E-03 0. -1.
        -11    1    3    3    0    0  0.94857104581E+01  0.81978315686E+01  0.18008949596E+02  0.21943231556E+02  0.51100000000E-03 0.  1.
         12    1    3    3    0    0  0.10025700470E+02 -0.10206514942E+02  0.53805237916E+01  0.15285210285E+02  0.00000000000E+00 0. -1.
</event>
<event>
 7    1  0.4346085E-013  0.5930193E+02  0.7816164E-02  0.1266605E+00
        -11   -1    0    0    0    0  0.00000000000E+00  0.00000000000E+00  0.45593999997E+02  0.45594000000E+02  0.51100000000E-03 0. -1.
         11   -1    0    0    0    0 -0.00000000000E+00 -0.00000000000E+00 -0.45593999997E+02  0.45594000000E+02  0.51100000000E-03 0.  1.
    9900012    2    1    2    0    0  0.15335006047E+02  0.13909514195E+02 -0.24250449963E+02  0.59301932211E+02  0.49999978449E+02 0.  0.
         12    1    1    2    0    0 -0.15335006047E+02 -0.13909514195E+02  0.24250449963E+02  0.31886067789E+02  0.00000000000E+00 0. -1.
         11    1    3    3    0    0  0.10965843211E+02  0.80166701526E+01  0.59288558012E+01  0.14821202685E+02  0.51100000000E-03 0. -1.
        -11    1    3    3    0    0  0.16854338741E+02  0.62500849141E+01 -0.25377928809E+02  0.31099382096E+02  0.51100000000E-03 0.  1.
        -12    1    3    3    0    0 -0.12485175904E+02 -0.35724087197E+00 -0.48013769553E+01  0.13381347431E+02  0.00000000000E+00 0.  1.
</event>
<event>
 7    1  0.4346085E-013  0.5930195E+02  0.7816164E-02  0.1266605E+00
        -11   -1    0    0    0    0  0.00000000000E+00  0.00000000000E+00  0.45593999997E+02  0.45594000000E+02  0.51100000000E-03 0.  1.
         11   -1    0    0    0    0 -0.00000000000E+00 -0.00000000000E+00 -0.45593999997E+02  0.45594000000E+02  0.51100000000E-03 0. -1.
    9900012    2    1    2    0    0 -0.25381519301E+02  0.14764576430E+02  0.12430049844E+02  0.59301946963E+02  0.50000005353E+02 0.  0.
         12    1    1    2    0    0  0.25381519301E+02 -0.14764576430E+02 -0.12430049844E+02  0.31886053037E+02  0.00000000000E+00 0. -1.
         11    1    3    3    0    0 -0.73273037711E+01  0.53042982289E+01 -0.33812738424E+00  0.90520324041E+01  0.51100000000E-03 0. -1.
        -11    1    3    3    0    0  0.89450856775E+01  0.16963489737E+02  0.11144317971E+02  0.22180404981E+02  0.51100000000E-03 0.  1.
        -12    1    3    3    0    0 -0.26999301207E+02 -0.75032115359E+01  0.16238592571E+01  0.28069509577E+02  0.00000000000E+00 0.  1.
</event>
<event>
 7    1  0.4346085E-013  0.5930199E+02  0.7816164E-02  0.1266605E+00
        -11   -1    0    0    0    0  0.00000000000E+00  0.00000000000E+00  0.45593999997E+02  0.45594000000E+02  0.51100000000E-03 0. -1.
         11   -1    0    0    0    0 -0.00000000000E+00 -0.00000000000E+00 -0.45593999997E+02  0.45594000000E+02  0.51100000000E-03 0.  1.
    9900012    2    1    2    0    0 -0.20725914669E+02 -0.23738671989E+02 -0.48610358718E+01  0.59301988076E+02  0.50000080333E+02 0.  0.
         12    1    1    2    0    0  0.20725914669E+02  0.23738671989E+02  0.48610358718E+01  0.31886011924E+02  0.00000000000E+00 0. -1.
         11    1    3    3    0    0 -0.23547406380E+02  0.66505049082E+01 -0.62678588014E+01  0.25258575118E+02  0.51100000000E-03 0. -1.
        -11    1    3    3    0    0 -0.32990337677E+01 -0.12856550510E+02 -0.53099180196E+01  0.14295794642E+02  0.51100000000E-03 0.  1.
         12    1    3    3    0    0  0.61205254785E+01 -0.17532626388E+02  0.67167409491E+01  0.19747618316E+02  0.00000000000E+00 0. -1.
</event>
<event>
 7    1  0.4346085E-013  0.5930197E+02  0.7816164E-02  0.1266605E+00
        -11   -1    0    0    0    0  0.00000000000E+00  0.00000000000E+00  0.45593999997E+02  0.45594000000E+02  0.51100000000E-03 0. -1.
         11   -1    0    0    0    0 -0.00000000000E+00 -0.00000000000E+00 -0.45593999997E+02  0.45594000000E+02  0.51100000000E-03 0.  1.
    9900012    2    1    2    0    0 -0.12889836506E+02  0.28713542069E+02  0.51091836666E+01  0.59301966364E+02  0.50000040736E+02 0.  0.
         12    1    1    2    0    0  0.12889836506E+02 -0.28713542069E+02 -0.51091836666E+01  0.31886033636E+02  0.00000000000E+00 0. -1.
         11    1    3    3    0    0 -0.11799084706E+02 -0.30464296728E+01  0.80968979771E+01  0.14630751545E+02  0.51100000000E-03 0. -1.
        -11    1    3    3    0    0 -0.56597674630E+01  0.11354552948E+02 -0.15710984184E+02  0.20193906622E+02  0.51100000000E-03 0.  1.
        -12    1    3    3    0    0  0.45690156629E+01  0.20405418794E+02  0.12723269874E+02  0.24477308197E+02  0.00000000000E+00 0.  1.
</event>
<event>
 7    1  0.4346085E-013  0.5930194E+02  0.7816164E-02  0.1266605E+00
        -11   -1    0    0    0    0  0.00000000000E+00  0.00000000000E+00  0.45593999997E+02  0.45594000000E+02  0.51100000000E-03 0.  1.
         11   -1    0    0    0    0 -0.00000000000E+00 -0.00000000000E+00 -0.45593999997E+02  0.45594000000E+02  0.51100000000E-03 0. -1.
    9900012    2    1    2    0    0  0.14277331960E+02  0.19699330886E+02  0.20611042715E+02  0.59301938357E+02  0.49999989658E+02 0.  0.
         12    1    1    2    0    0 -0.14277331960E+02 -0.19699330886E+02 -0.20611042715E+02  0.31886061643E+02  0.00000000000E+00 0. -1.
         11    1    3    3    0    0 -0.14596699106E+02  0.14741245018E+01  0.94069613830E+01  0.17427782147E+02  0.51100000000E-03 0. -1.
        -11    1    3    3    0    0  0.17375903115E+02  0.14377198621E+02  0.17185309127E+02  0.28354200735E+02  0.51100000000E-03 0.  1.
         12    1    3    3    0    0  0.11498127951E+02  0.38480077639E+01 -0.59812277945E+01  0.13519955475E+02  0.00000000000E+00 0. -1.
</event>
<event>
 7    1  0.4346085E-013  0.5930186E+02  0.7816164E-02  0.1266605E+00
        -11   -1    0    0    0    0  0.00000000000E+00  0.00000000000E+00  0.45593999997E+02  0.45594000000E+02  0.51100000000E-03 0. -1.
         11   -1    0    0    0    0 -0.00000000000E+00 -0.00000000000E+00 -0.45593999997E+02  0.45594000000E+02  0.51100000000E-03 0.  1.
    9900012    2    1    2    0    0 -0.21479827211E+02 -0.18182270492E+01 -0.23495472083E+02  0.59301856693E+02  0.49999840722E+02 0.  0.
         12    1    1    2    0    0  0.21479827211E+02  0.18182270492E+01  0.23495472083E+02  0.31886143307E+02  0.00000000000E+00 0. -1.
         11    1    3    3    0    0  0.29303713599E+01 -0.12745033358E+02 -0.46128388747E+01  0.13867272058E+02  0.51100000000E-03 0. -1.
        -11    1    3    3    0    0 -0.15569457626E+02  0.20375497355E+02 -0.19894281395E+02  0.32455374527E+02  0.51100000000E-03 0.  1.
        -12    1    3    3    0    0 -0.88407409450E+01 -0.94486910468E+01  0.10116481870E+01  0.12979210107E+02  0.00000000000E+00 0.  1.
</event>
<event>
 7    1  0.4346085E-013  0.5930194E+02  0.7816164E-02  0.1266605E+00
        -11   -1    0    0    0    0  0.00000000000E+00  0.00000000000E+00  0.45593999997E+02  0.45594000000E+02  0.51100000000E-03 0.  1.
         11   -1    0    0    0    0 -0.00000000000E+00 -0.00000000000E+00 -0.45593999997E+02  0.45594000000E+02  0.51100000000E-03 0. -1.
    9900012    2    1    2    0    0 -0.27589632571E+02 -0.26220409452E+01  0.15768886791E+02  0.59301941687E+02  0.49999995731E+02 0.  0.
         12    1    1    2    0    0  0.27589632571E+02  0.26220409452E+01 -0.15768886791E+02  0.31886058313E+02  0.00000000000E+00 0. -1.
         11    1    3    3    0    0 -0.43819202751E+01 -0.26948689234E+01 -0.57363088533E+01  0.77051141025E+01  0.51100000000E-03 0. -1.
        -11    1    3    3    0    0 -0.19188139602E+02  0.18604407602E+01  0.33594009989E+02  0.38732459883E+02  0.51100000000E-03 0.  1.
        -12    1    3    3    0    0 -0.40195726936E+01 -0.17876127821E+01 -0.12088814344E+02  0.12864367701E+02  0.00000000000E+00 0.  1.
</event>
<event>
 7    1  0.4346085E-013  0.5930195E+02  0.7816164E-02  0.1266605E+00
        -11   -1    0    0    0    0  0.00000000000E+00  0.00000000000E+00  0.45593999997E+02  0.45594000000E+02  0.51100000000E-03 0. -1.
         11   -1    0    0    0    0 -0.00000000000E+00 -0.00000000000E+00 -0.45593999997E+02  0.45594000000E+02  0.51100000000E-03 0.  1.
    9900012    2    1    2    0    0  0.28809759955E+02  0.13643661087E+02  0.75396073802E+00  0.59301949549E+02  0.50000010070E+02 0.  0.
         12    1    1    2    0    0 -0.28809759955E+02 -0.13643661087E+02 -0.75396073802E+00  0.31886050451E+02  0.00000000000E+00 0. -1.
         11    1    3    3    0    0  0.96984524989E+01  0.58963364706E+01 -0.24334699712E+01  0.11608123923E+02  0.51100000000E-03 0. -1.
        -11    1    3    3    0    0 -0.59965350658E+01  0.66183589875E+01  0.16862208414E+02  0.19081278295E+02  0.51100000000E-03 0.  1.
        -12    1    3    3    0    0  0.25107842522E+02  0.11289656294E+01 -0.13674777705E+02  0.28612547332E+02  0.00000000000E+00 0.  1.
</event>
<event>
 7    1  0.4346085E-013  0.5930192E+02  0.7816164E-02  0.1266605E+00
        -11   -1    0    0    0    0  0.00000000000E+00  0.00000000000E+00  0.45593999997E+02  0.45594000000E+02  0.51100000000E-03 0. -1.
         11   -1    0    0    0    0 -0.00000000000E+00 -0.00000000000E+00 -0.45593999997E+02  0.45594000000E+02  0.51100000000E-03 0.  1.
    9900012    2    1    2    0    0  0.20788322494E+02  0.54954269398E+00 -0.24171587409E+02  0.59301921734E+02  0.49999959342E+02 0.  0.
         12    1    1    2    0    0 -0.20788322494E+02 -0.54954269398E+00  0.24171587409E+02  0.31886078266E+02  0.00000000000E+00 0. -1.
         11    1    3    3    0    0 -0.77030082577E+01 -0.17373820113E+02 -0.91701881384E+01  0.21101618713E+02  0.51100000000E-03 0. -1.
        -11    1    3    3    0    0  0.19957815857E+02  0.68624706955E+01 -0.79596015638E+01  0.22555779196E+02  0.51100000000E-03 0.  1.
         12    1    3    3    0    0  0.85335148947E+01  0.11060892112E+02 -0.70417977070E+01  0.15644523825E+02  0.00000000000E+00 0. -1.
</event>
<event>
 7    1  0.4346085E-013  0.5930212E+02  0.7816164E-02  0.1266604E+00
        -11   -1    0    0    0    0  0.00000000000E+00  0.00000000000E+00  0.45593999997E+02  0.45594000000E+02  0.51100000000E-03 0. -1.
         11   -1    0    0    0    0 -0.00000000000E+00 -0.00000000000E+00 -0.45593999997E+02  0.45594000000E+02  0.51100000000E-03 0.  1.
    9900012    2    1    2    0    0 -0.27562061168E+01 -0.14202949743E+02 -0.28414592328E+02  0.59302117376E+02  0.50000316144E+02 0.  0.
         12    1    1    2    0    0  0.27562061168E+01  0.14202949743E+02  0.28414592328E+02  0.31885882624E+02  0.00000000000E+00 0. -1.
         11    1    3    3    0    0  0.41589819429E+01 -0.17188208166E+02  0.77841676486E+01  0.19321617349E+02  0.51100000000E-03 0. -1.
        -11    1    3    3    0    0 -0.57753816186E+01 -0.53660087029E+01 -0.23062379005E+02  0.24372574913E+02  0.51100000000E-03 0.  1.
         12    1    3    3    0    0 -0.11398064410E+01  0.83512671257E+01 -0.13136380972E+02  0.15607925114E+02  0.00000000000E+00 0. -1.
</event>
<event>
 7    1  0.4346085E-013  0.5930194E+02  0.7816164E-02  0.1266605E+00
        -11   -1    0    0    0    0  0.00000000000E+00  0.00000000000E+00  0.45593999997E+02  0.45594000000E+02  0.51100000000E-03 0.  1.
         11   -1    0    0    0    0 -0.00000000000E+00 -0.00000000000E+00 -0.45593999997E+02  0.45594000000E+02  0.51100000000E-03 0. -1.
    9900012    2    1    2    0    0 -0.19975308031E+02 -0.22855879710E+02 -0.97630285529E+01  0.59301938864E+02  0.49999990582E+02 0.  0.
         12    1    1    2    0    0  0.19975308031E+02  0.22855879710E+02  0.97630285529E+01  0.31886061136E+02  0.00000000000E+00 0. -1.
         11    1    3    3    0    0 -0.48540805110E+01 -0.12867482637E+02  0.83251080819E+01  0.16076119926E+02  0.51100000000E-03 0.  1.
        -11    1    3    3    0    0 -0.21852024902E+02  0.49640290597E+01 -0.71777283057E+01  0.23530243533E+02  0.51100000000E-03 0. -1.
        -12    1    3    3    0    0  0.67307973818E+01 -0.14952426132E+02 -0.10910408329E+02  0.19695575405E+02  0.00000000000E+00 0.  1.
</event>
<event>
 7    1  0.4346085E-013  0.5930192E+02  0.7816164E-02  0.1266605E+00
        -11   -1    0    0    0    0  0.00000000000E+00  0.00000000000E+00  0.45593999997E+02  0.45594000000E+02  0.51100000000E-03 0. -1.
         11   -1    0    0    0    0 -0.00000000000E+00 -0.00000000000E+00 -0.45593999997E+02  0.45594000000E+02  0.51100000000E-03 0.  1.
    9900012    2    1    2    0    0 -0.86809032448E+01 -0.74591002762E+01 -0.29761150962E+02  0.59301915815E+02  0.49999948547E+02 0.  0.
         12    1    1    2    0    0  0.86809032448E+01  0.74591002762E+01  0.29761150962E+02  0.31886084185E+02  0.00000000000E+00 0. -1.
         11    1    3    3    0    0 -0.29071516961E+01 -0.39293401831E+01  0.11273794155E+01  0.50161967531E+01  0.51100000000E-03 0. -1.
        -11    1    3    3    0    0  0.91441079913E+01  0.16732650603E+02 -0.97136097858E+01  0.21399778562E+02  0.51100000000E-03 0.  1.
        -12    1    3    3    0    0 -0.14917859540E+02 -0.20262410697E+02 -0.21174920592E+02  0.32885940500E+02  0.00000000000E+00 0.  1.
</event>
<event>
 7    1  0.4346085E-013  0.5930195E+02  0.7816164E-02  0.1266605E+00
        -11   -1    0    0    0    0  0.00000000000E+00  0.00000000000E+00  0.45593999997E+02  0.45594000000E+02  0.51100000000E-03 0. -1.
         11   -1    0    0    0    0 -0.00000000000E+00 -0.00000000000E+00 -0.45593999997E+02  0.45594000000E+02  0.51100000000E-03 0.  1.
    9900012    2    1    2    0    0  0.17067442514E+02 -0.23305618233E+02 -0.13500773465E+02  0.59301947887E+02  0.50000007039E+02 0.  0.
         12    1    1    2    0    0 -0.17067442514E+02  0.23305618233E+02  0.13500773465E+02  0.31886052113E+02  0.00000000000E+00 0. -1.
         11    1    3    3    0    0  0.32316098942E+01 -0.31031924953E+01 -0.25247684858E+02  0.25642127391E+02  0.51100000000E-03 0.  1.
        -11    1    3    3    0    0  0.16750131091E+02 -0.12432838563E+02  0.13924668771E+02  0.25080645266E+02  0.51100000000E-03 0. -1.
         12    1    3    3    0    0 -0.29142984714E+01 -0.77695871748E+01 -0.21777573779E+01  0.85791752310E+01  0.00000000000E+00 0. -1.
</event>
<event>
 7    1  0.4346085E-013  0.5930180E+02  0.7816164E-02  0.1266605E+00
        -11   -1    0    0    0    0  0.00000000000E+00  0.00000000000E+00  0.45593999997E+02  0.45594000000E+02  0.51100000000E-03 0.  1.
         11   -1    0    0    0    0 -0.00000000000E+00 -0.00000000000E+00 -0.45593999997E+02  0.45594000000E+02  0.51100000000E-03 0. -1.
    9900012    2    1    2    0    0 -0.13665022699E+02 -0.98463719608E+01  0.27074824860E+02  0.59301795658E+02  0.49999729408E+02 0.  0.
         12    1    1    2    0    0  0.13665022699E+02  0.98463719608E+01 -0.27074824860E+02  0.31886204342E+02  0.00000000000E+00 0. -1.
         11    1    3    3    0    0  0.57520081523E+01 -0.23958276228E+02  0.85415142346E+01  0.26077616135E+02  0.51100000000E-03 0. -1.
        -11    1    3    3    0    0 -0.14627525800E+02  0.12755798612E+02  0.20163302328E+02  0.27986312195E+02  0.51100000000E-03 0.  1.
         12    1    3    3    0    0 -0.47895050518E+01  0.13561056555E+01 -0.16299917029E+01  0.52378673276E+01  0.00000000000E+00 0. -1.
</event>
<event>
 7    1  0.4346085E-013  0.5930195E+02  0.7816164E-02  0.1266605E+00
        -11   -1    0    0    0    0  0.00000000000E+00  0.00000000000E+00  0.45593999997E+02  0.45594000000E+02  0.51100000000E-03 0. -1.
         11   -1    0    0    0    0 -0.00000000000E+00 -0.00000000000E+00 -0.45593999997E+02  0.45594000000E+02  0.51100000000E-03 0.  1.
    9900012    2    1    2    0    0  0.29383557753E+02  0.10647574016E+02 -0.63210905004E+01  0.59301945309E+02  0.50000002337E+02 0.  0.
         12    1    1    2    0    0 -0.29383557753E+02 -0.10647574016E+02  0.63210905004E+01  0.31886054691E+02  0.00000000000E+00 0. -1.
         11    1    3    3    0    0 -0.53244004015E+01  0.89080812512E+01  0.10462130594E+02  0.14736326816E+02  0.51100000000E-03 0. -1.
        -11    1    3    3    0    0  0.26229647062E+02 -0.18621694904E+01 -0.21727660128E+02  0.34110896721E+02  0.51100000000E-03 0.  1.
        -12    1    3    3    0    0  0.84783110921E+01  0.36016622551E+01  0.49444390335E+01  0.10454721772E+02  0.00000000000E+00 0.  1.
</event>
<event>
 7    1  0.4346085E-013  0.5930191E+02  0.7816164E-02  0.1266605E+00
        -11   -1    0    0    0    0  0.00000000000E+00  0.00000000000E+00  0.45593999997E+02  0.45594000000E+02  0.51100000000E-03 0.  1.
         11   -1    0    0    0    0 -0.00000000000E+00 -0.00000000000E+00 -0.45593999997E+02  0.45594000000E+02  0.51100000000E-03 0. -1.
    9900012    2    1    2    0    0 -0.24234655329E+02 -0.55407083906E+01  0.19967598398E+02  0.59301906570E+02  0.49999931687E+02 0.  0.
         12    1    1    2    0    0  0.24234655329E+02  0.55407083906E+01 -0.19967598398E+02  0.31886093430E+02  0.00000000000E+00 0. -1.
         11    1    3    3    0    0  0.14131596591E+02 -0.45363280323E+01  0.50006929953E+01  0.15661648218E+02  0.51100000000E-03 0. -1.
        -11    1    3    3    0    0 -0.37051720514E+02 -0.34797038601E+01  0.11043817265E+02  0.38818864384E+02  0.51100000000E-03 0.  1.
         12    1    3    3    0    0 -0.13145314059E+01  0.24753235019E+01  0.39230881381E+01  0.48213939680E+01  0.00000000000E+00 0. -1.
</event>
<event>
 7    1  0.4346085E-013  0.5930198E+02  0.7816164E-02  0.1266605E+00
        -11   -1    0    0    0    0  0.00000000000E+00  0.00000000000E+00  0.45593999997E+02  0.45594000000E+02  0.51100000000E-03 0.  1.
         11   -1    0    0    0    0 -0.00000000000E+00 -0.00000000000E+00 -0.45593999997E+02  0.45594000000E+02  0.51100000000E-03 0. -1.
    9900012    2    1    2    0    0  0.27953685090E+02  0.12343958147E+02  0.91069590808E+01  0.59301976157E+02  0.50000058595E+02 0.  0.
         12    1    1    2    0    0 -0.27953685090E+02 -0.12343958147E+02 -0.91069590808E+01  0.31886023843E+02  0.00000000000E+00 0. -1.
         11    1    3    3    0    0  0.60136699364E+01  0.44287206952E+00  0.13283770020E+02  0.14588314090E+02  0.51100000000E-03 0. -1.
        -11    1    3    3    0    0  0.10550988503E+02  0.23594992512E+02 -0.95105429824E+01  0.27540832560E+02  0.51100000000E-03 0.  1.
        -12    1    3    3    0    0  0.11389026651E+02 -0.11693906435E+02  0.53337320433E+01  0.17172829506E+02  0.00000000000E+00 0.  1.
</event>
<event>
 7    1  0.4346085E-013  0.5930202E+02  0.7816164E-02  0.1266604E+00
        -11   -1    0    0    0    0  0.00000000000E+00  0.00000000000E+00  0.45593999997E+02  0.45594000000E+02  0.51100000000E-03 0.  1.
         11   -1    0    0    0    0 -0.00000000000E+00 -0.00000000000E+00 -0.45593999997E+02  0.45594000000E+02  0.51100000000E-03 0. -1.
    9900012    2    1    2    0    0 -0.60925168807E+01  0.26858070157E+02  0.16069876761E+02  0.59302021364E+02  0.50000141042E+02 0.  0.
         12    1    1    2    0    0  0.60925168807E+01 -0.26858070157E+02 -0.16069876761E+02  0.31885978636E+02  0.00000000000E+00 0. -1.
         11    1    3    3    0    0 -0.17545262748E+01 -0.16142163970E+01 -0.91920405685E+01  0.94961922421E+01  0.51100000000E-03 0. -1.
        -11    1    3    3    0    0 -0.71853281131E+01  0.35014312524E+02  0.20190224959E+02  0.41052115728E+02  0.51100000000E-03 0.  1.
        -12    1    3    3    0    0  0.28473375072E+01 -0.65420259702E+01  0.50716923705E+01  0.87537133935E+01  0.00000000000E+00 0.  1.
</event>
<event>
 7    1  0.4346085E-013  0.5930197E+02  0.7816164E-02  0.1266605E+00
        -11   -1    0    0    0    0  0.00000000000E+00  0.00000000000E+00  0.45593999997E+02  0.45594000000E+02  0.51100000000E-03 0. -1.
         11   -1    0    0    0    0 -0.00000000000E+00 -0.00000000000E+00 -0.45593999997E+02  0.45594000000E+02  0.51100000000E-03 0.  1.
    9900012    2    1    2    0    0  0.22939615440E+02  0.14422945018E+02 -0.16806895196E+02  0.59301968173E+02  0.50000044036E+02 0.  0.
         12    1    1    2    0    0 -0.22939615440E+02 -0.14422945018E+02  0.16806895196E+02  0.31886031827E+02  0.00000000000E+00 0. -1.
         11    1    3    3    0    0  0.13343514684E+02  0.65133696353E+01  0.21359070697E+01  0.15001182200E+02  0.51100000000E-03 0. -1.
        -11    1    3    3    0    0 -0.50933351848E+01  0.18841466728E+02 -0.17007145633E+02  0.25887949602E+02  0.51100000000E-03 0.  1.
        -12    1    3    3    0    0  0.14689435941E+02 -0.10931891345E+02 -0.19356566331E+01  0.18412836372E+02  0.00000000000E+00 0.  1.
</event>
<event>
 7    1  0.4346085E-013  0.5930196E+02  0.7816164E-02  0.1266605E+00
        -11   -1    0    0    0    0  0.00000000000E+00  0.00000000000E+00  0.45593999997E+02  0.45594000000E+02  0.51100000000E-03 0. -1.
         11   -1    0    0    0    0 -0.00000000000E+00 -0.00000000000E+00 -0.45593999997E+02  0.45594000000E+02  0.51100000000E-03 0.  1.
    9900012    2    1    2    0    0 -0.22853427748E+02 -0.11830595038E+02 -0.18827574694E+02  0.59301957479E+02  0.50000024532E+02 0.  0.
         12    1    1    2    0    0  0.22853427748E+02  0.11830595038E+02  0.18827574694E+02  0.31886042521E+02  0.00000000000E+00 0. -1.
         11    1    3    3    0    0 -0.79861662784E+01  0.74953461039E+01  0.92377474610E+01  0.14328120723E+02  0.51100000000E-03 0. -1.
        -11    1    3    3    0    0 -0.17191907262E+02 -0.10592897229E+02 -0.29575124628E+02  0.35811438732E+02  0.51100000000E-03 0.  1.
         12    1    3    3    0    0  0.23246457924E+01 -0.87330439127E+01  0.15098024727E+01  0.91623980239E+01  0.00000000000E+00 0. -1.
</event>
<event>
 7    1  0.4346085E-013  0.5930196E+02  0.7816164E-02  0.1266605E+00
        -11   -1    0    0    0    0  0.00000000000E+00  0.00000000000E+00  0.45593999997E+02  0.45594000000E+02  0.51100000000E-03 0.  1.
         11   -1    0    0    0    0 -0.00000000000E+00 -0.00000000000E+00 -0.45593999997E+02  0.45594000000E+02  0.51100000000E-03 0. -1.
    9900012    2    1    2    0    0  0.29278391786E+02 -0.12613717913E+02 -0.62425323700E+00  0.59301956073E+02  0.50000021969E+02 0.  0.
         12    1    1    2    0    0 -0.29278391786E+02  0.12613717913E+02  0.62425323700E+00  0.31886043927E+02  0.00000000000E+00 0. -1.
         11    1    3    3    0    0 -0.85640188697E+01  0.13324980828E+01 -0.92730280972E+01  0.12692794046E+02  0.51100000000E-03 0. -1.
        -11    1    3    3    0    0  0.26106566596E+02 -0.74376100139E+01  0.15793913032E+02  0.31405708896E+02  0.51100000000E-03 0.  1.
         12    1    3    3    0    0  0.11735844060E+02 -0.65086059821E+01 -0.71451381715E+01  0.15203453132E+02  0.00000000000E+00 0. -1.
</event>
<event>
 7    1  0.4346085E-013  0.5930193E+02  0.7816164E-02  0.1266605E+00
        -11   -1    0    0    0    0  0.00000000000E+00  0.00000000000E+00  0.45593999997E+02  0.45594000000E+02  0.51100000000E-03 0.  1.
         11   -1    0    0    0    0 -0.00000000000E+00 -0.00000000000E+00 -0.45593999997E+02  0.45594000000E+02  0.51100000000E-03 0. -1.
    9900012    2    1    2    0    0  0.72842460185E+00  0.14831076461E+02  0.28217545843E+02  0.59301932121E+02  0.49999978285E+02 0.  0.
         12    1    1    2    0    0 -0.72842460185E+00 -0.14831076461E+02 -0.28217545843E+02  0.31886067879E+02  0.00000000000E+00 0. -1.
         11    1    3    3    0    0  0.98599229951E+01  0.21293810247E+02 -0.23047190883E+01  0.23578722752E+02  0.51100000000E-03 0. -1.
        -11    1    3    3    0    0 -0.96757153618E+01 -0.10378635592E+02  0.20338931337E+02  0.24799348232E+02  0.51100000000E-03 0.  1.
        -12    1    3    3    0    0  0.54421696856E+00  0.39159018061E+01  0.10183333594E+02  0.10923861137E+02  0.00000000000E+00 0.  1.
</event>
<event>
 7    1  0.4346085E-013  0.5930199E+02  0.7816164E-02  0.1266605E+00
        -11   -1    0    0    0    0  0.00000000000E+00  0.00000000000E+00  0.45593999997E+02  0.45594000000E+02  0.51100000000E-03 0.  1.
         11   -1    0    0    0    0 -0.00000000000E+00 -0.00000000000E+00 -0.45593999997E+02  0.45594000000E+02  0.51100000000E-03 0. -1.
    9900012    2    1    2    0    0 -0.28877277565E+02 -0.47397300066E+01 -0.12663153709E+02  0.59301989557E+02  0.50000083035E+02 0.  0.
         12    1    1    2    0    0  0.28877277565E+02  0.47397300066E+01  0.12663153709E+02  0.31886010443E+02  0.00000000000E+00 0. -1.
         11    1    3    3    0    0 -0.15936722466E+02 -0.26469163799E+02 -0.90253396139E+01  0.32187769580E+02  0.51100000000E-03 0. -1.
        -11    1    3    3    0    0 -0.13181053123E+02  0.15380715063E+02 -0.11416435437E+01  0.20288171616E+02  0.51100000000E-03 0.  1.
         12    1    3    3    0    0  0.24049802426E+00  0.63487187292E+01 -0.24961705514E+01  0.68260483608E+01  0.00000000000E+00 0. -1.
</event>
<event>
 7    1  0.4346085E-013  0.5930195E+02  0.7816164E-02  0.1266605E+00
        -11   -1    0    0    0    0  0.00000000000E+00  0.00000000000E+00  0.45593999997E+02  0.45594000000E+02  0.51100000000E-03 0. -1.
         11   -1    0    0    0    0 -0.00000000000E+00 -0.00000000000E+00 -0.45593999997E+02  0.45594000000E+02  0.51100000000E-03 0.  1.
    9900012    2    1    2    0    0  0.81875403588E+01 -0.26851146474E+01 -0.30699751464E+02  0.59301946658E+02  0.50000004796E+02 0.  0.
         12    1    1    2    0    0 -0.81875403588E+01  0.26851146474E+01  0.30699751464E+02  0.31886053342E+02  0.00000000000E+00 0. -1.
         11    1    3    3    0    0  0.26385775610E+01 -0.22935068393E+02 -0.27086562277E+02  0.35590185585E+02  0.51100000000E-03 0.  1.
        -11    1    3    3    0    0 -0.40842031902E+00  0.16120625485E+02 -0.17013371718E+01  0.16215298999E+02  0.51100000000E-03 0. -1.
        -12    1    3    3    0    0  0.59573831168E+01  0.41293282607E+01 -0.19118520152E+01  0.74964620730E+01  0.00000000000E+00 0.  1.
</event>
<event>
 7    1  0.5405539E-013  0.5930194E+02  0.7816164E-02  0.1266605E+00
        -11   -1    0    0    0    0  0.00000000000E+00  0.00000000000E+00  0.45593999997E+02  0.45594000000E+02  0.51100000000E-03 0. -1.
         11   -1    0    0    0    0 -0.00000000000E+00 -0.00000000000E+00 -0.45593999997E+02  0.45594000000E+02  0.51100000000E-03 0.  1.
    9900012    2    1    2    0    0 -0.26036013209E+02  0.84853153935E+01 -0.16335430597E+02  0.59301939504E+02  0.49999991750E+02 0.  0.
         12    1    1    2    0    0  0.26036013209E+02 -0.84853153935E+01  0.16335430597E+02  0.31886060496E+02  0.00000000000E+00 0. -1.
         11    1    3    3    0    0 -0.96069854701E+01  0.87278378789E+01  0.59663891952E+01  0.14285206479E+02  0.51100000000E-03 0. -1.
        -11    1    3    3    0    0 -0.24305152632E+02 -0.89571309505E+01 -0.20707170000E+02  0.33162592314E+02  0.51100000000E-03 0.  1.
        -12    1    3    3    0    0  0.78761248930E+01  0.87146084651E+01 -0.15946497921E+01  0.11854140711E+02  0.00000000000E+00 0.  1.
</event>
<event>
 7    1  0.4346085E-013  0.5930196E+02  0.7816164E-02  0.1266605E+00
        -11   -1    0    0    0    0  0.00000000000E+00  0.00000000000E+00  0.45593999997E+02  0.45594000000E+02  0.51100000000E-03 0.  1.
         11   -1    0    0    0    0 -0.00000000000E+00 -0.00000000000E+00 -0.45593999997E+02  0.45594000000E+02  0.51100000000E-03 0. -1.
    9900012    2    1    2    0    0 -0.24274440581E+02  0.16808476369E+02  0.12039359305E+02  0.59301960486E+02  0.50000030017E+02 0.  0.
         12    1    1    2    0    0  0.24274440581E+02 -0.16808476369E+02 -0.12039359305E+02  0.31886039514E+02  0.00000000000E+00 0. -1.
         11    1    3    3    0    0 -0.11855982976E+02  0.16322182187E+02 -0.16278317553E+02  0.25922221862E+02  0.51100000000E-03 0. -1.
        -11    1    3    3    0    0 -0.74701544020E+01  0.39554367414E+01  0.62849207440E+01  0.10533229117E+02  0.51100000000E-03 0.  1.
         12    1    3    3    0    0 -0.49483032033E+01 -0.34691425597E+01  0.22032756114E+02  0.22846509507E+02  0.00000000000E+00 0. -1.
</event>
<event>
 7    1  0.4346085E-013  0.5930195E+02  0.7816164E-02  0.1266605E+00
        -11   -1    0    0    0    0  0.00000000000E+00  0.00000000000E+00  0.45593999997E+02  0.45594000000E+02  0.51100000000E-03 0. -1.
         11   -1    0    0    0    0 -0.00000000000E+00 -0.00000000000E+00 -0.45593999997E+02  0.45594000000E+02  0.51100000000E-03 0.  1.
    9900012    2    1    2    0    0 -0.30742192628E+02  0.82091543438E+01 -0.20609726512E+01  0.59301949274E+02  0.50000009568E+02 0.  0.
         12    1    1    2    0    0  0.30742192628E+02 -0.82091543438E+01  0.20609726512E+01  0.31886050726E+02  0.00000000000E+00 0. -1.
         11    1    3    3    0    0 -0.30945782080E+02 -0.80681354379E+01  0.38044564977E+01  0.32205746808E+02  0.51100000000E-03 0. -1.
        -11    1    3    3    0    0  0.83064210425E+01  0.10470063122E+02 -0.95950079286E+01  0.16452447530E+02  0.51100000000E-03 0.  1.
        -12    1    3    3    0    0 -0.81028315907E+01  0.58072266593E+01  0.37295787797E+01  0.10643754936E+02  0.00000000000E+00 0.  1.
</event>
<event>
 7    1  0.4685471E-013  0.5930195E+02  0.7816164E-02  0.1266605E+00
        -11   -1    0    0    0    0  0.00000000000E+00  0.00000000000E+00  0.45593999997E+02  0.45594000000E+02  0.51100000000E-03 0. -1.
         11   -1    0    0    0    0 -0.00000000000E+00 -0.00000000000E+00 -0.45593999997E+02  0.45594000000E+02  0.51100000000E-03 0.  1.
    9900012    2    1    2    0    0  0.22040500740E+02  0.57206309292E-01 -0.23041984739E+02  0.59301952798E+02  0.50000015995E+02 0.  0.
         12    1    1    2    0    0 -0.22040500740E+02 -0.57206309292E-01  0.23041984739E+02  0.31886047202E+02  0.00000000000E+00 0. -1.
         11    1    3    3    0    0 -0.71572626159E+01  0.11291250354E+02  0.62808464936E+00  0.13383319218E+02  0.51100000000E-03 0. -1.
        -11    1    3    3    0    0  0.12392495589E+02 -0.12836660473E+02 -0.22885423844E+02  0.29018897701E+02  0.51100000000E-03 0.  1.
        -12    1    3    3    0    0  0.16805267767E+02  0.16026164287E+01 -0.78464554454E+00  0.16899735879E+02  0.00000000000E+00 0.  1.
</event>
<event>
 7    1  0.4346085E-013  0.5930206E+02  0.7816164E-02  0.1266604E+00
        -11   -1    0    0    0    0  0.00000000000E+00  0.00000000000E+00  0.45593999997E+02  0.45594000000E+02  0.51100000000E-03 0. -1.
         11   -1    0    0    0    0 -0.00000000000E+00 -0.00000000000E+00 -0.45593999997E+02  0.45594000000E+02  0.51100000000E-03 0.  1.
    9900012    2    1    2    0    0 -0.20023360081E+02  0.20801176636E+02 -0.13531037573E+02  0.59302064602E+02  0.50000219899E+02 0.  0.
         12    1    1    2    0    0  0.20023360081E+02 -0.20801176636E+02  0.13531037573E+02  0.31885935398E+02  0.00000000000E+00 0. -1.
         11    1    3    3    0    0  0.62320497506E+01  0.15703375170E+02  0.80931912136E+01  0.18733237310E+02  0.51100000000E-03 0. -1.
        -11    1    3    3    0    0 -0.23159273550E+02  0.11279621839E+02 -0.11267751142E+02  0.28116614950E+02  0.51100000000E-03 0.  1.
         12    1    3    3    0    0 -0.30961362822E+01 -0.61818203739E+01 -0.10356477645E+02  0.12452212342E+02  0.00000000000E+00 0. -1.
</event>
<event>
 7    1  0.4346085E-013  0.5930194E+02  0.7816164E-02  0.1266605E+00
        -11   -1    0    0    0    0  0.00000000000E+00  0.00000000000E+00  0.45593999997E+02  0.45594000000E+02  0.51100000000E-03 0.  1.
         11   -1    0    0    0    0 -0.00000000000E+00 -0.00000000000E+00 -0.45593999997E+02  0.45594000000E+02  0.51100000000E-03 0. -1.
    9900012    2    1    2    0    0  0.79968362556E+01 -0.34933093544E+01  0.30668686480E+02  0.59301938300E+02  0.49999989553E+02 0.  0.
         12    1    1    2    0    0 -0.79968362556E+01  0.34933093544E+01 -0.30668686480E+02  0.31886061700E+02  0.00000000000E+00 0. -1.
         11    1    3    3    0    0 -0.80704004603E+01  0.11854930007E+02  0.13443712119E+02  0.19657164720E+02  0.51100000000E-03 0. -1.
        -11    1    3    3    0    0  0.97300357287E+01 -0.22115201555E+02  0.56467313224E+01  0.24812120224E+02  0.51100000000E-03 0.  1.
        -12    1    3    3    0    0  0.63372009872E+01  0.67669621940E+01  0.11578243039E+02  0.14832653355E+02  0.00000000000E+00 0.  1.
</event>
<event>
 7    1  0.4346085E-013  0.5930185E+02  0.7816164E-02  0.1266605E+00
        -11   -1    0    0    0    0  0.00000000000E+00  0.00000000000E+00  0.45593999997E+02  0.45594000000E+02  0.51100000000E-03 0. -1.
         11   -1    0    0    0    0 -0.00000000000E+00 -0.00000000000E+00 -0.45593999997E+02  0.45594000000E+02  0.51100000000E-03 0.  1.
    9900012    2    1    2    0    0  0.22106177545E+02  0.16818989982E+01 -0.22917561242E+02  0.59301851233E+02  0.49999830765E+02 0.  0.
         12    1    1    2    0    0 -0.22106177545E+02 -0.16818989982E+01  0.22917561242E+02  0.31886148767E+02  0.00000000000E+00 0. -1.
         11    1    3    3    0    0  0.75060601584E+01 -0.99670504273E+01  0.89362296841E+01  0.15347287531E+02  0.51100000000E-03 0. -1.
        -11    1    3    3    0    0  0.10488931312E+01  0.34452580328E+01 -0.27209524270E+02  0.27446824789E+02  0.51100000000E-03 0.  1.
        -12    1    3    3    0    0  0.13551224255E+02  0.82036913926E+01 -0.46442666561E+01  0.16507738914E+02  0.00000000000E+00 0.  1.
</event>
<event>
 7    1  0.4346085E-013  0.5930201E+02  0.7816164E-02  0.1266605E+00
        -11   -1    0    0    0    0  0.00000000000E+00  0.00000000000E+00  0.45593999997E+02  0.45594000000E+02  0.51100000000E-03 0. -1.
         11   -1    0    0    0    0 -0.00000000000E+00 -0.00000000000E+00 -0.45593999997E+02  0.45594000000E+02  0.51100000000E-03 0.  1.
    9900012    2    1    2    0    0  0.12745590297E+02  0.11683614622E+02 -0.26791027230E+02  0.59302014635E+02  0.50000128771E+02 0.  0.
         12    1    1    2    0    0 -0.12745590297E+02 -0.11683614622E+02  0.26791027230E+02  0.31885985365E+02  0.00000000000E+00 0. -1.
         11    1    3    3    0    0  0.22405799478E+02 -0.83171928670E+01 -0.15714814503E+02  0.28603337962E+02  0.51100000000E-03 0. -1.
        -11    1    3    3    0    0  0.25408078489E+01  0.13531035613E+02 -0.96548340332E+01  0.16815482442E+02  0.51100000000E-03 0.  1.
         12    1    3    3    0    0 -0.12201017030E+02  0.64697718761E+01 -0.14213786932E+01  0.13883194232E+02  0.00000000000E+00 0. -1.
</event>
<event>
 7    1  0.4346085E-013  0.5930195E+02  0.7816164E-02  0.1266605E+00
        -11   -1    0    0    0    0  0.00000000000E+00  0.00000000000E+00  0.45593999997E+02  0.45594000000E+02  0.51100000000E-03 0.  1.
         11   -1    0    0    0    0 -0.00000000000E+00 -0.00000000000E+00 -0.45593999997E+02  0.45594000000E+02  0.51100000000E-03 0. -1.
    9900012    2    1    2    0    0  0.16505260671E+02 -0.20745894344E+02  0.17717347119E+02  0.59301950529E+02  0.50000011856E+02 0.  0.
         12    1    1    2    0    0 -0.16505260671E+02  0.20745894344E+02 -0.17717347119E+02  0.31886049471E+02  0.00000000000E+00 0. -1.
         11    1    3    3    0    0  0.21753022292E+02 -0.64490677291E+01  0.24920086736E+02  0.33701560447E+02  0.51100000000E-03 0. -1.
        -11    1    3    3    0    0 -0.63115084786E+01 -0.13416208196E+02  0.31486417281E+01  0.15157299451E+02  0.51100000000E-03 0.  1.
         12    1    3    3    0    0  0.10637468577E+01 -0.88061841818E+00 -0.10351381345E+02  0.10443090631E+02  0.00000000000E+00 0. -1.
</event>
<event>
 7    1  0.4346085E-013  0.5930196E+02  0.7816164E-02  0.1266605E+00
        -11   -1    0    0    0    0  0.00000000000E+00  0.00000000000E+00  0.45593999997E+02  0.45594000000E+02  0.51100000000E-03 0.  1.
         11   -1    0    0    0    0 -0.00000000000E+00 -0.00000000000E+00 -0.45593999997E+02  0.45594000000E+02  0.51100000000E-03 0. -1.
    9900012    2    1    2    0    0  0.15580939427E+02  0.22059855968E+02  0.16950410212E+02  0.59301963478E+02  0.50000035472E+02 0.  0.
         12    1    1    2    0    0 -0.15580939427E+02 -0.22059855968E+02 -0.16950410212E+02  0.31886036522E+02  0.00000000000E+00 0. -1.
         11    1    3    3    0    0 -0.16446204042E+02  0.87621797599E+01  0.98433443537E+00  0.18660716387E+02  0.51100000000E-03 0. -1.
        -11    1    3    3    0    0  0.14650349306E+02  0.84614383964E+01  0.14946995752E+02  0.22575237691E+02  0.51100000000E-03 0.  1.
         12    1    3    3    0    0  0.17376794162E+02  0.48362378114E+01  0.10190800248E+01  0.18066009400E+02  0.00000000000E+00 0. -1.
</event>
<event>
 7    1  0.4346085E-013  0.5930194E+02  0.7816164E-02  0.1266605E+00
        -11   -1    0    0    0    0  0.00000000000E+00  0.00000000000E+00  0.45593999997E+02  0.45594000000E+02  0.51100000000E-03 0.  1.
         11   -1    0    0    0    0 -0.00000000000E+00 -0.00000000000E+00 -0.45593999997E+02  0.45594000000E+02  0.51100000000E-03 0. -1.
    9900012    2    1    2    0    0 -0.29352508165E+02 -0.77518184716E+01  0.97498859988E+01  0.59301941884E+02  0.49999996090E+02 0.  0.
         12    1    1    2    0    0  0.29352508165E+02  0.77518184716E+01 -0.97498859988E+01  0.31886058116E+02  0.00000000000E+00 0. -1.
         11    1    3    3    0    0 -0.10005772001E+02  0.53945680878E+01 -0.78158197779E+00  0.11394196279E+02  0.51100000000E-03 0. -1.
        -11    1    3    3    0    0 -0.14172299536E+02 -0.17313657110E+02 -0.11315388498E+02  0.25072989725E+02  0.51100000000E-03 0.  1.
        -12    1    3    3    0    0 -0.51744366282E+01  0.41672705505E+01  0.21846856474E+02  0.22834755879E+02  0.00000000000E+00 0.  1.
</event>
<event>
 7    1  0.4346085E-013  0.5930196E+02  0.7816164E-02  0.1266605E+00
        -11   -1    0    0    0    0  0.00000000000E+00  0.00000000000E+00  0.45593999997E+02  0.45594000000E+02  0.51100000000E-03 0.  1.
         11   -1    0    0    0    0 -0.00000000000E+00 -0.00000000000E+00 -0.45593999997E+02  0.45594000000E+02  0.51100000000E-03 0. -1.
    9900012    2    1    2    0    0 -0.22679930958E+02 -0.21860942382E+02 -0.49436090263E+01  0.59301963240E+02  0.50000035038E+02 0.  0.
         12    1    1    2    0    0  0.22679930958E+02  0.21860942382E+02  0.49436090263E+01  0.31886036760E+02  0.00000000000E+00 0. -1.
         11    1    3    3    0    0 -0.16658512515E+02 -0.27916483505E+02 -0.21409884912E+02  0.38925817431E+02  0.51100000000E-03 0. -1.
        -11    1    3    3    0    0 -0.75864152326E+01  0.62374487691E+01  0.11283440363E+02  0.14959127311E+02  0.51100000000E-03 0.  1.
         12    1    3    3    0    0  0.15649967897E+01 -0.18190764663E+00  0.51828355230E+01  0.54170184975E+01  0.00000000000E+00 0. -1.
</event>
<event>
 7    1  0.4346085E-013  0.5930194E+02  0.7816164E-02  0.1266605E+00
        -11   -1    0    0    0    0  0.00000000000E+00  0.00000000000E+00  0.45593999997E+02  0.45594000000E+02  0.51100000000E-03 0. -1.
         11   -1    0    0    0    0 -0.00000000000E+00 -0.00000000000E+00 -0.45593999997E+02  0.45594000000E+02  0.51100000000E-03 0.  1.
    9900012    2    1    2    0    0 -0.23844546247E+02 -0.21111925955E+02 -0.15636864108E+01  0.59301938493E+02  0.49999989907E+02 0.  0.
         12    1    1    2    0    0  0.23844546247E+02  0.21111925955E+02  0.15636864108E+01  0.31886061507E+02  0.00000000000E+00 0. -1.
         11    1    3    3    0    0 -0.17926134980E+02 -0.18670503470E+02  0.73091027272E+01  0.26895296951E+02  0.51100000000E-03 0. -1.
        -11    1    3    3    0    0  0.91186953948E+01  0.65500962870E+01  0.25215275203E+01  0.11507061674E+02  0.51100000000E-03 0.  1.
        -12    1    3    3    0    0 -0.15037106661E+02 -0.89915187721E+01 -0.11394316658E+02  0.20899579868E+02  0.00000000000E+00 0.  1.
</event>
<event>
 7    1  0.4346085E-013  0.5930195E+02  0.7816164E-02  0.1266605E+00
        -11   -1    0    0    0    0  0.00000000000E+00  0.00000000000E+00  0.45593999997E+02  0.45594000000E+02  0.51100000000E-03 0.  1.
         11   -1    0    0    0    0 -0.00000000000E+00 -0.00000000000E+00 -0.45593999997E+02  0.45594000000E+02  0.51100000000E-03 0. -1.
    9900012    2    1    2    0    0  0.35865856175E+01 -0.29472835989E+02 -0.11627933535E+02  0.59301945118E+02  0.50000001989E+02 0.  0.
         12    1    1    2    0    0 -0.35865856175E+01  0.29472835989E+02  0.11627933535E+02  0.31886054882E+02  0.00000000000E+00 0. -1.
         11    1    3    3    0    0 -0.26402594725E-01  0.56394295188E+01 -0.60358756149E+01  0.82604877032E+01  0.51100000000E-03 0. -1.
        -11    1    3    3    0    0 -0.87261067825E+01 -0.37045484174E+02 -0.23181242265E+01  0.38129864116E+02  0.51100000000E-03 0.  1.
        -12    1    3    3    0    0  0.12339094995E+02  0.19332186666E+01 -0.32739336938E+01  0.12911593300E+02  0.00000000000E+00 0.  1.
</event>
<event>
 7    1  0.4346085E-013  0.5930194E+02  0.7816164E-02  0.1266605E+00
        -11   -1    0    0    0    0  0.00000000000E+00  0.00000000000E+00  0.45593999997E+02  0.45594000000E+02  0.51100000000E-03 0. -1.
         11   -1    0    0    0    0 -0.00000000000E+00 -0.00000000000E+00 -0.45593999997E+02  0.45594000000E+02  0.51100000000E-03 0.  1.
    9900012    2    1    2    0    0  0.38202625661E+01  0.77644433343E+01 -0.30689414202E+02  0.59301935169E+02  0.49999983843E+02 0.  0.
         12    1    1    2    0    0 -0.38202625661E+01 -0.77644433343E+01  0.30689414202E+02  0.31886064831E+02  0.00000000000E+00 0. -1.
         11    1    3    3    0    0  0.70816706419E+01 -0.79339776689E+01 -0.51281814203E+01  0.11806621264E+02  0.51100000000E-03 0. -1.
        -11    1    3    3    0    0 -0.85951261069E+00  0.20068162422E+02 -0.32945017813E+02  0.38585542680E+02  0.51100000000E-03 0.  1.
        -12    1    3    3    0    0 -0.24018954651E+01 -0.43697414190E+01  0.73837850311E+01  0.89097712249E+01  0.00000000000E+00 0.  1.
</event>
<event>
 7    1  0.4346085E-013  0.5930193E+02  0.7816164E-02  0.1266605E+00
        -11   -1    0    0    0    0  0.00000000000E+00  0.00000000000E+00  0.45593999997E+02  0.45594000000E+02  0.51100000000E-03 0.  1.
         11   -1    0    0    0    0 -0.00000000000E+00 -0.00000000000E+00 -0.45593999997E+02  0.45594000000E+02  0.51100000000E-03 0. -1.
    9900012    2    1    2    0    0 -0.13153331696E+02 -0.22784277087E+02  0.18016327184E+02  0.59301929965E+02  0.49999974352E+02 0.  0.
         12    1    1    2    0    0  0.13153331696E+02  0.22784277087E+02 -0.18016327184E+02  0.31886070035E+02  0.00000000000E+00 0. -1.
         11    1    3    3    0    0 -0.59648257512E+01  0.17494656703E+01  0.13928045349E+02  0.15252220294E+02  0.51100000000E-03 0. -1.
        -11    1    3    3    0    0  0.14068137379E+01 -0.32262647301E+02  0.26621056268E+01  0.32402844665E+02  0.51100000000E-03 0.  1.
        -12    1    3    3    0    0 -0.85953196824E+01  0.77289045435E+01  0.14261762080E+01  0.11646865006E+02  0.00000000000E+00 0.  1.
</event>
<event>
 7    1  0.4346085E-013  0.5930194E+02  0.7816164E-02  0.1266605E+00
        -11   -1    0    0    0    0  0.00000000000E+00  0.00000000000E+00  0.45593999997E+02  0.45594000000E+02  0.51100000000E-03 0.  1.
         11   -1    0    0    0    0 -0.00000000000E+00 -0.00000000000E+00 -0.45593999997E+02  0.45594000000E+02  0.51100000000E-03 0. -1.
    9900012    2    1    2    0    0 -0.22936107247E+02  0.14984344741E+02  0.16313341182E+02  0.59301941864E+02  0.49999996054E+02 0.  0.
         12    1    1    2    0    0  0.22936107247E+02 -0.14984344741E+02 -0.16313341182E+02  0.31886058136E+02  0.00000000000E+00 0. -1.
         11    1    3    3    0    0 -0.16624469352E+02 -0.55814339144E+01  0.27574133163E+01  0.17751865091E+02  0.51100000000E-03 0. -1.
        -11    1    3    3    0    0  0.12447509999E+02  0.51206422998E+01  0.10476612160E+02  0.17056403060E+02  0.51100000000E-03 0.  1.
         12    1    3    3    0    0 -0.18759147894E+02  0.15445136355E+02  0.30793157056E+01  0.24493673713E+02  0.00000000000E+00 0. -1.
</event>
<event>
 7    1  0.4346085E-013  0.5930196E+02  0.7816164E-02  0.1266605E+00
        -11   -1    0    0    0    0  0.00000000000E+00  0.00000000000E+00  0.45593999997E+02  0.45594000000E+02  0.51100000000E-03 0.  1.
         11   -1    0    0    0    0 -0.00000000000E+00 -0.00000000000E+00 -0.45593999997E+02  0.45594000000E+02  0.51100000000E-03 0. -1.
    9900012    2    1    2    0    0  0.13210869972E+02  0.40588843194E+01  0.28735309566E+02  0.59301958490E+02  0.50000026376E+02 0.  0.
         12    1    1    2    0    0 -0.13210869972E+02 -0.40588843194E+01 -0.28735309566E+02  0.31886041510E+02  0.00000000000E+00 0. -1.
         11    1    3    3    0    0 -0.14896537700E+02  0.68032342608E+01  0.82330547267E+01  0.18329594165E+02  0.51100000000E-03 0. -1.
        -11    1    3    3    0    0  0.20942979424E+02  0.70558775081E+01  0.78873434533E+01  0.23464952197E+02  0.51100000000E-03 0.  1.
         12    1    3    3    0    0  0.71644282476E+01 -0.98002274495E+01  0.12614911386E+02  0.17507412129E+02  0.00000000000E+00 0. -1.
</event>
<event>
 7    1  0.4346085E-013  0.5930193E+02  0.7816164E-02  0.1266605E+00
        -11   -1    0    0    0    0  0.00000000000E+00  0.00000000000E+00  0.45593999997E+02  0.45594000000E+02  0.51100000000E-03 0. -1.
         11   -1    0    0    0    0 -0.00000000000E+00 -0.00000000000E+00 -0.45593999997E+02  0.45594000000E+02  0.51100000000E-03 0.  1.
    9900012    2    1    2    0    0  0.11870491234E+02 -0.26862033341E+02 -0.12419494427E+02  0.59301933464E+02  0.49999980734E+02 0.  0.
         12    1    1    2    0    0 -0.11870491234E+02  0.26862033341E+02  0.12419494427E+02  0.31886066536E+02  0.00000000000E+00 0. -1.
         11    1    3    3    0    0  0.18354050150E+02 -0.15583529806E+02 -0.32610744634E+01  0.24297163724E+02  0.51100000000E-03 0.  1.
        -11    1    3    3    0    0 -0.17785850539E+02  0.19143647574E-01 -0.42372664591E+01  0.18283634025E+02  0.51100000000E-03 0. -1.
         12    1    3    3    0    0  0.11302291623E+02 -0.11297647182E+02 -0.49211535041E+01  0.16721135715E+02  0.00000000000E+00 0. -1.
</event>
<event>
 7    1  0.4346085E-013  0.5930192E+02  0.7816164E-02  0.1266605E+00
        -11   -1    0    0    0    0  0.00000000000E+00  0.00000000000E+00  0.45593999997E+02  0.45594000000E+02  0.51100000000E-03 0. -1.
         11   -1    0    0    0    0 -0.00000000000E+00 -0.00000000000E+00 -0.45593999997E+02  0.45594000000E+02  0.51100000000E-03 0.  1.
    9900012    2    1    2    0    0  0.77221680122E+01 -0.14206887034E+02 -0.27481897592E+02  0.59301918189E+02  0.49999952877E+02 0.  0.
         12    1    1    2    0    0 -0.77221680122E+01  0.14206887034E+02  0.27481897592E+02  0.31886081811E+02  0.00000000000E+00 0. -1.
         11    1    3    3    0    0  0.88934563538E+01  0.45134194486E+01  0.50231809699E+01  0.11166775199E+02  0.51100000000E-03 0. -1.
        -11    1    3    3    0    0  0.22674872642E+01 -0.26674028469E+02 -0.23255981183E+02  0.35461048409E+02  0.51100000000E-03 0.  1.
         12    1    3    3    0    0 -0.34387756057E+01  0.79537219865E+01 -0.92490973792E+01  0.12674094581E+02  0.00000000000E+00 0. -1.
</event>
<event>
 7    1  0.4346085E-013  0.5930192E+02  0.7816164E-02  0.1266605E+00
        -11   -1    0    0    0    0  0.00000000000E+00  0.00000000000E+00  0.45593999997E+02  0.45594000000E+02  0.51100000000E-03 0. -1.
         11   -1    0    0    0    0 -0.00000000000E+00 -0.00000000000E+00 -0.45593999997E+02  0.45594000000E+02  0.51100000000E-03 0.  1.
    9900012    2    1    2    0    0  0.17177133074E+02 -0.15308378942E+01 -0.26820234824E+02  0.59301915867E+02  0.49999948641E+02 0.  0.
         12    1    1    2    0    0 -0.17177133074E+02  0.15308378942E+01  0.26820234824E+02  0.31886084133E+02  0.00000000000E+00 0. -1.
         11    1    3    3    0    0  0.37564870327E+00  0.87143136466E+01 -0.13011547486E+02  0.15664633494E+02  0.51100000000E-03 0. -1.
        -11    1    3    3    0    0  0.18371660395E+02 -0.18767797489E+02 -0.19979299155E+02  0.32998795785E+02  0.51100000000E-03 0.  1.
        -12    1    3    3    0    0 -0.15701760240E+01  0.85226459481E+01  0.61706118159E+01  0.10638486588E+02  0.00000000000E+00 0.  1.
</event>
<event>
 7    1  0.4346085E-013  0.5930196E+02  0.7816164E-02  0.1266605E+00
        -11   -1    0    0    0    0  0.00000000000E+00  0.00000000000E+00  0.45593999997E+02  0.45594000000E+02  0.51100000000E-03 0. -1.
         11   -1    0    0    0    0 -0.00000000000E+00 -0.00000000000E+00 -0.45593999997E+02  0.45594000000E+02  0.51100000000E-03 0.  1.
    9900012    2    1    2    0    0 -0.21614475142E+02  0.45955585528E+01  0.22987270055E+02  0.59301964206E+02  0.50000036800E+02 0.  0.
         12    1    1    2    0    0  0.21614475142E+02 -0.45955585528E+01 -0.22987270055E+02  0.31886035794E+02  0.00000000000E+00 0. -1.
         11    1    3    3    0    0 -0.21944271780E+02 -0.18642481048E+01 -0.17946965845E+01  0.22096321437E+02  0.51100000000E-03 0.  1.
        -11    1    3    3    0    0 -0.59620412427E+00  0.50204499965E+01  0.30664864523E+02  0.31078839972E+02  0.51100000000E-03 0. -1.
         12    1    3    3    0    0  0.92600076270E+00  0.14393566611E+01 -0.58828978828E+01  0.61268027967E+01  0.00000000000E+00 0. -1.
</event>
<event>
 7    1  0.4346085E-013  0.5930198E+02  0.7816164E-02  0.1266605E+00
        -11   -1    0    0    0    0  0.00000000000E+00  0.00000000000E+00  0.45593999997E+02  0.45594000000E+02  0.51100000000E-03 0. -1.
         11   -1    0    0    0    0 -0.00000000000E+00 -0.00000000000E+00 -0.45593999997E+02  0.45594000000E+02  0.51100000000E-03 0.  1.
    9900012    2    1    2    0    0  0.13627529787E+02  0.34021927304E+01 -0.28625749081E+02  0.59301984351E+02  0.50000073541E+02 0.  0.
         12    1    1    2    0    0 -0.13627529787E+02 -0.34021927304E+01  0.28625749081E+02  0.31886015649E+02  0.00000000000E+00 0. -1.
         11    1    3    3    0    0  0.26575309841E+02  0.65376717269E+01 -0.17727756277E+02  0.32607692154E+02  0.51100000000E-03 0. -1.
        -11    1    3    3    0    0 -0.10651205538E+02 -0.25514493550E+01 -0.16958016574E+02  0.20187431724E+02  0.51100000000E-03 0.  1.
         12    1    3    3    0    0 -0.22965745161E+01 -0.58402964149E+00  0.60600237695E+01  0.65068604732E+01  0.00000000000E+00 0. -1.
</event>
<event>
 7    1  0.4346085E-013  0.5930195E+02  0.7816164E-02  0.1266605E+00
        -11   -1    0    0    0    0  0.00000000000E+00  0.00000000000E+00  0.45593999997E+02  0.45594000000E+02  0.51100000000E-03 0. -1.
         11   -1    0    0    0    0 -0.00000000000E+00 -0.00000000000E+00 -0.45593999997E+02  0.45594000000E+02  0.51100000000E-03 0.  1.
    9900012    2    1    2    0    0  0.26322949418E+02 -0.12630736121E+02 -0.12817456100E+02  0.59301947534E+02  0.50000006394E+02 0.  0.
         12    1    1    2    0    0 -0.26322949418E+02  0.12630736121E+02  0.12817456100E+02  0.31886052466E+02  0.00000000000E+00 0. -1.
         11    1    3    3    0    0  0.23411754639E+02 -0.31762780222E+01 -0.18170341665E+02  0.29805373909E+02  0.51100000000E-03 0.  1.
        -11    1    3    3    0    0 -0.14671870528E+01  0.13611698902E+01  0.14520432552E+02  0.14657707293E+02  0.51100000000E-03 0. -1.
        -12    1    3    3    0    0  0.43783818313E+01 -0.10815627989E+02 -0.91675469866E+01  0.14838866332E+02  0.00000000000E+00 0.  1.
</event>
<event>
 7    1  0.4346085E-013  0.5930193E+02  0.7816164E-02  0.1266605E+00
        -11   -1    0    0    0    0  0.00000000000E+00  0.00000000000E+00  0.45593999997E+02  0.45594000000E+02  0.51100000000E-03 0.  1.
         11   -1    0    0    0    0 -0.00000000000E+00 -0.00000000000E+00 -0.45593999997E+02  0.45594000000E+02  0.51100000000E-03 0. -1.
    9900012    2    1    2    0    0  0.20625044901E+02  0.81114818076E+01  0.22924500098E+02  0.59301932211E+02  0.49999978450E+02 0.  0.
         12    1    1    2    0    0 -0.20625044901E+02 -0.81114818076E+01 -0.22924500098E+02  0.31886067789E+02  0.00000000000E+00 0. -1.
         11    1    3    3    0    0 -0.93663658070E+01  0.82178001122E+01 -0.57548667814E+01  0.13725142588E+02  0.51100000000E-03 0. -1.
        -11    1    3    3    0    0  0.17566967301E+02 -0.19085417705E+01  0.27865629288E+02  0.32995971993E+02  0.51100000000E-03 0.  1.
         12    1    3    3    0    0  0.12424443407E+02  0.18022234659E+01  0.81373759087E+00  0.12580817631E+02  0.00000000000E+00 0. -1.
</event>
<event>
 7    1  0.4346085E-013  0.5930194E+02  0.7816164E-02  0.1266605E+00
        -11   -1    0    0    0    0  0.00000000000E+00  0.00000000000E+00  0.45593999997E+02  0.45594000000E+02  0.51100000000E-03 0.  1.
         11   -1    0    0    0    0 -0.00000000000E+00 -0.00000000000E+00 -0.45593999997E+02  0.45594000000E+02  0.51100000000E-03 0. -1.
    9900012    2    1    2    0    0 -0.73073885521E+01 -0.60554408402E+01  0.30441001597E+02  0.59301939261E+02  0.49999991307E+02 0.  0.
         12    1    1    2    0    0  0.73073885521E+01  0.60554408402E+01 -0.30441001597E+02  0.31886060739E+02  0.00000000000E+00 0. -1.
         11    1    3    3    0    0 -0.11348132791E+02  0.45949585923E+01  0.52305083216E+01  0.13313601311E+02  0.51100000000E-03 0. -1.
        -11    1    3    3    0    0  0.24484476451E+01 -0.17685725024E+02  0.31637088949E+02  0.36327471189E+02  0.51100000000E-03 0.  1.
        -12    1    3    3    0    0  0.15922965939E+01  0.70353255917E+01 -0.64265956741E+01  0.96608667615E+01  0.00000000000E+00 0.  1.
</event>
<event>
 7    1  0.4346085E-013  0.5930216E+02  0.7816164E-02  0.1266604E+00
        -11   -1    0    0    0    0  0.00000000000E+00  0.00000000000E+00  0.45593999997E+02  0.45594000000E+02  0.51100000000E-03 0. -1.
         11   -1    0    0    0    0 -0.00000000000E+00 -0.00000000000E+00 -0.45593999997E+02  0.45594000000E+02  0.51100000000E-03 0.  1.
    9900012    2    1    2    0    0  0.26962814826E+02  0.15553256443E+02 -0.69144339946E+01  0.59302163540E+02  0.50000400335E+02 0.  0.
         12    1    1    2    0    0 -0.26962814826E+02 -0.15553256443E+02  0.69144339946E+01  0.31885836460E+02  0.00000000000E+00 0. -1.
         11    1    3    3    0    0  0.14162368773E+02  0.21435522007E+02  0.62006947331E+01  0.26429205595E+02  0.51100000000E-03 0. -1.
        -11    1    3    3    0    0 -0.20183860052E+01 -0.59222307115E+01 -0.16522418423E+02  0.17667399624E+02  0.51100000000E-03 0.  1.
        -12    1    3    3    0    0  0.14818832058E+02  0.39965147729E-01  0.34072896951E+01  0.15205558320E+02  0.00000000000E+00 0.  1.
</event>
<event>
 7    1  0.4346085E-013  0.5930192E+02  0.7816164E-02  0.1266605E+00
        -11   -1    0    0    0    0  0.00000000000E+00  0.00000000000E+00  0.45593999997E+02  0.45594000000E+02  0.51100000000E-03 0.  1.
         11   -1    0    0    0    0 -0.00000000000E+00 -0.00000000000E+00 -0.45593999997E+02  0.45594000000E+02  0.51100000000E-03 0. -1.
    9900012    2    1    2    0    0 -0.24284602593E+02 -0.14162167059E+02  0.15047038727E+02  0.59301917246E+02  0.49999951157E+02 0.  0.
         12    1    1    2    0    0  0.24284602593E+02  0.14162167059E+02 -0.15047038727E+02  0.31886082754E+02  0.00000000000E+00 0. -1.
         11    1    3    3    0    0 -0.26681961669E+02 -0.25048486675E+02  0.13566617498E+02  0.39030845159E+02  0.51100000000E-03 0. -1.
        -11    1    3    3    0    0 -0.21050468067E+01  0.85409916817E+01  0.80803502970E+01  0.11944531056E+02  0.51100000000E-03 0.  1.
         12    1    3    3    0    0  0.45024058830E+01  0.23453279340E+01 -0.65999290673E+01  0.83265410313E+01  0.00000000000E+00 0. -1.
</event>
<event>
 7    1  0.4346085E-013  0.5930188E+02  0.7816164E-02  0.1266605E+00
        -11   -1    0    0    0    0  0.00000000000E+00  0.00000000000E+00  0.45593999997E+02  0.45594000000E+02  0.51100000000E-03 0. -1.
         11   -1    0    0    0    0 -0.00000000000E+00 -0.00000000000E+00 -0.45593999997E+02  0.45594000000E+02  0.51100000000E-03 0.  1.
    9900012    2    1    2    0    0 -0.21317512753E+02 -0.38212416543E+01  0.23402694548E+02  0.59301884685E+02  0.49999891773E+02 0.  0.
         12    1    1    2    0    0  0.21317512753E+02  0.38212416543E+01 -0.23402694548E+02  0.31886115315E+02  0.00000000000E+00 0. -1.
         11    1    3    3    0    0 -0.34324763171E+02  0.58133998012E-01  0.15065571955E+02  0.37485519936E+02  0.51100000000E-03 0. -1.
        -11    1    3    3    0    0  0.15580309237E+02 -0.69673405128E+00  0.45643526681E+01  0.16250070456E+02  0.51100000000E-03 0.  1.
        -12    1    3    3    0    0 -0.25730588198E+01 -0.31826416010E+01  0.37727699251E+01  0.55662942932E+01  0.00000000000E+00 0.  1.
</event>
<event>
 7    1  0.4346085E-013  0.5930195E+02  0.7816164E-02  0.1266605E+00
        -11   -1    0    0    0    0  0.00000000000E+00  0.00000000000E+00  0.45593999997E+02  0.45594000000E+02  0.51100000000E-03 0.  1.
         11   -1    0    0    0    0 -0.00000000000E+00 -0.00000000000E+00 -0.45593999997E+02  0.45594000000E+02  0.51100000000E-03 0. -1.
    9900012    2    1    2    0    0  0.47891023092E+01  0.21336911512E+02  0.23206046975E+02  0.59301954306E+02  0.50000018745E+02 0.  0.
         12    1    1    2    0    0 -0.47891023092E+01 -0.21336911512E+02 -0.23206046975E+02  0.31886045694E+02  0.00000000000E+00 0. -1.
         11    1    3    3    0    0 -0.15719033607E+02 -0.11249303194E+01  0.94302325293E+01  0.18365259910E+02  0.51100000000E-03 0.  1.
        -11    1    3    3    0    0  0.44547148188E+01  0.85933529830E+01  0.16917685984E+02  0.19490979937E+02  0.51100000000E-03 0. -1.
         12    1    3    3    0    0  0.16053421097E+02  0.13868488848E+02 -0.31418715379E+01  0.21445714458E+02  0.00000000000E+00 0. -1.
</event>
<event>
 7    1  0.4346085E-013  0.5930191E+02  0.7816164E-02  0.1266605E+00
        -11   -1    0    0    0    0  0.00000000000E+00  0.00000000000E+00  0.45593999997E+02  0.45594000000E+02  0.51100000000E-03 0. -1.
         11   -1    0    0    0    0 -0.00000000000E+00 -0.00000000000E+00 -0.45593999997E+02  0.45594000000E+02  0.51100000000E-03 0.  1.
    9900012    2    1    2    0    0 -0.20417824714E+01 -0.30288511938E+02 -0.97549779793E+01  0.59301914846E+02  0.49999946779E+02 0.  0.
         12    1    1    2    0    0  0.20417824714E+01  0.30288511938E+02  0.97549779793E+01  0.31886085154E+02  0.00000000000E+00 0. -1.
         11    1    3    3    0    0  0.22720905889E+02 -0.13268965615E+02 -0.43211084333E+01  0.26664151801E+02  0.51100000000E-03 0. -1.
        -11    1    3    3    0    0 -0.10607868532E+02 -0.34333623667E+01  0.25799547095E+01  0.11444257010E+02  0.51100000000E-03 0.  1.
         12    1    3    3    0    0 -0.14154819828E+02 -0.13586183957E+02 -0.80138242555E+01  0.21193506035E+02  0.00000000000E+00 0. -1.
</event>
<event>
 7    1  0.4346085E-013  0.5930195E+02  0.7816164E-02  0.1266605E+00
        -11   -1    0    0    0    0  0.00000000000E+00  0.00000000000E+00  0.45593999997E+02  0.45594000000E+02  0.51100000000E-03 0.  1.
         11   -1    0    0    0    0 -0.00000000000E+00 -0.00000000000E+00 -0.45593999997E+02  0.45594000000E+02  0.51100000000E-03 0. -1.
    9900012    2    1    2    0    0  0.17001950103E+02  0.24097277631E+02 -0.12123335514E+02  0.59301947242E+02  0.50000005861E+02 0.  0.
         12    1    1    2    0    0 -0.17001950103E+02 -0.24097277631E+02  0.12123335514E+02  0.31886052758E+02  0.00000000000E+00 0. -1.
         11    1    3    3    0    0  0.17397967379E+02  0.40203342908E+01 -0.17920792427E+02  0.25298362757E+02  0.51100000000E-03 0. -1.
        -11    1    3    3    0    0 -0.11130421737E+02  0.34765556461E+01  0.79576241955E+01  0.14117241597E+02  0.51100000000E-03 0.  1.
        -12    1    3    3    0    0  0.10734404461E+02  0.16600387694E+02 -0.21601672823E+01  0.19886342887E+02  0.00000000000E+00 0.  1.
</event>
<event>
 7    1  0.4346085E-013  0.5930199E+02  0.7816164E-02  0.1266605E+00
        -11   -1    0    0    0    0  0.00000000000E+00  0.00000000000E+00  0.45593999997E+02  0.45594000000E+02  0.51100000000E-03 0.  1.
         11   -1    0    0    0    0 -0.00000000000E+00 -0.00000000000E+00 -0.45593999997E+02  0.45594000000E+02  0.51100000000E-03 0. -1.
    9900012    2    1    2    0    0  0.13672050720E+02  0.31086196501E+01  0.28637899432E+02  0.59301987849E+02  0.50000079919E+02 0.  0.
         12    1    1    2    0    0 -0.13672050720E+02 -0.31086196501E+01 -0.28637899432E+02  0.31886012151E+02  0.00000000000E+00 0. -1.
         11    1    3    3    0    0  0.14425029035E+02  0.17464642939E+02  0.20369691434E+02  0.30463413221E+02  0.51100000000E-03 0. -1.
        -11    1    3    3    0    0 -0.94451090582E+01  0.13095526827E+01  0.13355000963E+01  0.96285291773E+01  0.51100000000E-03 0.  1.
         12    1    3    3    0    0  0.86921307432E+01 -0.15665575972E+02  0.69327079014E+01  0.19210045451E+02  0.00000000000E+00 0. -1.
</event>
<event>
 7    1  0.4346085E-013  0.5930198E+02  0.7816164E-02  0.1266605E+00
        -11   -1    0    0    0    0  0.00000000000E+00  0.00000000000E+00  0.45593999997E+02  0.45594000000E+02  0.51100000000E-03 0. -1.
         11   -1    0    0    0    0 -0.00000000000E+00 -0.00000000000E+00 -0.45593999997E+02  0.45594000000E+02  0.51100000000E-03 0.  1.
    9900012    2    1    2    0    0 -0.25164901169E+02  0.14112121388E+02 -0.13575497910E+02  0.59301978542E+02  0.50000062947E+02 0.  0.
         12    1    1    2    0    0  0.25164901169E+02 -0.14112121388E+02  0.13575497910E+02  0.31886021458E+02  0.00000000000E+00 0. -1.
         11    1    3    3    0    0  0.11854337255E+02  0.13521781181E+02 -0.59885177468E+01  0.18953264181E+02  0.51100000000E-03 0. -1.
        -11    1    3    3    0    0 -0.99253825248E+01  0.61223200922E+01 -0.45954740441E+01  0.12534528452E+02  0.51100000000E-03 0.  1.
         12    1    3    3    0    0 -0.27093855899E+02 -0.55319798854E+01 -0.29915061188E+01  0.27814185909E+02  0.00000000000E+00 0. -1.
</event>
<event>
 7    1  0.4346085E-013  0.5930198E+02  0.7816164E-02  0.1266605E+00
        -11   -1    0    0    0    0  0.00000000000E+00  0.00000000000E+00  0.45593999997E+02  0.45594000000E+02  0.51100000000E-03 0.  1.
         11   -1    0    0    0    0 -0.00000000000E+00 -0.00000000000E+00 -0.45593999997E+02  0.45594000000E+02  0.51100000000E-03 0. -1.
    9900012    2    1    2    0    0  0.29377827550E+02 -0.12393099026E+02 -0.26924068102E+00  0.59301981974E+02  0.50000069205E+02 0.  0.
         12    1    1    2    0    0 -0.29377827550E+02  0.12393099026E+02  0.26924068102E+00  0.31886018026E+02  0.00000000000E+00 0. -1.
         11    1    3    3    0    0  0.33131564868E+02 -0.20601820145E+02 -0.19538246642E+01  0.39063448580E+02  0.51100000000E-03 0. -1.
        -11    1    3    3    0    0  0.36625699040E+01  0.49002576860E+01  0.79145124575E+01  0.10003322018E+02  0.51100000000E-03 0.  1.
         12    1    3    3    0    0 -0.74163072224E+01  0.33084634334E+01 -0.62299284744E+01  0.10235211376E+02  0.00000000000E+00 0. -1.
</event>
<event>
 7    1  0.4346085E-013  0.5930196E+02  0.7816164E-02  0.1266605E+00
        -11   -1    0    0    0    0  0.00000000000E+00  0.00000000000E+00  0.45593999997E+02  0.45594000000E+02  0.51100000000E-03 0.  1.
         11   -1    0    0    0    0 -0.00000000000E+00 -0.00000000000E+00 -0.45593999997E+02  0.45594000000E+02  0.51100000000E-03 0. -1.
    9900012    2    1    2    0    0 -0.33080421285E+01 -0.29349970696E+02 -0.12014795497E+02  0.59301964916E+02  0.50000038095E+02 0.  0.
         12    1    1    2    0    0  0.33080421285E+01  0.29349970696E+02  0.12014795497E+02  0.31886035084E+02  0.00000000000E+00 0. -1.
         11    1    3    3    0    0 -0.17446709867E+02 -0.21175628941E+02 -0.11016998857E+02  0.29566352672E+02  0.51100000000E-03 0. -1.
        -11    1    3    3    0    0  0.11487338634E+02 -0.15633988050E+02 -0.60764071235E+01  0.20329861166E+02  0.51100000000E-03 0.  1.
         12    1    3    3    0    0  0.26513291052E+01  0.74596462961E+01  0.50786104832E+01  0.94057510773E+01  0.00000000000E+00 0. -1.
</event>
<event>
 7    1  0.4346085E-013  0.5930194E+02  0.7816164E-02  0.1266605E+00
        -11   -1    0    0    0    0  0.00000000000E+00  0.00000000000E+00  0.45593999997E+02  0.45594000000E+02  0.51100000000E-03 0. -1.
         11   -1    0    0    0    0 -0.00000000000E+00 -0.00000000000E+00 -0.45593999997E+02  0.45594000000E+02  0.51100000000E-03 0.  1.
    9900012    2    1    2    0    0 -0.28257310393E+02  0.79349206027E+01 -0.12461221757E+02  0.59301943435E+02  0.49999998918E+02 0.  0.
         12    1    1    2    0    0  0.28257310393E+02 -0.79349206027E+01  0.12461221757E+02  0.31886056565E+02  0.00000000000E+00 0. -1.
         11    1    3    3    0    0 -0.11369728952E+02  0.14687447251E+02  0.15150108001E+02  0.23969097102E+02  0.51100000000E-03 0. -1.
        -11    1    3    3    0    0 -0.85274488246E+01  0.27930325638E+01 -0.82841139665E+01  0.12212491917E+02  0.51100000000E-03 0.  1.
         12    1    3    3    0    0 -0.83601326164E+01 -0.95455592124E+01 -0.19327215791E+02  0.23120354415E+02  0.00000000000E+00 0. -1.
</event>
<event>
 7    1  0.4346085E-013  0.5930180E+02  0.7816164E-02  0.1266605E+00
        -11   -1    0    0    0    0  0.00000000000E+00  0.00000000000E+00  0.45593999997E+02  0.45594000000E+02  0.51100000000E-03 0. -1.
         11   -1    0    0    0    0 -0.00000000000E+00 -0.00000000000E+00 -0.45593999997E+02  0.45594000000E+02  0.51100000000E-03 0.  1.
    9900012    2    1    2    0    0  0.14792097885E+02  0.21941806130E+02 -0.17789900387E+02  0.59301802800E+02  0.49999742434E+02 0.  0.
         12    1    1    2    0    0 -0.14792097885E+02 -0.21941806130E+02  0.17789900387E+02  0.31886197200E+02  0.00000000000E+00 0. -1.
         11    1    3    3    0    0  0.14261076861E+02 -0.10672006162E+02 -0.27042988788E+01  0.18016194422E+02  0.51100000000E-03 0. -1.
        -11    1    3    3    0    0  0.97144225365E+01  0.18548614859E+02 -0.12224851870E+02  0.24245991873E+02  0.51100000000E-03 0.  1.
         12    1    3    3    0    0 -0.91834015123E+01  0.14065197433E+02 -0.28607496376E+01  0.17039616505E+02  0.00000000000E+00 0. -1.
</event>
<event>
 7    1  0.4346085E-013  0.5930196E+02  0.7816164E-02  0.1266605E+00
        -11   -1    0    0    0    0  0.00000000000E+00  0.00000000000E+00  0.45593999997E+02  0.45594000000E+02  0.51100000000E-03 0.  1.
         11   -1    0    0    0    0 -0.00000000000E+00 -0.00000000000E+00 -0.45593999997E+02  0.45594000000E+02  0.51100000000E-03 0. -1.
    9900012    2    1    2    0    0 -0.23979489917E+02  0.55431021257E+01  0.20272583020E+02  0.59301960106E+02  0.50000029322E+02 0.  0.
         12    1    1    2    0    0  0.23979489917E+02 -0.55431021257E+01 -0.20272583020E+02  0.31886039894E+02  0.00000000000E+00 0. -1.
         11    1    3    3    0    0 -0.33341274242E+02  0.36579675894E+01  0.75016940587E+01  0.34369997221E+02  0.51100000000E-03 0.  1.
        -11    1    3    3    0    0  0.83546823306E+01 -0.71987647302E+01  0.27436043406E+01  0.11364431157E+02  0.51100000000E-03 0. -1.
        -12    1    3    3    0    0  0.10071019944E+01  0.90838992665E+01  0.10027284621E+02  0.13567531727E+02  0.00000000000E+00 0.  1.
</event>
<event>
 7    1  0.4346085E-013  0.5930193E+02  0.7816164E-02  0.1266605E+00
        -11   -1    0    0    0    0  0.00000000000E+00  0.00000000000E+00  0.45593999997E+02  0.45594000000E+02  0.51100000000E-03 0.  1.
         11   -1    0    0    0    0 -0.00000000000E+00 -0.00000000000E+00 -0.45593999997E+02  0.45594000000E+02  0.51100000000E-03 0. -1.
    9900012    2    1    2    0    0 -0.19128636919E+02 -0.16222843095E+02  0.19688474155E+02  0.59301930894E+02  0.49999976047E+02 0.  0.
         12    1    1    2    0    0  0.19128636919E+02  0.16222843095E+02 -0.19688474155E+02  0.31886069106E+02  0.00000000000E+00 0. -1.
         11    1    3    3    0    0 -0.18264992940E+02  0.72805555831E+01  0.23853729968E+02  0.30913053721E+02  0.51100000000E-03 0.  1.
        -11    1    3    3    0    0  0.13380481634E+01 -0.68337766216E+01  0.56075834580E+01  0.89406861203E+01  0.51100000000E-03 0. -1.
         12    1    3    3    0    0 -0.22016921431E+01 -0.16669622057E+02 -0.97728392713E+01  0.19448191053E+02  0.00000000000E+00 0. -1.
</event>
<event>
 7    1  0.4346085E-013  0.5930195E+02  0.7816164E-02  0.1266605E+00
        -11   -1    0    0    0    0  0.00000000000E+00  0.00000000000E+00  0.45593999997E+02  0.45594000000E+02  0.51100000000E-03 0.  1.
         11   -1    0    0    0    0 -0.00000000000E+00 -0.00000000000E+00 -0.45593999997E+02  0.45594000000E+02  0.51100000000E-03 0. -1.
    9900012    2    1    2    0    0  0.25848992756E+02  0.16959638122E+01 -0.18592289119E+02  0.59301953923E+02  0.50000018046E+02 0.  0.
         12    1    1    2    0    0 -0.25848992756E+02 -0.16959638122E+01  0.18592289119E+02  0.31886046077E+02  0.00000000000E+00 0. -1.
         11    1    3    3    0    0  0.82785547785E+01  0.61586525871E+01 -0.31611522163E+02  0.33252846564E+02  0.51100000000E-03 0. -1.
        -11    1    3    3    0    0  0.16924264442E+02 -0.81723984014E+01  0.10698297522E+02  0.21625734500E+02  0.51100000000E-03 0.  1.
         12    1    3    3    0    0  0.64617353495E+00  0.37097096265E+01  0.23209355213E+01  0.44233728584E+01  0.00000000000E+00 0. -1.
</event>
<event>
 7    1  0.4346085E-013  0.5930198E+02  0.7816164E-02  0.1266605E+00
        -11   -1    0    0    0    0  0.00000000000E+00  0.00000000000E+00  0.45593999997E+02  0.45594000000E+02  0.51100000000E-03 0.  1.
         11   -1    0    0    0    0 -0.00000000000E+00 -0.00000000000E+00 -0.45593999997E+02  0.45594000000E+02  0.51100000000E-03 0. -1.
    9900012    2    1    2    0    0 -0.26224052932E+01  0.13990346826E+02  0.28532642710E+02  0.59301976199E+02  0.50000058672E+02 0.  0.
         12    1    1    2    0    0  0.26224052932E+01 -0.13990346826E+02 -0.28532642710E+02  0.31886023801E+02  0.00000000000E+00 0. -1.
         11    1    3    3    0    0  0.18580855394E+02 -0.31701330933E+00  0.86656933704E+01  0.20504704983E+02  0.51100000000E-03 0. -1.
        -11    1    3    3    0    0 -0.21324539056E+02  0.28903794623E+01  0.15720523658E+02  0.26650049226E+02  0.51100000000E-03 0.  1.
         12    1    3    3    0    0  0.12127836935E+00  0.11416980673E+02  0.41464256821E+01  0.12147221990E+02  0.00000000000E+00 0. -1.
</event>
<event>
 7    1  0.4346085E-013  0.5930185E+02  0.7816164E-02  0.1266605E+00
        -11   -1    0    0    0    0  0.00000000000E+00  0.00000000000E+00  0.45593999997E+02  0.45594000000E+02  0.51100000000E-03 0.  1.
         11   -1    0    0    0    0 -0.00000000000E+00 -0.00000000000E+00 -0.45593999997E+02  0.45594000000E+02  0.51100000000E-03 0. -1.
    9900012    2    1    2    0    0 -0.29622105924E+02  0.10323680133E+02  0.57165804471E+01  0.59301845906E+02  0.49999821049E+02 0.  0.
         12    1    1    2    0    0  0.29622105924E+02 -0.10323680133E+02 -0.57165804471E+01  0.31886154094E+02  0.00000000000E+00 0. -1.
         11    1    3    3    0    0 -0.11602000369E+02  0.76641820870E+01 -0.14005290505E+02  0.19735608985E+02  0.51100000000E-03 0. -1.
        -11    1    3    3    0    0 -0.18682911776E+02  0.39073578298E+01  0.26491084724E+02  0.32651128736E+02  0.51100000000E-03 0.  1.
        -12    1    3    3    0    0  0.66280622062E+00 -0.12478597839E+01 -0.67692137715E+01  0.69151081850E+01  0.00000000000E+00 0.  1.
</event>
<event>
 7    1  0.4346085E-013  0.5930193E+02  0.7816164E-02  0.1266605E+00
        -11   -1    0    0    0    0  0.00000000000E+00  0.00000000000E+00  0.45593999997E+02  0.45594000000E+02  0.51100000000E-03 0.  1.
         11   -1    0    0    0    0 -0.00000000000E+00 -0.00000000000E+00 -0.45593999997E+02  0.45594000000E+02  0.51100000000E-03 0. -1.
    9900012    2    1    2    0    0 -0.24193978280E+02 -0.18789011279E+02 -0.88513097393E+01  0.59301933859E+02  0.49999981455E+02 0.  0.
         12    1    1    2    0    0  0.24193978280E+02  0.18789011279E+02  0.88513097393E+01  0.31886066141E+02  0.00000000000E+00 0. -1.
         11    1    3    3    0    0 -0.24113899649E+02 -0.12996426034E+02  0.87812873240E+01  0.28766269366E+02  0.51100000000E-03 0. -1.
        -11    1    3    3    0    0  0.11733359936E+02 -0.22823853404E+01 -0.52173150020E+01  0.13042292525E+02  0.51100000000E-03 0.  1.
         12    1    3    3    0    0 -0.11813438567E+02 -0.35101999048E+01 -0.12415282061E+02  0.17493371968E+02  0.00000000000E+00 0. -1.
</event>
<event>
 7    1  0.4346085E-013  0.5930193E+02  0.7816164E-02  0.1266605E+00
        -11   -1    0    0    0    0  0.00000000000E+00  0.00000000000E+00  0.45593999997E+02  0.45594000000E+02  0.51100000000E-03 0.  1.
         11   -1    0    0    0    0 -0.00000000000E+00 -0.00000000000E+00 -0.45593999997E+02  0.45594000000E+02  0.51100000000E-03 0. -1.
    9900012    2    1    2    0    0  0.21428642466E+02  0.14251265325E+02  0.18826474523E+02  0.59301930561E+02  0.49999975439E+02 0.  0.
         12    1    1    2    0    0 -0.21428642466E+02 -0.14251265325E+02 -0.18826474523E+02  0.31886069439E+02  0.00000000000E+00 0. -1.
         11    1    3    3    0    0  0.24630472736E+02  0.93956769531E+00 -0.43226384825E+01  0.25024551511E+02  0.51100000000E-03 0. -1.
        -11    1    3    3    0    0 -0.54399953426E+01 -0.26136135165E+01  0.15166792485E+02  0.16323483681E+02  0.51100000000E-03 0.  1.
         12    1    3    3    0    0  0.22381650732E+01  0.15925311146E+02  0.79823205211E+01  0.17953895368E+02  0.00000000000E+00 0. -1.
</event>
<event>
 7    1  0.4346085E-013  0.5930194E+02  0.7816164E-02  0.1266605E+00
        -11   -1    0    0    0    0  0.00000000000E+00  0.00000000000E+00  0.45593999997E+02  0.45594000000E+02  0.51100000000E-03 0. -1.
         11   -1    0    0    0    0 -0.00000000000E+00 -0.00000000000E+00 -0.45593999997E+02  0.45594000000E+02  0.51100000000E-03 0.  1.
    9900012    2    1    2    0    0  0.18407950790E+02 -0.58379940998E+01 -0.25372933435E+02  0.59301943823E+02  0.49999999628E+02 0.  0.
         12    1    1    2    0    0 -0.18407950790E+02  0.58379940998E+01  0.25372933435E+02  0.31886056177E+02  0.00000000000E+00 0. -1.
         11    1    3    3    0    0  0.21611844808E+02  0.76450320701E+01  0.34732648404E+01  0.23185812910E+02  0.51100000000E-03 0. -1.
        -11    1    3    3    0    0 -0.26856052428E+01 -0.75098932979E+01 -0.29042108387E+02  0.30117354344E+02  0.51100000000E-03 0.  1.
         12    1    3    3    0    0 -0.51828877549E+00 -0.59731328720E+01  0.19591011152E+00  0.59987765697E+01  0.00000000000E+00 0. -1.
</event>
<event>
 7    1  0.4346085E-013  0.5930193E+02  0.7816164E-02  0.1266605E+00
        -11   -1    0    0    0    0  0.00000000000E+00  0.00000000000E+00  0.45593999997E+02  0.45594000000E+02  0.51100000000E-03 0.  1.
         11   -1    0    0    0    0 -0.00000000000E+00 -0.00000000000E+00 -0.45593999997E+02  0.45594000000E+02  0.51100000000E-03 0. -1.
    9900012    2    1    2    0    0 -0.91452797515E+01 -0.27904625160E+02  0.12426473015E+02  0.59301929709E+02  0.49999973885E+02 0.  0.
         12    1    1    2    0    0  0.91452797515E+01  0.27904625160E+02 -0.12426473015E+02  0.31886070291E+02  0.00000000000E+00 0. -1.
         11    1    3    3    0    0  0.91386277166E+01 -0.75791660284E+00  0.21957918198E+01  0.94292341204E+01  0.51100000000E-03 0. -1.
        -11    1    3    3    0    0 -0.26048888836E+02 -0.25856016937E+02 -0.32646322120E+00  0.36704016128E+02  0.51100000000E-03 0.  1.
         12    1    3    3    0    0  0.77649813674E+01 -0.12906916198E+01  0.10557144417E+02  0.13168679460E+02  0.00000000000E+00 0. -1.
</event>
<event>
 7    1  0.4346085E-013  0.5930193E+02  0.7816164E-02  0.1266605E+00
        -11   -1    0    0    0    0  0.00000000000E+00  0.00000000000E+00  0.45593999997E+02  0.45594000000E+02  0.51100000000E-03 0.  1.
         11   -1    0    0    0    0 -0.00000000000E+00 -0.00000000000E+00 -0.45593999997E+02  0.45594000000E+02  0.51100000000E-03 0. -1.
    9900012    2    1    2    0    0  0.27913946022E+02  0.13183598421E+02 -0.79828322471E+01  0.59301933129E+02  0.49999980123E+02 0.  0.
         12    1    1    2    0    0 -0.27913946022E+02 -0.13183598421E+02  0.79828322471E+01  0.31886066871E+02  0.00000000000E+00 0. -1.
         11    1    3    3    0    0  0.18797141404E+02  0.20952518212E+02  0.13237361717E+02  0.31105759754E+02  0.51100000000E-03 0. -1.
        -11    1    3    3    0    0  0.10904225777E+01 -0.10133578208E+02 -0.12045801865E+02  0.15779092862E+02  0.51100000000E-03 0.  1.
         12    1    3    3    0    0  0.80263820399E+01  0.23646584176E+01 -0.91743920984E+01  0.12417080513E+02  0.00000000000E+00 0. -1.
</event>
<event>
 7    1  0.4346085E-013  0.5930195E+02  0.7816164E-02  0.1266605E+00
        -11   -1    0    0    0    0  0.00000000000E+00  0.00000000000E+00  0.45593999997E+02  0.45594000000E+02  0.51100000000E-03 0.  1.
         11   -1    0    0    0    0 -0.00000000000E+00 -0.00000000000E+00 -0.45593999997E+02  0.45594000000E+02  0.51100000000E-03 0. -1.
    9900012    2    1    2    0    0  0.20793778744E+02 -0.20341597842E+02 -0.13059796274E+02  0.59301951076E+02  0.50000012855E+02 0.  0.
         12    1    1    2    0    0 -0.20793778744E+02  0.20341597842E+02  0.13059796274E+02  0.31886048924E+02  0.00000000000E+00 0. -1.
         11    1    3    3    0    0 -0.72653643128E+01 -0.90027270594E+01  0.46325861743E+01  0.12461760230E+02  0.51100000000E-03 0.  1.
        -11    1    3    3    0    0  0.29236246423E+02 -0.66820637637E+01 -0.24350022388E+02  0.38630708919E+02  0.51100000000E-03 0. -1.
         12    1    3    3    0    0 -0.11771033659E+01 -0.46568070193E+01  0.66576399397E+01  0.82094819274E+01  0.00000000000E+00 0. -1.
</event>
<event>
 7    1  0.4346085E-013  0.5930198E+02  0.7816164E-02  0.1266605E+00
        -11   -1    0    0    0    0  0.00000000000E+00  0.00000000000E+00  0.45593999997E+02  0.45594000000E+02  0.51100000000E-03 0. -1.
         11   -1    0    0    0    0 -0.00000000000E+00 -0.00000000000E+00 -0.45593999997E+02  0.45594000000E+02  0.51100000000E-03 0.  1.
    9900012    2    1    2    0    0 -0.22267800519E+02  0.22422218774E+02 -0.42552688729E+01  0.59301981938E+02  0.50000069139E+02 0.  0.
         12    1    1    2    0    0  0.22267800519E+02 -0.22422218774E+02  0.42552688729E+01  0.31886018062E+02  0.00000000000E+00 0. -1.
         11    1    3    3    0    0  0.47444344496E+01 -0.71685365278E+01  0.95433457493E+01  0.12844182440E+02  0.51100000000E-03 0. -1.
        -11    1    3    3    0    0 -0.16514958551E+02  0.14408728542E+02  0.22058076622E+01  0.22027730292E+02  0.51100000000E-03 0.  1.
         12    1    3    3    0    0 -0.10497276417E+02  0.15182026760E+02 -0.16004422284E+02  0.24430069205E+02  0.00000000000E+00 0. -1.
</event>
<event>
 7    1  0.4346085E-013  0.5930195E+02  0.7816164E-02  0.1266605E+00
        -11   -1    0    0    0    0  0.00000000000E+00  0.00000000000E+00  0.45593999997E+02  0.45594000000E+02  0.51100000000E-03 0.  1.
         11   -1    0    0    0    0 -0.00000000000E+00 -0.00000000000E+00 -0.45593999997E+02  0.45594000000E+02  0.51100000000E-03 0. -1.
    9900012    2    1    2    0    0 -0.26166484009E+02 -0.17807331298E+02 -0.38644910731E+01  0.59301949373E+02  0.50000009748E+02 0.  0.
         12    1    1    2    0    0  0.26166484009E+02  0.17807331298E+02  0.38644910731E+01  0.31886050627E+02  0.00000000000E+00 0. -1.
         11    1    3    3    0    0 -0.73581864649E+01 -0.18269806423E+02 -0.11642576543E+02  0.22879648678E+02  0.51100000000E-03 0. -1.
        -11    1    3    3    0    0 -0.21005118302E+02  0.11446411492E+02  0.79849096427E+01  0.25218923712E+02  0.51100000000E-03 0.  1.
        -12    1    3    3    0    0  0.21968207586E+01 -0.10983936368E+02 -0.20682417237E+00  0.11203376983E+02  0.00000000000E+00 0.  1.
</event>
<event>
 7    1  0.4346085E-013  0.5930198E+02  0.7816164E-02  0.1266605E+00
        -11   -1    0    0    0    0  0.00000000000E+00  0.00000000000E+00  0.45593999997E+02  0.45594000000E+02  0.51100000000E-03 0.  1.
         11   -1    0    0    0    0 -0.00000000000E+00 -0.00000000000E+00 -0.45593999997E+02  0.45594000000E+02  0.51100000000E-03 0. -1.
    9900012    2    1    2    0    0  0.13635481581E+02 -0.13770654073E+01  0.28790544186E+02  0.59301982663E+02  0.50000070462E+02 0.  0.
         12    1    1    2    0    0 -0.13635481581E+02  0.13770654073E+01 -0.28790544186E+02  0.31886017337E+02  0.00000000000E+00 0. -1.
         11    1    3    3    0    0  0.13371270698E+02 -0.10146262365E+01 -0.30420543309E+01  0.13750434222E+02  0.51100000000E-03 0. -1.
        -11    1    3    3    0    0 -0.14807069702E+02  0.61625565811E+01  0.13766119218E+02  0.21136046352E+02  0.51100000000E-03 0.  1.
        -12    1    3    3    0    0  0.15071280586E+02 -0.65249957520E+01  0.18066479298E+02  0.24415502090E+02  0.00000000000E+00 0.  1.
</event>
<event>
 7    1  0.4346085E-013  0.5930193E+02  0.7816164E-02  0.1266605E+00
        -11   -1    0    0    0    0  0.00000000000E+00  0.00000000000E+00  0.45593999997E+02  0.45594000000E+02  0.51100000000E-03 0.  1.
         11   -1    0    0    0    0 -0.00000000000E+00 -0.00000000000E+00 -0.45593999997E+02  0.45594000000E+02  0.51100000000E-03 0. -1.
    9900012    2    1    2    0    0  0.98909707751E+01 -0.29949848626E+02  0.46794135869E+01  0.59301927067E+02  0.49999969067E+02 0.  0.
         12    1    1    2    0    0 -0.98909707751E+01  0.29949848626E+02 -0.46794135869E+01  0.31886072933E+02  0.00000000000E+00 0. -1.
         11    1    3    3    0    0 -0.80648275676E+01  0.14083530735E+01  0.13114739542E+02  0.15460313567E+02  0.51100000000E-03 0. -1.
        -11    1    3    3    0    0  0.13775213254E+02 -0.38390228479E+01 -0.71225141295E+01  0.15975756771E+02  0.51100000000E-03 0.  1.
         12    1    3    3    0    0  0.41805850885E+01 -0.27519178851E+02 -0.13128118254E+01  0.27865856729E+02  0.00000000000E+00 0. -1.
</event>
<event>
 7    1  0.4346085E-013  0.5930195E+02  0.7816164E-02  0.1266605E+00
        -11   -1    0    0    0    0  0.00000000000E+00  0.00000000000E+00  0.45593999997E+02  0.45594000000E+02  0.51100000000E-03 0.  1.
         11   -1    0    0    0    0 -0.00000000000E+00 -0.00000000000E+00 -0.45593999997E+02  0.45594000000E+02  0.51100000000E-03 0. -1.
    9900012    2    1    2    0    0  0.19501835502E+01  0.31448963973E+02  0.48866698137E+01  0.59301951441E+02  0.50000013520E+02 0.  0.
         12    1    1    2    0    0 -0.19501835502E+01 -0.31448963973E+02 -0.48866698137E+01  0.31886048559E+02  0.00000000000E+00 0. -1.
         11    1    3    3    0    0 -0.35677660833E+01  0.32469065787E+01  0.18677990833E+02  0.19290896790E+02  0.51100000000E-03 0.  1.
        -11    1    3    3    0    0 -0.60506708418E+01  0.24709696631E+02 -0.10153270405E+02  0.27391031843E+02  0.51100000000E-03 0. -1.
         12    1    3    3    0    0  0.11568620475E+02  0.34923607624E+01 -0.36380506143E+01  0.12620022808E+02  0.00000000000E+00 0. -1.
</event>
<event>
 7    1  0.4346085E-013  0.5930193E+02  0.7816164E-02  0.1266605E+00
        -11   -1    0    0    0    0  0.00000000000E+00  0.00000000000E+00  0.45593999997E+02  0.45594000000E+02  0.51100000000E-03 0. -1.
         11   -1    0    0    0    0 -0.00000000000E+00 -0.00000000000E+00 -0.45593999997E+02  0.45594000000E+02  0.51100000000E-03 0.  1.
    9900012    2    1    2    0    0 -0.11313061351E+02  0.62435481751E+01 -0.29150543401E+02  0.59301930448E+02  0.49999975233E+02 0.  0.
         12    1    1    2    0    0  0.11313061351E+02 -0.62435481751E+01  0.29150543401E+02  0.31886069552E+02  0.00000000000E+00 0. -1.
         11    1    3    3    0    0 -0.14439159076E+02 -0.84225795440E+01 -0.17996638454E+02  0.24562332074E+02  0.51100000000E-03 0.  1.
        -11    1    3    3    0    0  0.91064190548E+01  0.21694695513E+02 -0.65314502337E+01  0.24418159714E+02  0.51100000000E-03 0. -1.
         12    1    3    3    0    0 -0.59803213305E+01 -0.70285677936E+01 -0.46224547125E+01  0.10321438660E+02  0.00000000000E+00 0. -1.
</event>
<event>
 7    1  0.4346085E-013  0.5930193E+02  0.7816164E-02  0.1266605E+00
        -11   -1    0    0    0    0  0.00000000000E+00  0.00000000000E+00  0.45593999997E+02  0.45594000000E+02  0.51100000000E-03 0. -1.
         11   -1    0    0    0    0 -0.00000000000E+00 -0.00000000000E+00 -0.45593999997E+02  0.45594000000E+02  0.51100000000E-03 0.  1.
    9900012    2    1    2    0    0 -0.10034374014E+02 -0.27566409180E+02 -0.12495028537E+02  0.59301932273E+02  0.49999978563E+02 0.  0.
         12    1    1    2    0    0  0.10034374014E+02  0.27566409180E+02  0.12495028537E+02  0.31886067727E+02  0.00000000000E+00 0. -1.
         11    1    3    3    0    0 -0.48683204013E+01 -0.28828148338E+01  0.18235073916E+02  0.19092644811E+02  0.51100000000E-03 0. -1.
        -11    1    3    3    0    0 -0.16774574824E+01 -0.18194888261E+02 -0.19021758487E+02  0.26376033035E+02  0.51100000000E-03 0.  1.
         12    1    3    3    0    0 -0.34885961302E+01 -0.64887060848E+01 -0.11708343966E+02  0.13833254427E+02  0.00000000000E+00 0. -1.
</event>
<event>
 7    1  0.4346085E-013  0.5930193E+02  0.7816164E-02  0.1266605E+00
        -11   -1    0    0    0    0  0.00000000000E+00  0.00000000000E+00  0.45593999997E+02  0.45594000000E+02  0.51100000000E-03 0. -1.
         11   -1    0    0    0    0 -0.00000000000E+00 -0.00000000000E+00 -0.45593999997E+02  0.45594000000E+02  0.51100000000E-03 0.  1.
    9900012    2    1    2    0    0 -0.25346441042E+02  0.15362966171E+02 -0.11758335187E+02  0.59301933303E+02  0.49999980440E+02 0.  0.
         12    1    1    2    0    0  0.25346441042E+02 -0.15362966171E+02  0.11758335187E+02  0.31886066697E+02  0.00000000000E+00 0. -1.
         11    1    3    3    0    0 -0.12827635121E+00  0.18852578528E+02 -0.13783960960E+02  0.23354523159E+02  0.51100000000E-03 0. -1.
        -11    1    3    3    0    0 -0.25774008884E+02 -0.78968236381E+01 -0.52114748961E+01  0.27455761297E+02  0.51100000000E-03 0.  1.
        -12    1    3    3    0    0  0.55584419354E+00  0.44072112810E+01  0.72371006692E+01  0.84916488469E+01  0.00000000000E+00 0.  1.
</event>
<event>
 7    1  0.4346085E-013  0.5930159E+02  0.7816164E-02  0.1266606E+00
        -11   -1    0    0    0    0  0.00000000000E+00  0.00000000000E+00  0.45593999997E+02  0.45594000000E+02  0.51100000000E-03 0. -1.
         11   -1    0    0    0    0 -0.00000000000E+00 -0.00000000000E+00 -0.45593999997E+02  0.45594000000E+02  0.51100000000E-03 0.  1.
    9900012    2    1    2    0    0 -0.23922480842E+02  0.15907941551E+02 -0.13834569394E+02  0.59301592169E+02  0.49999358291E+02 0.  0.
         12    1    1    2    0    0  0.23922480842E+02 -0.15907941551E+02  0.13834569394E+02  0.31886407831E+02  0.00000000000E+00 0. -1.
         11    1    3    3    0    0 -0.23592648991E+01 -0.37656686324E+01 -0.23858188105E+02  0.24268488437E+02  0.51100000000E-03 0. -1.
        -11    1    3    3    0    0 -0.98069533713E+01  0.13387188728E+02  0.13343817657E+02  0.21294380160E+02  0.51100000000E-03 0.  1.
        -12    1    3    3    0    0 -0.11756262571E+02  0.62864214551E+01 -0.33201989467E+01  0.13738723573E+02  0.00000000000E+00 0.  1.
</event>
<event>
 7    1  0.4346085E-013  0.5930197E+02  0.7816164E-02  0.1266605E+00
        -11   -1    0    0    0    0  0.00000000000E+00  0.00000000000E+00  0.45593999997E+02  0.45594000000E+02  0.51100000000E-03 0.  1.
         11   -1    0    0    0    0 -0.00000000000E+00 -0.00000000000E+00 -0.45593999997E+02  0.45594000000E+02  0.51100000000E-03 0. -1.
    9900012    2    1    2    0    0  0.13246384954E+02 -0.16916033404E+02  0.23560554684E+02  0.59301974260E+02  0.50000055136E+02 0.  0.
         12    1    1    2    0    0 -0.13246384954E+02  0.16916033404E+02 -0.23560554684E+02  0.31886025740E+02  0.00000000000E+00 0. -1.
         11    1    3    3    0    0  0.10900323543E+02  0.14470064238E+02  0.15590198578E+01  0.18183243813E+02  0.51100000000E-03 0. -1.
        -11    1    3    3    0    0  0.59529292934E+01 -0.76487671589E+01  0.11140702202E+02  0.14766727872E+02  0.51100000000E-03 0.  1.
         12    1    3    3    0    0 -0.36068678826E+01 -0.23737330483E+02  0.10860832624E+02  0.26352002574E+02  0.00000000000E+00 0. -1.
</event>
<event>
 7    1  0.4346085E-013  0.5930193E+02  0.7816164E-02  0.1266605E+00
        -11   -1    0    0    0    0  0.00000000000E+00  0.00000000000E+00  0.45593999997E+02  0.45594000000E+02  0.51100000000E-03 0. -1.
         11   -1    0    0    0    0 -0.00000000000E+00 -0.00000000000E+00 -0.45593999997E+02  0.45594000000E+02  0.51100000000E-03 0.  1.
    9900012    2    1    2    0    0 -0.21030989314E+02  0.23520602965E+02 -0.46043735666E+01  0.59301928883E+02  0.49999972379E+02 0.  0.
         12    1    1    2    0    0  0.21030989314E+02 -0.23520602965E+02  0.46043735666E+01  0.31886071117E+02  0.00000000000E+00 0. -1.
         11    1    3    3    0    0 -0.96976531638E+01  0.76345529656E+01  0.11971358134E+02  0.17194309864E+02  0.51100000000E-03 0. -1.
        -11    1    3    3    0    0  0.27628052356E+01  0.45269303470E+01 -0.22455583232E+02  0.23073348471E+02  0.51100000000E-03 0.  1.
        -12    1    3    3    0    0 -0.14096141386E+02  0.11359119652E+02  0.58798515316E+01  0.19034270547E+02  0.00000000000E+00 0.  1.
</event>
<event>
 7    1  0.4346085E-013  0.5930197E+02  0.7816164E-02  0.1266605E+00
        -11   -1    0    0    0    0  0.00000000000E+00  0.00000000000E+00  0.45593999997E+02  0.45594000000E+02  0.51100000000E-03 0.  1.
         11   -1    0    0    0    0 -0.00000000000E+00 -0.00000000000E+00 -0.45593999997E+02  0.45594000000E+02  0.51100000000E-03 0. -1.
    9900012    2    1    2    0    0  0.30614171513E+02  0.60036287357E+01  0.65915156453E+01  0.59301966476E+02  0.50000040940E+02 0.  0.
         12    1    1    2    0    0 -0.30614171513E+02 -0.60036287357E+01 -0.65915156453E+01  0.31886033524E+02  0.00000000000E+00 0. -1.
         11    1    3    3    0    0  0.18247590296E+02  0.20519875009E+02 -0.11242514768E+02  0.29672107451E+02  0.51100000000E-03 0. -1.
        -11    1    3    3    0    0  0.92495673594E+01 -0.46946917068E+01  0.16142135959E+02  0.19187578798E+02  0.51100000000E-03 0.  1.
         12    1    3    3    0    0  0.31170138571E+01 -0.98215545669E+01  0.16918944542E+01  0.10442280227E+02  0.00000000000E+00 0. -1.
</event>
<event>
 7    1  0.4346085E-013  0.5930195E+02  0.7816164E-02  0.1266605E+00
        -11   -1    0    0    0    0  0.00000000000E+00  0.00000000000E+00  0.45593999997E+02  0.45594000000E+02  0.51100000000E-03 0.  1.
         11   -1    0    0    0    0 -0.00000000000E+00 -0.00000000000E+00 -0.45593999997E+02  0.45594000000E+02  0.51100000000E-03 0. -1.
    9900012    2    1    2    0    0  0.16473454896E+02  0.27182018102E+02  0.25462833673E+01  0.59301946884E+02  0.50000005209E+02 0.  0.
         12    1    1    2    0    0 -0.16473454896E+02 -0.27182018102E+02 -0.25462833673E+01  0.31886053116E+02  0.00000000000E+00 0. -1.
         11    1    3    3    0    0 -0.16093924024E+01  0.12417265062E+02 -0.83169682576E+01  0.15031652497E+02  0.51100000000E-03 0. -1.
        -11    1    3    3    0    0  0.27453257499E+02  0.90016778175E+01  0.11679751881E+00  0.28891611114E+02  0.51100000000E-03 0.  1.
        -12    1    3    3    0    0 -0.93704102011E+01  0.57630752225E+01  0.10746454106E+02  0.15378683273E+02  0.00000000000E+00 0.  1.
</event>
<event>
 7    1  0.4346085E-013  0.5930193E+02  0.7816164E-02  0.1266605E+00
        -11   -1    0    0    0    0  0.00000000000E+00  0.00000000000E+00  0.45593999997E+02  0.45594000000E+02  0.51100000000E-03 0. -1.
         11   -1    0    0    0    0 -0.00000000000E+00 -0.00000000000E+00 -0.45593999997E+02  0.45594000000E+02  0.51100000000E-03 0.  1.
    9900012    2    1    2    0    0  0.32520544914E+01 -0.19619461940E+02 -0.24924336542E+02  0.59301926280E+02  0.49999967632E+02 0.  0.
         12    1    1    2    0    0 -0.32520544914E+01  0.19619461940E+02  0.24924336542E+02  0.31886073720E+02  0.00000000000E+00 0. -1.
         11    1    3    3    0    0  0.18848765081E+02 -0.12304618572E+02  0.51261003568E+01  0.23085850394E+02  0.51100000000E-03 0. -1.
        -11    1    3    3    0    0 -0.83111851179E+01  0.16237364236E+01 -0.10178426507E+02  0.13240569642E+02  0.51100000000E-03 0.  1.
         12    1    3    3    0    0 -0.72855254721E+01 -0.89385797915E+01 -0.19872010392E+02  0.22975506243E+02  0.00000000000E+00 0. -1.
</event>
<event>
 7    1  0.4346085E-013  0.5930193E+02  0.7816164E-02  0.1266605E+00
        -11   -1    0    0    0    0  0.00000000000E+00  0.00000000000E+00  0.45593999997E+02  0.45594000000E+02  0.51100000000E-03 0. -1.
         11   -1    0    0    0    0 -0.00000000000E+00 -0.00000000000E+00 -0.45593999997E+02  0.45594000000E+02  0.51100000000E-03 0.  1.
    9900012    2    1    2    0    0  0.71121374052E+01  0.25202173778E+02  0.18193105636E+02  0.59301934795E+02  0.49999983161E+02 0.  0.
         12    1    1    2    0    0 -0.71121374052E+01 -0.25202173778E+02 -0.18193105636E+02  0.31886065205E+02  0.00000000000E+00 0. -1.
         11    1    3    3    0    0 -0.73322252123E+01  0.18330718049E+02  0.12129419820E+02  0.23171093547E+02  0.51100000000E-03 0. -1.
        -11    1    3    3    0    0  0.24098303742E+02  0.65974214098E+01  0.51047808945E+00  0.24990294129E+02  0.51100000000E-03 0.  1.
        -12    1    3    3    0    0 -0.96539411248E+01  0.27403431980E+00  0.55532077266E+01  0.11140547119E+02  0.00000000000E+00 0.  1.
</event>
<event>
 7    1  0.4346085E-013  0.5930191E+02  0.7816164E-02  0.1266605E+00
        -11   -1    0    0    0    0  0.00000000000E+00  0.00000000000E+00  0.45593999997E+02  0.45594000000E+02  0.51100000000E-03 0. -1.
         11   -1    0    0    0    0 -0.00000000000E+00 -0.00000000000E+00 -0.45593999997E+02  0.45594000000E+02  0.51100000000E-03 0.  1.
    9900012    2    1    2    0    0  0.12658222037E+02 -0.22966993541E+02 -0.18138607655E+02  0.59301914240E+02  0.49999945675E+02 0.  0.
         12    1    1    2    0    0 -0.12658222037E+02  0.22966993541E+02  0.18138607655E+02  0.31886085760E+02  0.00000000000E+00 0. -1.
         11    1    3    3    0    0  0.39301248722E+00 -0.95301206413E+01  0.25360029724E+01  0.98695982486E+01  0.51100000000E-03 0. -1.
        -11    1    3    3    0    0  0.16544659332E+02  0.10978583348E+02 -0.11836351243E+02  0.23116103819E+02  0.51100000000E-03 0.  1.
        -12    1    3    3    0    0 -0.42794497822E+01 -0.24415456247E+02 -0.88382593836E+01  0.26316212173E+02  0.00000000000E+00 0.  1.
</event>
<event>
 7    1  0.4346085E-013  0.5930193E+02  0.7816164E-02  0.1266605E+00
        -11   -1    0    0    0    0  0.00000000000E+00  0.00000000000E+00  0.45593999997E+02  0.45594000000E+02  0.51100000000E-03 0.  1.
         11   -1    0    0    0    0 -0.00000000000E+00 -0.00000000000E+00 -0.45593999997E+02  0.45594000000E+02  0.51100000000E-03 0. -1.
    9900012    2    1    2    0    0  0.50960132509E+01 -0.28905896142E+02  0.12457991441E+02  0.59301925711E+02  0.49999966595E+02 0.  0.
         12    1    1    2    0    0 -0.50960132509E+01  0.28905896142E+02 -0.12457991441E+02  0.31886074289E+02  0.00000000000E+00 0. -1.
         11    1    3    3    0    0  0.42473269600E+01 -0.14000942530E+02 -0.13577911497E+02  0.19960607679E+02  0.51100000000E-03 0. -1.
        -11    1    3    3    0    0  0.67909245855E+01 -0.15775829088E+00  0.21876579925E+02  0.22906904939E+02  0.51100000000E-03 0.  1.
        -12    1    3    3    0    0 -0.59422382946E+01 -0.14747195321E+02  0.41593230129E+01  0.16434413093E+02  0.00000000000E+00 0.  1.
</event>
<event>
 7    1  0.4346085E-013  0.5930194E+02  0.7816164E-02  0.1266605E+00
        -11   -1    0    0    0    0  0.00000000000E+00  0.00000000000E+00  0.45593999997E+02  0.45594000000E+02  0.51100000000E-03 0.  1.
         11   -1    0    0    0    0 -0.00000000000E+00 -0.00000000000E+00 -0.45593999997E+02  0.45594000000E+02  0.51100000000E-03 0. -1.
    9900012    2    1    2    0    0 -0.27421954450E+02  0.22428426562E+01  0.16116048841E+02  0.59301937853E+02  0.49999988739E+02 0.  0.
         12    1    1    2    0    0  0.27421954450E+02 -0.22428426562E+01 -0.16116048841E+02  0.31886062147E+02  0.00000000000E+00 0. -1.
         11    1    3    3    0    0  0.78607607261E+01 -0.53523952460E+01  0.10630741687E+01  0.95692121416E+01  0.51100000000E-03 0. -1.
        -11    1    3    3    0    0 -0.27863332224E+02  0.14729785023E+02  0.20973907453E+02  0.37858111991E+02  0.51100000000E-03 0.  1.
        -12    1    3    3    0    0 -0.74193829520E+01 -0.71345471204E+01 -0.59209327813E+01  0.11874613720E+02  0.00000000000E+00 0.  1.
</event>
<event>
 7    1  0.4346085E-013  0.5930194E+02  0.7816164E-02  0.1266605E+00
        -11   -1    0    0    0    0  0.00000000000E+00  0.00000000000E+00  0.45593999997E+02  0.45594000000E+02  0.51100000000E-03 0.  1.
         11   -1    0    0    0    0 -0.00000000000E+00 -0.00000000000E+00 -0.45593999997E+02  0.45594000000E+02  0.51100000000E-03 0. -1.
    9900012    2    1    2    0    0  0.29480979864E+02 -0.57019547592E+00  0.12135390005E+02  0.59301937415E+02  0.49999987939E+02 0.  0.
         12    1    1    2    0    0 -0.29480979864E+02  0.57019547592E+00 -0.12135390005E+02  0.31886062585E+02  0.00000000000E+00 0. -1.
         11    1    3    3    0    0  0.38630060772E+01 -0.28032252044E+00 -0.49353373705E+01  0.62736713246E+01  0.51100000000E-03 0. -1.
        -11    1    3    3    0    0  0.23102856042E+02  0.11323161145E+02  0.27181020119E+02  0.37426779057E+02  0.51100000000E-03 0.  1.
        -12    1    3    3    0    0  0.25151177444E+01 -0.11613034101E+02 -0.10110292743E+02  0.15601487033E+02  0.00000000000E+00 0.  1.
</event>
<event>
 7    1  0.4346085E-013  0.5930195E+02  0.7816164E-02  0.1266605E+00
        -11   -1    0    0    0    0  0.00000000000E+00  0.00000000000E+00  0.45593999997E+02  0.45594000000E+02  0.51100000000E-03 0.  1.
         11   -1    0    0    0    0 -0.00000000000E+00 -0.00000000000E+00 -0.45593999997E+02  0.45594000000E+02  0.51100000000E-03 0. -1.
    9900012    2    1    2    0    0 -0.43107955360E+01 -0.69852191560E+01  0.30811425784E+02  0.59301949701E+02  0.50000010347E+02 0.  0.
         12    1    1    2    0    0  0.43107955360E+01  0.69852191560E+01 -0.30811425784E+02  0.31886050299E+02  0.00000000000E+00 0. -1.
         11    1    3    3    0    0  0.29960284015E+01  0.39938374683E+00 -0.53123242582E+01  0.61119949971E+01  0.51100000000E-03 0. -1.
        -11    1    3    3    0    0  0.10511157102E+01 -0.21862019529E+02  0.24362570744E+02  0.32750383138E+02  0.51100000000E-03 0.  1.
        -12    1    3    3    0    0 -0.83579396477E+01  0.14477416626E+02  0.11761179298E+02  0.20439571566E+02  0.00000000000E+00 0.  1.
</event>
<event>
 7    1  0.4346085E-013  0.5930197E+02  0.7816164E-02  0.1266605E+00
        -11   -1    0    0    0    0  0.00000000000E+00  0.00000000000E+00  0.45593999997E+02  0.45594000000E+02  0.51100000000E-03 0.  1.
         11   -1    0    0    0    0 -0.00000000000E+00 -0.00000000000E+00 -0.45593999997E+02  0.45594000000E+02  0.51100000000E-03 0. -1.
    9900012    2    1    2    0    0 -0.97532387114E+01 -0.29660142741E+02  0.64706578294E+01  0.59301966294E+02  0.50000040608E+02 0.  0.
         12    1    1    2    0    0  0.97532387114E+01  0.29660142741E+02 -0.64706578294E+01  0.31886033706E+02  0.00000000000E+00 0. -1.
         11    1    3    3    0    0 -0.20720738561E+02 -0.19582452361E+02  0.83482789121E+01  0.29707157522E+02  0.51100000000E-03 0. -1.
        -11    1    3    3    0    0  0.14605569246E+02  0.36725257593E+01  0.96142342208E+00  0.15090872530E+02  0.51100000000E-03 0.  1.
         12    1    3    3    0    0 -0.36380693969E+01 -0.13750216139E+02 -0.28390445048E+01  0.14503936242E+02  0.00000000000E+00 0. -1.
</event>
<event>
 7    1  0.4346085E-013  0.5930195E+02  0.7816164E-02  0.1266605E+00
        -11   -1    0    0    0    0  0.00000000000E+00  0.00000000000E+00  0.45593999997E+02  0.45594000000E+02  0.51100000000E-03 0. -1.
         11   -1    0    0    0    0 -0.00000000000E+00 -0.00000000000E+00 -0.45593999997E+02  0.45594000000E+02  0.51100000000E-03 0.  1.
    9900012    2    1    2    0    0  0.30282453449E+02 -0.99836191904E+01 -0.14362407015E+00  0.59301948710E+02  0.50000008539E+02 0.  0.
         12    1    1    2    0    0 -0.30282453449E+02  0.99836191904E+01  0.14362407015E+00  0.31886051290E+02  0.00000000000E+00 0. -1.
         11    1    3    3    0    0 -0.12176051921E+02  0.16531460894E+01  0.34257227701E+01  0.12756359556E+02  0.51100000000E-03 0. -1.
        -11    1    3    3    0    0  0.32544927891E+02 -0.88560796727E+01 -0.89951896191E+01  0.34907247315E+02  0.51100000000E-03 0.  1.
         12    1    3    3    0    0  0.99135774791E+01 -0.27806856071E+01  0.54258427789E+01  0.11638341838E+02  0.00000000000E+00 0. -1.
</event>
<event>
 7    1  0.4346085E-013  0.5930195E+02  0.7816164E-02  0.1266605E+00
        -11   -1    0    0    0    0  0.00000000000E+00  0.00000000000E+00  0.45593999997E+02  0.45594000000E+02  0.51100000000E-03 0. -1.
         11   -1    0    0    0    0 -0.00000000000E+00 -0.00000000000E+00 -0.45593999997E+02  0.45594000000E+02  0.51100000000E-03 0.  1.
    9900012    2    1    2    0    0 -0.30869664156E+02 -0.67640426955E+01 -0.42463951605E+01  0.59301948025E+02  0.50000007290E+02 0.  0.
         12    1    1    2    0    0  0.30869664156E+02  0.67640426955E+01  0.42463951605E+01  0.31886051975E+02  0.00000000000E+00 0. -1.
         11    1    3    3    0    0 -0.17646430607E+02  0.30197849358E+01 -0.12793271589E+01  0.17948601407E+02  0.51100000000E-03 0. -1.
        -11    1    3    3    0    0  0.61958942250E+00 -0.60312712033E+01 -0.18939640512E+02  0.19886430207E+02  0.51100000000E-03 0.  1.
        -12    1    3    3    0    0 -0.13842822972E+02 -0.37525564281E+01  0.15972572511E+02  0.21466916411E+02  0.00000000000E+00 0.  1.
</event>
<event>
 7    1  0.4346085E-013  0.5930194E+02  0.7816164E-02  0.1266605E+00
        -11   -1    0    0    0    0  0.00000000000E+00  0.00000000000E+00  0.45593999997E+02  0.45594000000E+02  0.51100000000E-03 0. -1.
         11   -1    0    0    0    0 -0.00000000000E+00 -0.00000000000E+00 -0.45593999997E+02  0.45594000000E+02  0.51100000000E-03 0.  1.
    9900012    2    1    2    0    0 -0.24936942022E+02 -0.80255477338E+01 -0.18178560599E+02  0.59301944124E+02  0.50000000176E+02 0.  0.
         12    1    1    2    0    0  0.24936942022E+02  0.80255477338E+01  0.18178560599E+02  0.31886055876E+02  0.00000000000E+00 0. -1.
         11    1    3    3    0    0 -0.19302767061E+02 -0.18427811905E+02 -0.17059695379E+02  0.31673557971E+02  0.51100000000E-03 0. -1.
        -11    1    3    3    0    0 -0.97121191824E+00  0.41879497957E+01 -0.12854350536E+02  0.13554206139E+02  0.51100000000E-03 0.  1.
         12    1    3    3    0    0 -0.46629630426E+01  0.62143143756E+01  0.11735485316E+02  0.14074180015E+02  0.00000000000E+00 0. -1.
</event>
<event>
 7    1  0.4346085E-013  0.5930194E+02  0.7816164E-02  0.1266605E+00
        -11   -1    0    0    0    0  0.00000000000E+00  0.00000000000E+00  0.45593999997E+02  0.45594000000E+02  0.51100000000E-03 0.  1.
         11   -1    0    0    0    0 -0.00000000000E+00 -0.00000000000E+00 -0.45593999997E+02  0.45594000000E+02  0.51100000000E-03 0. -1.
    9900012    2    1    2    0    0 -0.92858601126E+01  0.30127146177E+02  0.47800372214E+01  0.59301938929E+02  0.49999990701E+02 0.  0.
         12    1    1    2    0    0  0.92858601126E+01 -0.30127146177E+02 -0.47800372214E+01  0.31886061071E+02  0.00000000000E+00 0. -1.
         11    1    3    3    0    0  0.31004336817E+01  0.21384711684E+02 -0.13281497895E+02  0.25363689980E+02  0.51100000000E-03 0. -1.
        -11    1    3    3    0    0 -0.62354066441E+01 -0.81397757425E+01  0.97202197249E+01  0.14128655878E+02  0.51100000000E-03 0.  1.
         12    1    3    3    0    0 -0.61508871502E+01  0.16882210235E+02  0.83413153913E+01  0.19809593071E+02  0.00000000000E+00 0. -1.
</event>
<event>
 7    1  0.4346085E-013  0.5930192E+02  0.7816164E-02  0.1266605E+00
        -11   -1    0    0    0    0  0.00000000000E+00  0.00000000000E+00  0.45593999997E+02  0.45594000000E+02  0.51100000000E-03 0.  1.
         11   -1    0    0    0    0 -0.00000000000E+00 -0.00000000000E+00 -0.45593999997E+02  0.45594000000E+02  0.51100000000E-03 0. -1.
    9900012    2    1    2    0    0 -0.21846157912E+01  0.14984640381E+02  0.28060832663E+02  0.59301916464E+02  0.49999949730E+02 0.  0.
         12    1    1    2    0    0  0.21846157912E+01 -0.14984640381E+02 -0.28060832663E+02  0.31886083536E+02  0.00000000000E+00 0. -1.
         11    1    3    3    0    0 -0.16381306331E+02  0.10661603510E+02  0.20546648157E+02  0.28358098266E+02  0.51100000000E-03 0. -1.
        -11    1    3    3    0    0  0.13133237692E+02 -0.68005433083E+01  0.11856597353E+02  0.18955427260E+02  0.51100000000E-03 0.  1.
        -12    1    3    3    0    0  0.10634528486E+01  0.11123580179E+02 -0.43424128459E+01  0.11988390938E+02  0.00000000000E+00 0.  1.
</event>
<event>
 7    1  0.4346085E-013  0.5930199E+02  0.7816164E-02  0.1266605E+00
        -11   -1    0    0    0    0  0.00000000000E+00  0.00000000000E+00  0.45593999997E+02  0.45594000000E+02  0.51100000000E-03 0.  1.
         11   -1    0    0    0    0 -0.00000000000E+00 -0.00000000000E+00 -0.45593999997E+02  0.45594000000E+02  0.51100000000E-03 0. -1.
    9900012    2    1    2    0    0  0.24531649450E+02 -0.15840045078E+02  0.12806598347E+02  0.59301987172E+02  0.50000078685E+02 0.  0.
         12    1    1    2    0    0 -0.24531649450E+02  0.15840045078E+02 -0.12806598347E+02  0.31886012828E+02  0.00000000000E+00 0. -1.
         11    1    3    3    0    0 -0.36649373563E+01 -0.10997747091E+02 -0.66498419375E+01  0.13364228558E+02  0.51100000000E-03 0. -1.
        -11    1    3    3    0    0  0.28381680133E+02  0.21896230859E+01  0.24275161518E+02  0.37411197300E+02  0.51100000000E-03 0.  1.
        -12    1    3    3    0    0 -0.18509332622E+00 -0.70319210733E+01 -0.48187212333E+01  0.85265613142E+01  0.00000000000E+00 0.  1.
</event>
<event>
 7    1  0.4346085E-013  0.5930198E+02  0.7816164E-02  0.1266605E+00
        -11   -1    0    0    0    0  0.00000000000E+00  0.00000000000E+00  0.45593999997E+02  0.45594000000E+02  0.51100000000E-03 0. -1.
         11   -1    0    0    0    0 -0.00000000000E+00 -0.00000000000E+00 -0.45593999997E+02  0.45594000000E+02  0.51100000000E-03 0.  1.
    9900012    2    1    2    0    0 -0.28674575415E+01 -0.31659554336E+02  0.24836497706E+01  0.59301980969E+02  0.50000067371E+02 0.  0.
         12    1    1    2    0    0  0.28674575415E+01  0.31659554336E+02 -0.24836497706E+01  0.31886019031E+02  0.00000000000E+00 0. -1.
         11    1    3    3    0    0 -0.55412976526E+01 -0.29288683281E+02 -0.14670698257E+01  0.29844350255E+02  0.51100000000E-03 0. -1.
        -11    1    3    3    0    0  0.12486451026E+02 -0.75237417136E+01 -0.47874509061E+01  0.15343983676E+02  0.51100000000E-03 0.  1.
         12    1    3    3    0    0 -0.98126109150E+01  0.51528706584E+01  0.87381705025E+01  0.14113647038E+02  0.00000000000E+00 0. -1.
</event>
<event>
 7    1  0.4346085E-013  0.5930195E+02  0.7816164E-02  0.1266605E+00
        -11   -1    0    0    0    0  0.00000000000E+00  0.00000000000E+00  0.45593999997E+02  0.45594000000E+02  0.51100000000E-03 0.  1.
         11   -1    0    0    0    0 -0.00000000000E+00 -0.00000000000E+00 -0.45593999997E+02  0.45594000000E+02  0.51100000000E-03 0. -1.
    9900012    2    1    2    0    0 -0.31618106524E+02  0.40816600777E+01  0.59624045985E+00  0.59301951141E+02  0.50000012974E+02 0.  0.
         12    1    1    2    0    0  0.31618106524E+02 -0.40816600777E+01 -0.59624045985E+00  0.31886048859E+02  0.00000000000E+00 0. -1.
         11    1    3    3    0    0 -0.49631905475E+00  0.16052356244E+02 -0.43326021667E+01  0.16634179132E+02  0.51100000000E-03 0. -1.
        -11    1    3    3    0    0 -0.15610427996E+02 -0.11505803981E+02  0.14695721877E+02  0.24331732968E+02  0.51100000000E-03 0.  1.
         12    1    3    3    0    0 -0.15511359473E+02 -0.46489218524E+00 -0.97668792505E+01  0.18336039042E+02  0.00000000000E+00 0. -1.
</event>
<event>
 7    1  0.4346085E-013  0.5930196E+02  0.7816164E-02  0.1266605E+00
        -11   -1    0    0    0    0  0.00000000000E+00  0.00000000000E+00  0.45593999997E+02  0.45594000000E+02  0.51100000000E-03 0. -1.
         11   -1    0    0    0    0 -0.00000000000E+00 -0.00000000000E+00 -0.45593999997E+02  0.45594000000E+02  0.51100000000E-03 0.  1.
    9900012    2    1    2    0    0 -0.14499252263E+02 -0.84045853465E+01 -0.27126629621E+02  0.59301962215E+02  0.50000033169E+02 0.  0.
         12    1    1    2    0    0  0.14499252263E+02  0.84045853465E+01  0.27126629621E+02  0.31886037785E+02  0.00000000000E+00 0. -1.
         11    1    3    3    0    0  0.90521599561E+01 -0.52486858981E+01 -0.16415486236E+02  0.19466856247E+02  0.51100000000E-03 0. -1.
        -11    1    3    3    0    0 -0.12822560168E+02 -0.13054532535E+02  0.44047330726E+01  0.18821278986E+02  0.51100000000E-03 0.  1.
        -12    1    3    3    0    0 -0.10728852052E+02  0.98986330869E+01 -0.15115876458E+02  0.21013826982E+02  0.00000000000E+00 0.  1.
</event>
<event>
 7    1  0.4346085E-013  0.5930193E+02  0.7816164E-02  0.1266605E+00
        -11   -1    0    0    0    0  0.00000000000E+00  0.00000000000E+00  0.45593999997E+02  0.45594000000E+02  0.51100000000E-03 0.  1.
         11   -1    0    0    0    0 -0.00000000000E+00 -0.00000000000E+00 -0.45593999997E+02  0.45594000000E+02  0.51100000000E-03 0. -1.
    9900012    2    1    2    0    0 -0.77495497750E+01  0.12036281836E+02  0.28491992948E+02  0.59301933070E+02  0.49999980015E+02 0.  0.
         12    1    1    2    0    0  0.77495497750E+01 -0.12036281836E+02 -0.28491992948E+02  0.31886066930E+02  0.00000000000E+00 0. -1.
         11    1    3    3    0    0 -0.15032751789E+02 -0.43583707818E+01 -0.58792437805E+01  0.16719585219E+02  0.51100000000E-03 0. -1.
        -11    1    3    3    0    0  0.57371541008E+01  0.19411367636E+02  0.22630630942E+02  0.30362173634E+02  0.51100000000E-03 0.  1.
        -12    1    3    3    0    0  0.15460479127E+01 -0.30167150183E+01  0.11740605787E+02  0.12220174217E+02  0.00000000000E+00 0.  1.
</event>
<event>
 7    1  0.4346085E-013  0.5930195E+02  0.7816164E-02  0.1266605E+00
        -11   -1    0    0    0    0  0.00000000000E+00  0.00000000000E+00  0.45593999997E+02  0.45594000000E+02  0.51100000000E-03 0.  1.
         11   -1    0    0    0    0 -0.00000000000E+00 -0.00000000000E+00 -0.45593999997E+02  0.45594000000E+02  0.51100000000E-03 0. -1.
    9900012    2    1    2    0    0  0.20587829174E+02 -0.13433841552E+02  0.20307468009E+02  0.59301951862E+02  0.50000014288E+02 0.  0.
         12    1    1    2    0    0 -0.20587829174E+02  0.13433841552E+02 -0.20307468009E+02  0.31886048138E+02  0.00000000000E+00 0. -1.
         11    1    3    3    0    0  0.24366532968E+02 -0.56901912809E+00  0.68004188394E+01  0.25304098646E+02  0.51100000000E-03 0.  1.
        -11    1    3    3    0    0 -0.13048107573E+02 -0.38796094656E+01  0.15833136518E+02  0.20880438049E+02  0.51100000000E-03 0. -1.
         12    1    3    3    0    0  0.92694037786E+01 -0.89852129583E+01 -0.23260873491E+01  0.13117415167E+02  0.00000000000E+00 0. -1.
</event>
<event>
 7    1  0.4346085E-013  0.5930191E+02  0.7816164E-02  0.1266605E+00
        -11   -1    0    0    0    0  0.00000000000E+00  0.00000000000E+00  0.45593999997E+02  0.45594000000E+02  0.51100000000E-03 0. -1.
         11   -1    0    0    0    0 -0.00000000000E+00 -0.00000000000E+00 -0.45593999997E+02  0.45594000000E+02  0.51100000000E-03 0.  1.
    9900012    2    1    2    0    0 -0.23608733740E+02  0.13766335151E+02 -0.16426754424E+02  0.59301912859E+02  0.49999943155E+02 0.  0.
         12    1    1    2    0    0  0.23608733740E+02 -0.13766335151E+02  0.16426754424E+02  0.31886087141E+02  0.00000000000E+00 0. -1.
         11    1    3    3    0    0 -0.19046513001E+02  0.28696025176E+01  0.52108718195E+01  0.19953883369E+02  0.51100000000E-03 0. -1.
        -11    1    3    3    0    0 -0.14186834541E+02  0.13474811139E+02 -0.21917091137E+02  0.29380192199E+02  0.51100000000E-03 0.  1.
         12    1    3    3    0    0  0.96246138023E+01 -0.25780785058E+01  0.27946489342E+00  0.99678372906E+01  0.00000000000E+00 0. -1.
</event>
<event>
 7    1  0.4346085E-013  0.5930197E+02  0.7816164E-02  0.1266605E+00
        -11   -1    0    0    0    0  0.00000000000E+00  0.00000000000E+00  0.45593999997E+02  0.45594000000E+02  0.51100000000E-03 0.  1.
         11   -1    0    0    0    0 -0.00000000000E+00 -0.00000000000E+00 -0.45593999997E+02  0.45594000000E+02  0.51100000000E-03 0. -1.
    9900012    2    1    2    0    0  0.21395834188E+02 -0.76559950230E+01  0.22367904042E+02  0.59301966825E+02  0.50000041577E+02 0.  0.
         12    1    1    2    0    0 -0.21395834188E+02  0.76559950230E+01 -0.22367904042E+02  0.31886033175E+02  0.00000000000E+00 0. -1.
         11    1    3    3    0    0  0.30062683390E+01  0.13951712356E+02  0.11858301041E+02  0.18555517531E+02  0.51100000000E-03 0. -1.
        -11    1    3    3    0    0  0.23190955426E+02 -0.22318710997E+02  0.37200394081E+01  0.32400369868E+02  0.51100000000E-03 0.  1.
        -12    1    3    3    0    0 -0.48013895764E+01  0.71100361876E+00  0.67895635926E+01  0.83460794262E+01  0.00000000000E+00 0.  1.
</event>
<event>
 7    1  0.4346085E-013  0.5930194E+02  0.7816164E-02  0.1266605E+00
        -11   -1    0    0    0    0  0.00000000000E+00  0.00000000000E+00  0.45593999997E+02  0.45594000000E+02  0.51100000000E-03 0. -1.
         11   -1    0    0    0    0 -0.00000000000E+00 -0.00000000000E+00 -0.45593999997E+02  0.45594000000E+02  0.51100000000E-03 0.  1.
    9900012    2    1    2    0    0 -0.24638286663E+02 -0.17564162817E+02 -0.10058611189E+02  0.59301942793E+02  0.49999997747E+02 0.  0.
         12    1    1    2    0    0  0.24638286663E+02  0.17564162817E+02  0.10058611189E+02  0.31886057207E+02  0.00000000000E+00 0. -1.
         11    1    3    3    0    0 -0.13848880327E+02 -0.16335122234E+02  0.11608400216E+02  0.24359447050E+02  0.51100000000E-03 0.  1.
        -11    1    3    3    0    0 -0.57439490668E+01 -0.95155679043E+01 -0.22610802996E+02  0.25194987514E+02  0.51100000000E-03 0. -1.
         12    1    3    3    0    0 -0.50454572697E+01  0.82865273213E+01  0.94379159110E+00  0.97475082290E+01  0.00000000000E+00 0. -1.
</event>
<event>
 7    1  0.4346085E-013  0.5930194E+02  0.7816164E-02  0.1266605E+00
        -11   -1    0    0    0    0  0.00000000000E+00  0.00000000000E+00  0.45593999997E+02  0.45594000000E+02  0.51100000000E-03 0. -1.
         11   -1    0    0    0    0 -0.00000000000E+00 -0.00000000000E+00 -0.45593999997E+02  0.45594000000E+02  0.51100000000E-03 0.  1.
    9900012    2    1    2    0    0 -0.15275544770E+02 -0.27126135710E+00 -0.27987583682E+02  0.59301942058E+02  0.49999996407E+02 0.  0.
         12    1    1    2    0    0  0.15275544770E+02  0.27126135710E+00  0.27987583682E+02  0.31886057942E+02  0.00000000000E+00 0. -1.
         11    1    3    3    0    0 -0.23585555233E+02  0.22851844874E+01 -0.60482185665E+01  0.24455703463E+02  0.51100000000E-03 0. -1.
        -11    1    3    3    0    0  0.51867817663E+01 -0.13906229287E+02 -0.90189850712E+01  0.17367441091E+02  0.51100000000E-03 0.  1.
        -12    1    3    3    0    0  0.31232286968E+01  0.11349783443E+02 -0.12920380044E+02  0.17478797504E+02  0.00000000000E+00 0.  1.
</event>
<event>
 7    1  0.4346085E-013  0.5930211E+02  0.7816164E-02  0.1266604E+00
        -11   -1    0    0    0    0  0.00000000000E+00  0.00000000000E+00  0.45593999997E+02  0.45594000000E+02  0.51100000000E-03 0. -1.
         11   -1    0    0    0    0 -0.00000000000E+00 -0.00000000000E+00 -0.45593999997E+02  0.45594000000E+02  0.51100000000E-03 0.  1.
    9900012    2    1    2    0    0 -0.25990548791E+02  0.91663233541E+01 -0.16036827019E+02  0.59302110784E+02  0.50000304122E+02 0.  0.
         12    1    1    2    0    0  0.25990548791E+02 -0.91663233541E+01  0.16036827019E+02  0.31885889216E+02  0.00000000000E+00 0. -1.
         11    1    3    3    0    0  0.99543075608E-01  0.81207518223E+01  0.15417377847E+02  0.17425615023E+02  0.51100000000E-03 0. -1.
        -11    1    3    3    0    0 -0.10109238830E+02 -0.34455226854E+01 -0.15717876796E+02  0.19003157304E+02  0.51100000000E-03 0.  1.
         12    1    3    3    0    0 -0.15980853036E+02  0.44910942172E+01 -0.15736328070E+02  0.22873338457E+02  0.00000000000E+00 0. -1.
</event>
<event>
 7    1  0.4346085E-013  0.5930196E+02  0.7816164E-02  0.1266605E+00
        -11   -1    0    0    0    0  0.00000000000E+00  0.00000000000E+00  0.45593999997E+02  0.45594000000E+02  0.51100000000E-03 0. -1.
         11   -1    0    0    0    0 -0.00000000000E+00 -0.00000000000E+00 -0.45593999997E+02  0.45594000000E+02  0.51100000000E-03 0.  1.
    9900012    2    1    2    0    0 -0.19014804692E+02 -0.20280800582E+02 -0.15615558688E+02  0.59301963199E+02  0.50000034964E+02 0.  0.
         12    1    1    2    0    0  0.19014804692E+02  0.20280800582E+02  0.15615558688E+02  0.31886036801E+02  0.00000000000E+00 0. -1.
         11    1    3    3    0    0 -0.30012239900E+01 -0.15811706165E+02  0.94829661814E+01  0.18680044035E+02  0.51100000000E-03 0. -1.
        -11    1    3    3    0    0 -0.18068066764E+02  0.54310639406E+01 -0.74542698756E+01  0.20285897361E+02  0.51100000000E-03 0.  1.
        -12    1    3    3    0    0  0.20544860615E+01 -0.99001583573E+01 -0.17644254994E+02  0.20336021803E+02  0.00000000000E+00 0.  1.
</event>
<event>
 7    1  0.4346085E-013  0.5930200E+02  0.7816164E-02  0.1266605E+00
        -11   -1    0    0    0    0  0.00000000000E+00  0.00000000000E+00  0.45593999997E+02  0.45594000000E+02  0.51100000000E-03 0. -1.
         11   -1    0    0    0    0 -0.00000000000E+00 -0.00000000000E+00 -0.45593999997E+02  0.45594000000E+02  0.51100000000E-03 0.  1.
    9900012    2    1    2    0    0 -0.25406521449E+02  0.16229520053E+02 -0.10384056806E+02  0.59301995405E+02  0.50000093699E+02 0.  0.
         12    1    1    2    0    0  0.25406521449E+02 -0.16229520053E+02  0.10384056806E+02  0.31886004595E+02  0.00000000000E+00 0. -1.
         11    1    3    3    0    0  0.53207026570E+00  0.25398796265E+02 -0.18885538229E+01  0.25474469303E+02  0.51100000000E-03 0. -1.
        -11    1    3    3    0    0 -0.13553965683E+02 -0.12468387035E+02 -0.99434577420E+01  0.20929477134E+02  0.51100000000E-03 0.  1.
         12    1    3    3    0    0 -0.12384626032E+02  0.32991108232E+01  0.14479547593E+01  0.12898048967E+02  0.00000000000E+00 0. -1.
</event>
<event>
 7    1  0.4346085E-013  0.5930195E+02  0.7816164E-02  0.1266605E+00
        -11   -1    0    0    0    0  0.00000000000E+00  0.00000000000E+00  0.45593999997E+02  0.45594000000E+02  0.51100000000E-03 0.  1.
         11   -1    0    0    0    0 -0.00000000000E+00 -0.00000000000E+00 -0.45593999997E+02  0.45594000000E+02  0.51100000000E-03 0. -1.
    9900012    2    1    2    0    0 -0.31500150626E+02  0.22445337858E+01  0.44071478719E+01  0.59301947034E+02  0.50000005483E+02 0.  0.
         12    1    1    2    0    0  0.31500150626E+02 -0.22445337858E+01 -0.44071478719E+01  0.31886052966E+02  0.00000000000E+00 0. -1.
         11    1    3    3    0    0 -0.59511956309E+01 -0.11041672701E+02 -0.10347909186E+02  0.16260826863E+02  0.51100000000E-03 0. -1.
        -11    1    3    3    0    0 -0.56863150026E+01  0.16389441085E+02 -0.11801477759E+01  0.17387947160E+02  0.51100000000E-03 0.  1.
         12    1    3    3    0    0 -0.19862639993E+02 -0.31032345986E+01  0.15935204834E+02  0.25653173011E+02  0.00000000000E+00 0. -1.
</event>
<event>
 7    1  0.4346085E-013  0.5930183E+02  0.7816164E-02  0.1266605E+00
        -11   -1    0    0    0    0  0.00000000000E+00  0.00000000000E+00  0.45593999997E+02  0.45594000000E+02  0.51100000000E-03 0.  1.
         11   -1    0    0    0    0 -0.00000000000E+00 -0.00000000000E+00 -0.45593999997E+02  0.45594000000E+02  0.51100000000E-03 0. -1.
    9900012    2    1    2    0    0  0.19575986767E+02  0.40641684565E+01  0.24839306634E+02  0.59301829374E+02  0.49999790898E+02 0.  0.
         12    1    1    2    0    0 -0.19575986767E+02 -0.40641684565E+01 -0.24839306634E+02  0.31886170626E+02  0.00000000000E+00 0. -1.
         11    1    3    3    0    0  0.27506148841E+02 -0.17091224356E+01  0.14519177250E+02  0.31149892967E+02  0.51100000000E-03 0. -1.
        -11    1    3    3    0    0 -0.13532224081E+01  0.13990400429E+02  0.10629388859E+02  0.17622327395E+02  0.51100000000E-03 0.  1.
         12    1    3    3    0    0 -0.65769396666E+01 -0.82171095368E+01 -0.30925947448E+00  0.10529609012E+02  0.00000000000E+00 0. -1.
</event>
<event>
 7    1  0.4346085E-013  0.5930196E+02  0.7816164E-02  0.1266605E+00
        -11   -1    0    0    0    0  0.00000000000E+00  0.00000000000E+00  0.45593999997E+02  0.45594000000E+02  0.51100000000E-03 0.  1.
         11   -1    0    0    0    0 -0.00000000000E+00 -0.00000000000E+00 -0.45593999997E+02  0.45594000000E+02  0.51100000000E-03 0. -1.
    9900012    2    1    2    0    0 -0.31280706332E+02  0.58199634329E+01  0.20892732766E+01  0.59301958762E+02  0.50000026872E+02 0.  0.
         12    1    1    2    0    0  0.31280706332E+02 -0.58199634329E+01 -0.20892732766E+01  0.31886041238E+02  0.00000000000E+00 0. -1.
         11    1    3    3    0    0 -0.10665488181E+02 -0.10415806216E+02 -0.83894778100E+01  0.17106285262E+02  0.51100000000E-03 0. -1.
        -11    1    3    3    0    0 -0.27978204271E+02  0.11348959780E+02  0.13196121025E+02  0.32950211117E+02  0.51100000000E-03 0.  1.
         12    1    3    3    0    0  0.73629861197E+01  0.48868098695E+01 -0.27173699382E+01  0.92454623833E+01  0.00000000000E+00 0. -1.
</event>
<event>
 7    1  0.4346085E-013  0.5930195E+02  0.7816164E-02  0.1266605E+00
        -11   -1    0    0    0    0  0.00000000000E+00  0.00000000000E+00  0.45593999997E+02  0.45594000000E+02  0.51100000000E-03 0.  1.
         11   -1    0    0    0    0 -0.00000000000E+00 -0.00000000000E+00 -0.45593999997E+02  0.45594000000E+02  0.51100000000E-03 0. -1.
    9900012    2    1    2    0    0 -0.46717311137E+01  0.31497348886E+02  0.16769779413E+01  0.59301947980E+02  0.50000007207E+02 0.  0.
         12    1    1    2    0    0  0.46717311137E+01 -0.31497348886E+02 -0.16769779413E+01  0.31886052020E+02  0.00000000000E+00 0. -1.
         11    1    3    3    0    0  0.18083527539E+02  0.29092618387E+01  0.81868867211E+01  0.20062474601E+02  0.51100000000E-03 0. -1.
        -11    1    3    3    0    0 -0.97477552265E+01  0.40975280693E+01  0.66794721618E+00  0.10595028173E+02  0.51100000000E-03 0.  1.
         12    1    3    3    0    0 -0.13007503426E+02  0.24490558978E+02 -0.71778559960E+01  0.28644445205E+02  0.00000000000E+00 0. -1.
</event>
<event>
 7    1  0.4346085E-013  0.5930193E+02  0.7816164E-02  0.1266605E+00
        -11   -1    0    0    0    0  0.00000000000E+00  0.00000000000E+00  0.45593999997E+02  0.45594000000E+02  0.51100000000E-03 0.  1.
         11   -1    0    0    0    0 -0.00000000000E+00 -0.00000000000E+00 -0.45593999997E+02  0.45594000000E+02  0.51100000000E-03 0. -1.
    9900012    2    1    2    0    0  0.16070853559E+02 -0.25930056586E+01  0.27417612421E+02  0.59301929635E+02  0.49999973750E+02 0.  0.
         12    1    1    2    0    0 -0.16070853559E+02  0.25930056586E+01 -0.27417612421E+02  0.31886070365E+02  0.00000000000E+00 0. -1.
         11    1    3    3    0    0  0.12259850559E+02  0.19165734547E+02  0.26938265849E+02  0.35260452120E+02  0.51100000000E-03 0. -1.
        -11    1    3    3    0    0  0.38493514408E+00 -0.12057162460E+02  0.46650125522E+01  0.12933896707E+02  0.51100000000E-03 0.  1.
         12    1    3    3    0    0  0.34260678559E+01 -0.97015777455E+01 -0.41856659805E+01  0.11107580808E+02  0.00000000000E+00 0. -1.
</event>
<event>
 7    1  0.4346085E-013  0.5930194E+02  0.7816164E-02  0.1266605E+00
        -11   -1    0    0    0    0  0.00000000000E+00  0.00000000000E+00  0.45593999997E+02  0.45594000000E+02  0.51100000000E-03 0. -1.
         11   -1    0    0    0    0 -0.00000000000E+00 -0.00000000000E+00 -0.45593999997E+02  0.45594000000E+02  0.51100000000E-03 0.  1.
    9900012    2    1    2    0    0 -0.29144231066E+02 -0.12359589076E+02 -0.38177858794E+01  0.59301935088E+02  0.49999983696E+02 0.  0.
         12    1    1    2    0    0  0.29144231066E+02  0.12359589076E+02  0.38177858794E+01  0.31886064912E+02  0.00000000000E+00 0. -1.
         11    1    3    3    0    0 -0.11352629508E+02  0.13480273473E+01  0.10351363214E+02  0.15422389410E+02  0.51100000000E-03 0. -1.
        -11    1    3    3    0    0 -0.10176326909E+02 -0.25101306663E+02 -0.13227265214E+02  0.30142889225E+02  0.51100000000E-03 0.  1.
        -12    1    3    3    0    0 -0.76152746489E+01  0.11393690239E+02 -0.94188387991E+00  0.13736656452E+02  0.00000000000E+00 0.  1.
</event>
<event>
 7    1  0.4346085E-013  0.5930195E+02  0.7816164E-02  0.1266605E+00
        -11   -1    0    0    0    0  0.00000000000E+00  0.00000000000E+00  0.45593999997E+02  0.45594000000E+02  0.51100000000E-03 0. -1.
         11   -1    0    0    0    0 -0.00000000000E+00 -0.00000000000E+00 -0.45593999997E+02  0.45594000000E+02  0.51100000000E-03 0.  1.
    9900012    2    1    2    0    0  0.95068755030E+01  0.30089282887E+02 -0.45797841546E+01  0.59301952120E+02  0.50000014759E+02 0.  0.
         12    1    1    2    0    0 -0.95068755030E+01 -0.30089282887E+02  0.45797841546E+01  0.31886047880E+02  0.00000000000E+00 0. -1.
         11    1    3    3    0    0 -0.45567730205E+01  0.66787205577E+01  0.15888869774E+02  0.17827665905E+02  0.51100000000E-03 0. -1.
        -11    1    3    3    0    0  0.89220740198E+01  0.27672804832E+02 -0.18684692111E+02  0.34561615292E+02  0.51100000000E-03 0.  1.
        -12    1    3    3    0    0  0.51415745036E+01 -0.42622425026E+01 -0.17839618180E+01  0.69126709234E+01  0.00000000000E+00 0.  1.
</event>
<event>
 7    1  0.4346085E-013  0.5930180E+02  0.7816164E-02  0.1266605E+00
        -11   -1    0    0    0    0  0.00000000000E+00  0.00000000000E+00  0.45593999997E+02  0.45594000000E+02  0.51100000000E-03 0. -1.
         11   -1    0    0    0    0 -0.00000000000E+00 -0.00000000000E+00 -0.45593999997E+02  0.45594000000E+02  0.51100000000E-03 0.  1.
    9900012    2    1    2    0    0 -0.26043605576E+02  0.14748963350E+02 -0.10996752264E+02  0.59301798099E+02  0.49999733861E+02 0.  0.
         12    1    1    2    0    0  0.26043605576E+02 -0.14748963350E+02  0.10996752264E+02  0.31886201901E+02  0.00000000000E+00 0. -1.
         11    1    3    3    0    0 -0.70542403170E+00  0.55128352440E+01  0.86548141185E+01  0.10285659103E+02  0.51100000000E-03 0. -1.
        -11    1    3    3    0    0 -0.33872611565E+02  0.23915300784E+01 -0.15241418134E+02  0.37220613340E+02  0.51100000000E-03 0.  1.
        -12    1    3    3    0    0  0.85344300213E+01  0.68445980276E+01 -0.44101482483E+01  0.11795525657E+02  0.00000000000E+00 0.  1.
</event>
<event>
 7    1  0.4346085E-013  0.5930194E+02  0.7816164E-02  0.1266605E+00
        -11   -1    0    0    0    0  0.00000000000E+00  0.00000000000E+00  0.45593999997E+02  0.45594000000E+02  0.51100000000E-03 0.  1.
         11   -1    0    0    0    0 -0.00000000000E+00 -0.00000000000E+00 -0.45593999997E+02  0.45594000000E+02  0.51100000000E-03 0. -1.
    9900012    2    1    2    0    0  0.15599358776E+02 -0.19053804660E+01  0.27744376133E+02  0.59301939159E+02  0.49999991121E+02 0.  0.
         12    1    1    2    0    0 -0.15599358776E+02  0.19053804660E+01 -0.27744376133E+02  0.31886060841E+02  0.00000000000E+00 0. -1.
         11    1    3    3    0    0  0.89643695026E+01  0.71791928218E+01 -0.61107927003E+01  0.13009324265E+02  0.51100000000E-03 0. -1.
        -11    1    3    3    0    0 -0.60693588372E+01 -0.14748582035E+02  0.25468963476E+02  0.30050389175E+02  0.51100000000E-03 0.  1.
        -12    1    3    3    0    0  0.12704348111E+02  0.56640087474E+01  0.83862053570E+01  0.16242225719E+02  0.00000000000E+00 0.  1.
</event>
<event>
 7    1  0.4346085E-013  0.5930180E+02  0.7816164E-02  0.1266605E+00
        -11   -1    0    0    0    0  0.00000000000E+00  0.00000000000E+00  0.45593999997E+02  0.45594000000E+02  0.51100000000E-03 0.  1.
         11   -1    0    0    0    0 -0.00000000000E+00 -0.00000000000E+00 -0.45593999997E+02  0.45594000000E+02  0.51100000000E-03 0. -1.
    9900012    2    1    2    0    0  0.19848483756E+02  0.17011292415E+01  0.24897267198E+02  0.59301795113E+02  0.49999728415E+02 0.  0.
         12    1    1    2    0    0 -0.19848483756E+02 -0.17011292415E+01 -0.24897267198E+02  0.31886204887E+02  0.00000000000E+00 0. -1.
         11    1    3    3    0    0 -0.11657332435E+02  0.23786584255E+01  0.30625743211E+01  0.12285388766E+02  0.51100000000E-03 0. -1.
        -11    1    3    3    0    0  0.28980429412E+02  0.30756133679E+01  0.49804999493E+01  0.29565690699E+02  0.51100000000E-03 0.  1.
        -12    1    3    3    0    0  0.25253867791E+01 -0.37531425519E+01  0.16854192928E+02  0.17450715649E+02  0.00000000000E+00 0.  1.
</event>
<event>
 7    1  0.4346085E-013  0.5930195E+02  0.7816164E-02  0.1266605E+00
        -11   -1    0    0    0    0  0.00000000000E+00  0.00000000000E+00  0.45593999997E+02  0.45594000000E+02  0.51100000000E-03 0.  1.
         11   -1    0    0    0    0 -0.00000000000E+00 -0.00000000000E+00 -0.45593999997E+02  0.45594000000E+02  0.51100000000E-03 0. -1.
    9900012    2    1    2    0    0  0.54209943645E+00 -0.12654994758E+02  0.29262214025E+02  0.59301953933E+02  0.50000018065E+02 0.  0.
         12    1    1    2    0    0 -0.54209943645E+00  0.12654994758E+02 -0.29262214025E+02  0.31886046067E+02  0.00000000000E+00 0. -1.
         11    1    3    3    0    0 -0.82468054618E+01 -0.44324843407E+01  0.29087183988E+02  0.30556848502E+02  0.51100000000E-03 0.  1.
        -11    1    3    3    0    0  0.44857677672E+00  0.56367611414E+01 -0.86383995011E+01  0.10324545680E+02  0.51100000000E-03 0. -1.
        -12    1    3    3    0    0  0.83403281216E+01 -0.13859271559E+02  0.88134295386E+01  0.18420559751E+02  0.00000000000E+00 0.  1.
</event>
<event>
 7    1  0.4346085E-013  0.5930192E+02  0.7816164E-02  0.1266605E+00
        -11   -1    0    0    0    0  0.00000000000E+00  0.00000000000E+00  0.45593999997E+02  0.45594000000E+02  0.51100000000E-03 0.  1.
         11   -1    0    0    0    0 -0.00000000000E+00 -0.00000000000E+00 -0.45593999997E+02  0.45594000000E+02  0.51100000000E-03 0. -1.
    9900012    2    1    2    0    0  0.80318702975E+01  0.25417828000E+01  0.30753054575E+02  0.59301922067E+02  0.49999959949E+02 0.  0.
         12    1    1    2    0    0 -0.80318702975E+01 -0.25417828000E+01 -0.30753054575E+02  0.31886077933E+02  0.00000000000E+00 0. -1.
         11    1    3    3    0    0  0.21027350099E+02 -0.52118742205E+01  0.10914573752E+02  0.24257802982E+02  0.51100000000E-03 0. -1.
        -11    1    3    3    0    0  0.38712434863E+01  0.11040815607E+02  0.83316845135E+01  0.14363255289E+02  0.51100000000E-03 0.  1.
         12    1    3    3    0    0 -0.16866723288E+02 -0.32871585865E+01  0.11506796309E+02  0.20680863796E+02  0.00000000000E+00 0. -1.
</event>
<event>
 7    1  0.4346085E-013  0.5930190E+02  0.7816164E-02  0.1266605E+00
        -11   -1    0    0    0    0  0.00000000000E+00  0.00000000000E+00  0.45593999997E+02  0.45594000000E+02  0.51100000000E-03 0. -1.
         11   -1    0    0    0    0 -0.00000000000E+00 -0.00000000000E+00 -0.45593999997E+02  0.45594000000E+02  0.51100000000E-03 0.  1.
    9900012    2    1    2    0    0  0.22537388994E+02  0.13619482875E+02 -0.17980526127E+02  0.59301897443E+02  0.49999915041E+02 0.  0.
         12    1    1    2    0    0 -0.22537388994E+02 -0.13619482875E+02  0.17980526127E+02  0.31886102557E+02  0.00000000000E+00 0. -1.
         11    1    3    3    0    0  0.28599901127E+02 -0.73269133197E+01 -0.13127252416E+02  0.32310412556E+02  0.51100000000E-03 0. -1.
        -11    1    3    3    0    0  0.30795599083E+00  0.19786142059E+02 -0.53446632388E+01  0.20497601808E+02  0.51100000000E-03 0.  1.
        -12    1    3    3    0    0 -0.63704681242E+01  0.11602541357E+01  0.49138952812E+00  0.64938830794E+01  0.00000000000E+00 0.  1.
</event>
<event>
 7    1  0.4346085E-013  0.5930195E+02  0.7816164E-02  0.1266605E+00
        -11   -1    0    0    0    0  0.00000000000E+00  0.00000000000E+00  0.45593999997E+02  0.45594000000E+02  0.51100000000E-03 0. -1.
         11   -1    0    0    0    0 -0.00000000000E+00 -0.00000000000E+00 -0.45593999997E+02  0.45594000000E+02  0.51100000000E-03 0.  1.
    9900012    2    1    2    0    0 -0.73040136003E+01  0.25935170290E+02 -0.17051049330E+02  0.59301953586E+02  0.50000017432E+02 0.  0.
         12    1    1    2    0    0  0.73040136003E+01 -0.25935170290E+02  0.17051049330E+02  0.31886046414E+02  0.00000000000E+00 0. -1.
         11    1    3    3    0    0  0.16019916348E+02 -0.25396945293E+01 -0.88221594754E+01  0.18463972112E+02  0.51100000000E-03 0. -1.
        -11    1    3    3    0    0 -0.13102770805E+02  0.68113408849E+01 -0.81853662781E+01  0.16884228996E+02  0.51100000000E-03 0.  1.
         12    1    3    3    0    0 -0.10221159143E+02  0.21663523934E+02 -0.43523576798E-01  0.23953752478E+02  0.00000000000E+00 0. -1.
</event>
<event>
 7    1  0.4346085E-013  0.5930192E+02  0.7816164E-02  0.1266605E+00
        -11   -1    0    0    0    0  0.00000000000E+00  0.00000000000E+00  0.45593999997E+02  0.45594000000E+02  0.51100000000E-03 0. -1.
         11   -1    0    0    0    0 -0.00000000000E+00 -0.00000000000E+00 -0.45593999997E+02  0.45594000000E+02  0.51100000000E-03 0.  1.
    9900012    2    1    2    0    0 -0.13424388478E+02 -0.16638737691E+02 -0.23657135933E+02  0.59301923438E+02  0.49999962449E+02 0.  0.
         12    1    1    2    0    0  0.13424388478E+02  0.16638737691E+02  0.23657135933E+02  0.31886076562E+02  0.00000000000E+00 0. -1.
         11    1    3    3    0    0 -0.19756555260E+02  0.34516040274E+01  0.49369392322E+01  0.20654501091E+02  0.51100000000E-03 0. -1.
        -11    1    3    3    0    0  0.72275337142E+01 -0.15848874918E+02 -0.11171457022E+02  0.20693610898E+02  0.51100000000E-03 0.  1.
        -12    1    3    3    0    0 -0.89536693285E+00 -0.42414668011E+01 -0.17422618143E+02  0.17953811449E+02  0.00000000000E+00 0.  1.
</event>
<event>
 7    1  0.4346085E-013  0.5930198E+02  0.7816164E-02  0.1266605E+00
        -11   -1    0    0    0    0  0.00000000000E+00  0.00000000000E+00  0.45593999997E+02  0.45594000000E+02  0.51100000000E-03 0. -1.
         11   -1    0    0    0    0 -0.00000000000E+00 -0.00000000000E+00 -0.45593999997E+02  0.45594000000E+02  0.51100000000E-03 0.  1.
    9900012    2    1    2    0    0 -0.30518785525E+02  0.64141507149E+01  0.66468457360E+01  0.59301981785E+02  0.50000068861E+02 0.  0.
         12    1    1    2    0    0  0.30518785525E+02 -0.64141507149E+01 -0.66468457360E+01  0.31886018215E+02  0.00000000000E+00 0. -1.
         11    1    3    3    0    0  0.43152588261E+01  0.27003634462E+01  0.75199035552E+01  0.90808794298E+01  0.51100000000E-03 0. -1.
        -11    1    3    3    0    0 -0.18434777053E+02  0.12496775299E+01 -0.18411280120E+02  0.26084055184E+02  0.51100000000E-03 0.  1.
        -12    1    3    3    0    0 -0.16399267299E+02  0.24641097387E+01  0.17538222300E+02  0.24137047172E+02  0.00000000000E+00 0.  1.
</event>
<event>
 7    1  0.4346085E-013  0.5930194E+02  0.7816164E-02  0.1266605E+00
        -11   -1    0    0    0    0  0.00000000000E+00  0.00000000000E+00  0.45593999997E+02  0.45594000000E+02  0.51100000000E-03 0.  1.
         11   -1    0    0    0    0 -0.00000000000E+00 -0.00000000000E+00 -0.45593999997E+02  0.45594000000E+02  0.51100000000E-03 0. -1.
    9900012    2    1    2    0    0  0.20912658288E+01  0.30320380348E+02  0.96447912524E+01  0.59301939480E+02  0.49999991706E+02 0.  0.
         12    1    1    2    0    0 -0.20912658288E+01 -0.30320380348E+02 -0.96447912524E+01  0.31886060520E+02  0.00000000000E+00 0. -1.
         11    1    3    3    0    0  0.66233797921E+01 -0.12462246501E+02  0.30722025679E+01  0.14443516767E+02  0.51100000000E-03 0. -1.
        -11    1    3    3    0    0  0.26789234667E+01  0.25587098857E+02  0.39616547903E+01  0.26030193388E+02  0.51100000000E-03 0.  1.
         12    1    3    3    0    0 -0.72110374300E+01  0.17195527991E+02  0.26109338942E+01  0.18828229325E+02  0.00000000000E+00 0. -1.
</event>
<event>
 7    1  0.4346085E-013  0.5930194E+02  0.7816164E-02  0.1266605E+00
        -11   -1    0    0    0    0  0.00000000000E+00  0.00000000000E+00  0.45593999997E+02  0.45594000000E+02  0.51100000000E-03 0.  1.
         11   -1    0    0    0    0 -0.00000000000E+00 -0.00000000000E+00 -0.45593999997E+02  0.45594000000E+02  0.51100000000E-03 0. -1.
    9900012    2    1    2    0    0  0.24771256529E+02 -0.19616599432E+02  0.42772154729E+01  0.59301941989E+02  0.49999996281E+02 0.  0.
         12    1    1    2    0    0 -0.24771256529E+02  0.19616599432E+02 -0.42772154729E+01  0.31886058011E+02  0.00000000000E+00 0. -1.
         11    1    3    3    0    0  0.31658561038E+01 -0.10475736592E+02 -0.13471409922E+02  0.17356341422E+02  0.51100000000E-03 0. -1.
        -11    1    3    3    0    0  0.14170737606E+00  0.88686183309E+01  0.88950824260E+01  0.12561646536E+02  0.51100000000E-03 0.  1.
        -12    1    3    3    0    0  0.21463693049E+02 -0.18009481172E+02  0.88535429684E+01  0.29383954031E+02  0.00000000000E+00 0.  1.
</event>
<event>
 7    1  0.4346085E-013  0.5930187E+02  0.7816164E-02  0.1266605E+00
        -11   -1    0    0    0    0  0.00000000000E+00  0.00000000000E+00  0.45593999997E+02  0.45594000000E+02  0.51100000000E-03 0.  1.
         11   -1    0    0    0    0 -0.00000000000E+00 -0.00000000000E+00 -0.45593999997E+02  0.45594000000E+02  0.51100000000E-03 0. -1.
    9900012    2    1    2    0    0  0.93581443762E+01  0.25899521946E+02 -0.16073746525E+02  0.59301867740E+02  0.49999860869E+02 0.  0.
         12    1    1    2    0    0 -0.93581443762E+01 -0.25899521946E+02  0.16073746525E+02  0.31886132260E+02  0.00000000000E+00 0. -1.
         11    1    3    3    0    0 -0.36151992397E+00  0.17571868343E+02 -0.22307091374E+02  0.28399077090E+02  0.51100000000E-03 0. -1.
        -11    1    3    3    0    0  0.98912923502E+01  0.12214008859E+02  0.14740949738E+02  0.21547976151E+02  0.51100000000E-03 0.  1.
         12    1    3    3    0    0 -0.17162805001E+00 -0.38863552557E+01 -0.85076048889E+01  0.93548144988E+01  0.00000000000E+00 0. -1.
</event>
<event>
 7    1  0.4346085E-013  0.5930195E+02  0.7816164E-02  0.1266605E+00
        -11   -1    0    0    0    0  0.00000000000E+00  0.00000000000E+00  0.45593999997E+02  0.45594000000E+02  0.51100000000E-03 0. -1.
         11   -1    0    0    0    0 -0.00000000000E+00 -0.00000000000E+00 -0.45593999997E+02  0.45594000000E+02  0.51100000000E-03 0.  1.
    9900012    2    1    2    0    0  0.15686067180E+02  0.21221626508E+02  0.17897200701E+02  0.59301954022E+02  0.50000018226E+02 0.  0.
         12    1    1    2    0    0 -0.15686067180E+02 -0.21221626508E+02 -0.17897200701E+02  0.31886045978E+02  0.00000000000E+00 0. -1.
         11    1    3    3    0    0 -0.82480941474E+01  0.14076217039E+01  0.16064142062E+02  0.18112678333E+02  0.51100000000E-03 0. -1.
        -11    1    3    3    0    0  0.27056092704E+02  0.70388959674E+01  0.21004746470E+01  0.28035516811E+02  0.51100000000E-03 0.  1.
         12    1    3    3    0    0 -0.31219313765E+01  0.12775108836E+02 -0.26741600821E+00  0.13153758878E+02  0.00000000000E+00 0. -1.
</event>
<event>
 7    1  0.4346085E-013  0.5930196E+02  0.7816164E-02  0.1266605E+00
        -11   -1    0    0    0    0  0.00000000000E+00  0.00000000000E+00  0.45593999997E+02  0.45594000000E+02  0.51100000000E-03 0.  1.
         11   -1    0    0    0    0 -0.00000000000E+00 -0.00000000000E+00 -0.45593999997E+02  0.45594000000E+02  0.51100000000E-03 0. -1.
    9900012    2    1    2    0    0  0.40355786005E+01 -0.27885285998E+02  0.14927985825E+02  0.59301955551E+02  0.50000021015E+02 0.  0.
         12    1    1    2    0    0 -0.40355786005E+01  0.27885285998E+02 -0.14927985825E+02  0.31886044449E+02  0.00000000000E+00 0. -1.
         11    1    3    3    0    0 -0.49117804357E+01  0.13259210421E+02  0.19576391340E+01  0.14274613805E+02  0.51100000000E-03 0. -1.
        -11    1    3    3    0    0  0.16058744998E+01 -0.16997455132E+02  0.95376646022E+01  0.19556568212E+02  0.51100000000E-03 0.  1.
         12    1    3    3    0    0  0.73414845363E+01 -0.24147041287E+02  0.34326820891E+01  0.25470773534E+02  0.00000000000E+00 0. -1.
</event>
<event>
 7    1  0.4346085E-013  0.5930203E+02  0.7816164E-02  0.1266604E+00
        -11   -1    0    0    0    0  0.00000000000E+00  0.00000000000E+00  0.45593999997E+02  0.45594000000E+02  0.51100000000E-03 0. -1.
         11   -1    0    0    0    0 -0.00000000000E+00 -0.00000000000E+00 -0.45593999997E+02  0.45594000000E+02  0.51100000000E-03 0.  1.
    9900012    2    1    2    0    0 -0.98924750582E+00 -0.23970688255E+02 -0.21003392451E+02  0.59302031292E+02  0.50000159148E+02 0.  0.
         12    1    1    2    0    0  0.98924750582E+00  0.23970688255E+02  0.21003392451E+02  0.31885968708E+02  0.00000000000E+00 0. -1.
         11    1    3    3    0    0  0.83183391307E+01  0.47076962318E+01 -0.24658137903E+01  0.98710388315E+01  0.51100000000E-03 0. -1.
        -11    1    3    3    0    0 -0.13244413910E+02 -0.31764769135E+02 -0.47221552829E+01  0.34737786470E+02  0.51100000000E-03 0.  1.
         12    1    3    3    0    0  0.39368272737E+01  0.30863846483E+01 -0.13815423377E+02  0.14693205990E+02  0.00000000000E+00 0. -1.
</event>
<event>
 7    1  0.4346085E-013  0.5930187E+02  0.7816164E-02  0.1266605E+00
        -11   -1    0    0    0    0  0.00000000000E+00  0.00000000000E+00  0.45593999997E+02  0.45594000000E+02  0.51100000000E-03 0. -1.
         11   -1    0    0    0    0 -0.00000000000E+00 -0.00000000000E+00 -0.45593999997E+02  0.45594000000E+02  0.51100000000E-03 0.  1.
    9900012    2    1    2    0    0 -0.85775076981E+01  0.30450886475E+02  0.39868761020E+01  0.59301869685E+02  0.49999864417E+02 0.  0.
         12    1    1    2    0    0  0.85775076981E+01 -0.30450886475E+02 -0.39868761020E+01  0.31886130315E+02  0.00000000000E+00 0. -1.
         11    1    3    3    0    0 -0.22489967390E+02  0.14292914805E+02 -0.97558780467E+01  0.28377159892E+02  0.51100000000E-03 0. -1.
        -11    1    3    3    0    0  0.11692358122E+02  0.20002709648E+02  0.10562090975E+02  0.25463255835E+02  0.51100000000E-03 0.  1.
        -12    1    3    3    0    0  0.22201015704E+01 -0.38447379781E+01  0.31806631735E+01  0.54614539572E+01  0.00000000000E+00 0.  1.
</event>
<event>
 7    1  0.4346085E-013  0.5930196E+02  0.7816164E-02  0.1266605E+00
        -11   -1    0    0    0    0  0.00000000000E+00  0.00000000000E+00  0.45593999997E+02  0.45594000000E+02  0.51100000000E-03 0.  1.
         11   -1    0    0    0    0 -0.00000000000E+00 -0.00000000000E+00 -0.45593999997E+02  0.45594000000E+02  0.51100000000E-03 0. -1.
    9900012    2    1    2    0    0  0.84097345821E+01 -0.30052388664E+02  0.65459955802E+01  0.59301956685E+02  0.50000023084E+02 0.  0.
         12    1    1    2    0    0 -0.84097345821E+01  0.30052388664E+02 -0.65459955802E+01  0.31886043315E+02  0.00000000000E+00 0. -1.
         11    1    3    3    0    0 -0.43881845831E+00  0.73785367623E+00 -0.53742170499E+00  0.10128237937E+01  0.51100000000E-03 0. -1.
        -11    1    3    3    0    0  0.19101301825E+02 -0.17021698525E+02  0.23350972325E+02  0.34639079965E+02  0.51100000000E-03 0.  1.
        -12    1    3    3    0    0 -0.10252748784E+02 -0.13768543815E+02 -0.16267555040E+02  0.23650052926E+02  0.00000000000E+00 0.  1.
</event>
<event>
 7    1  0.4346085E-013  0.5930193E+02  0.7816164E-02  0.1266605E+00
        -11   -1    0    0    0    0  0.00000000000E+00  0.00000000000E+00  0.45593999997E+02  0.45594000000E+02  0.51100000000E-03 0.  1.
         11   -1    0    0    0    0 -0.00000000000E+00 -0.00000000000E+00 -0.45593999997E+02  0.45594000000E+02  0.51100000000E-03 0. -1.
    9900012    2    1    2    0    0 -0.20967740088E+01 -0.70426956750E+01  0.31027813946E+02  0.59301933108E+02  0.49999980084E+02 0.  0.
         12    1    1    2    0    0  0.20967740088E+01  0.70426956750E+01 -0.31027813946E+02  0.31886066892E+02  0.00000000000E+00 0. -1.
         11    1    3    3    0    0 -0.77564442007E+01 -0.18805504110E+02  0.64035296964E+01  0.21326382822E+02  0.51100000000E-03 0. -1.
        -11    1    3    3    0    0 -0.75305086840E+01  0.75962687524E+01  0.21169051057E+02  0.23717937999E+02  0.51100000000E-03 0.  1.
        -12    1    3    3    0    0  0.13190178876E+02  0.41665396822E+01  0.34552331925E+01  0.14257612287E+02  0.00000000000E+00 0.  1.
</event>
<event>
 7    1  0.4346085E-013  0.5930204E+02  0.7816164E-02  0.1266604E+00
        -11   -1    0    0    0    0  0.00000000000E+00  0.00000000000E+00  0.45593999997E+02  0.45594000000E+02  0.51100000000E-03 0. -1.
         11   -1    0    0    0    0 -0.00000000000E+00 -0.00000000000E+00 -0.45593999997E+02  0.45594000000E+02  0.51100000000E-03 0.  1.
    9900012    2    1    2    0    0  0.26141674841E+02 -0.56445440056E+00 -0.18248527558E+02  0.59302038664E+02  0.50000172594E+02 0.  0.
         12    1    1    2    0    0 -0.26141674841E+02  0.56445440056E+00  0.18248527558E+02  0.31885961336E+02  0.00000000000E+00 0. -1.
         11    1    3    3    0    0  0.13091619068E+02  0.16262058109E+02  0.72895786552E+01  0.22112959572E+02  0.51100000000E-03 0. -1.
        -11    1    3    3    0    0  0.13274686506E+02 -0.10379753152E+02 -0.83013342770E+01  0.18784800461E+02  0.51100000000E-03 0.  1.
         12    1    3    3    0    0 -0.22463073314E+00 -0.64467593575E+01 -0.17236771936E+02  0.18404278631E+02  0.00000000000E+00 0. -1.
</event>
<event>
 7    1  0.4346085E-013  0.5930191E+02  0.7816164E-02  0.1266605E+00
        -11   -1    0    0    0    0  0.00000000000E+00  0.00000000000E+00  0.45593999997E+02  0.45594000000E+02  0.51100000000E-03 0.  1.
         11   -1    0    0    0    0 -0.00000000000E+00 -0.00000000000E+00 -0.45593999997E+02  0.45594000000E+02  0.51100000000E-03 0. -1.
    9900012    2    1    2    0    0 -0.27824316080E+01 -0.18605948796E+02  0.25744896718E+02  0.59301906428E+02  0.49999931428E+02 0.  0.
         12    1    1    2    0    0  0.27824316080E+01  0.18605948796E+02 -0.25744896718E+02  0.31886093572E+02  0.00000000000E+00 0. -1.
         11    1    3    3    0    0 -0.42355563732E+01 -0.18926522945E+01 -0.35772735276E+01  0.58582383573E+01  0.51100000000E-03 0. -1.
        -11    1    3    3    0    0  0.54753096695E+00  0.15703391877E+01  0.34404923358E+02  0.34445094089E+02  0.51100000000E-03 0.  1.
        -12    1    3    3    0    0  0.90559379826E+00 -0.18283635689E+02 -0.50827531121E+01  0.18998573982E+02  0.00000000000E+00 0.  1.
</event>
<event>
 7    1  0.4346085E-013  0.5930194E+02  0.7816164E-02  0.1266605E+00
        -11   -1    0    0    0    0  0.00000000000E+00  0.00000000000E+00  0.45593999997E+02  0.45594000000E+02  0.51100000000E-03 0.  1.
         11   -1    0    0    0    0 -0.00000000000E+00 -0.00000000000E+00 -0.45593999997E+02  0.45594000000E+02  0.51100000000E-03 0. -1.
    9900012    2    1    2    0    0  0.26720070291E+02 -0.64103898574E+01  0.16176087233E+02  0.59301936388E+02  0.49999986067E+02 0.  0.
         12    1    1    2    0    0 -0.26720070291E+02  0.64103898574E+01 -0.16176087233E+02  0.31886063612E+02  0.00000000000E+00 0. -1.
         11    1    3    3    0    0  0.25218148225E+01  0.12283041858E+02  0.95278380145E+01  0.15748408326E+02  0.51100000000E-03 0. -1.
        -11    1    3    3    0    0  0.31388695549E+02 -0.14052563869E+02  0.41622621862E+01  0.34641726088E+02  0.51100000000E-03 0.  1.
        -12    1    3    3    0    0 -0.71904400800E+01 -0.46408678466E+01  0.24859870323E+01  0.89118019748E+01  0.00000000000E+00 0.  1.
</event>
<event>
 7    1  0.4346085E-013  0.5930195E+02  0.7816164E-02  0.1266605E+00
        -11   -1    0    0    0    0  0.00000000000E+00  0.00000000000E+00  0.45593999997E+02  0.45594000000E+02  0.51100000000E-03 0.  1.
         11   -1    0    0    0    0 -0.00000000000E+00 -0.00000000000E+00 -0.45593999997E+02  0.45594000000E+02  0.51100000000E-03 0. -1.
    9900012    2    1    2    0    0 -0.91781432930E+01 -0.10826288204E+02  0.28552996210E+02  0.59301946259E+02  0.50000004070E+02 0.  0.
         12    1    1    2    0    0  0.91781432930E+01  0.10826288204E+02 -0.28552996210E+02  0.31886053741E+02  0.00000000000E+00 0. -1.
         11    1    3    3    0    0  0.12530557445E+02 -0.16065639448E+02 -0.11750987781E+01  0.20408343837E+02  0.51100000000E-03 0. -1.
        -11    1    3    3    0    0 -0.45199710482E+00  0.16345928156E+01  0.83894165103E+01  0.85591182198E+01  0.51100000000E-03 0.  1.
         12    1    3    3    0    0 -0.21256703633E+02  0.36047584280E+01  0.21338678478E+02  0.30334484203E+02  0.00000000000E+00 0. -1.
</event>
<event>
 7    1  0.4346085E-013  0.5930197E+02  0.7816164E-02  0.1266605E+00
        -11   -1    0    0    0    0  0.00000000000E+00  0.00000000000E+00  0.45593999997E+02  0.45594000000E+02  0.51100000000E-03 0. -1.
         11   -1    0    0    0    0 -0.00000000000E+00 -0.00000000000E+00 -0.45593999997E+02  0.45594000000E+02  0.51100000000E-03 0.  1.
    9900012    2    1    2    0    0  0.12522487743E+02 -0.12110652403E+02 -0.26706519857E+02  0.59301971653E+02  0.50000050382E+02 0.  0.
         12    1    1    2    0    0 -0.12522487743E+02  0.12110652403E+02  0.26706519857E+02  0.31886028347E+02  0.00000000000E+00 0. -1.
         11    1    3    3    0    0 -0.51758553864E+01 -0.51812625585E+01 -0.49245481901E+01  0.88253122221E+01  0.51100000000E-03 0. -1.
        -11    1    3    3    0    0  0.21722840986E+02 -0.17153915104E+02 -0.26681905301E+02  0.38445580951E+02  0.51100000000E-03 0.  1.
        -12    1    3    3    0    0 -0.40244978563E+01  0.10224525259E+02  0.48999336348E+01  0.12031078480E+02  0.00000000000E+00 0.  1.
</event>
<event>
 7    1  0.4346085E-013  0.5930195E+02  0.7816164E-02  0.1266605E+00
        -11   -1    0    0    0    0  0.00000000000E+00  0.00000000000E+00  0.45593999997E+02  0.45594000000E+02  0.51100000000E-03 0.  1.
         11   -1    0    0    0    0 -0.00000000000E+00 -0.00000000000E+00 -0.45593999997E+02  0.45594000000E+02  0.51100000000E-03 0. -1.
    9900012    2    1    2    0    0 -0.12261106688E+02  0.83137952284E+01  0.28235905862E+02  0.59301948063E+02  0.50000007359E+02 0.  0.
         12    1    1    2    0    0  0.12261106688E+02 -0.83137952284E+01 -0.28235905862E+02  0.31886051937E+02  0.00000000000E+00 0. -1.
         11    1    3    3    0    0 -0.86197280489E+01 -0.11997368986E+02 -0.74576943091E+01  0.16548527998E+02  0.51100000000E-03 0. -1.
        -11    1    3    3    0    0  0.15785775339E-01  0.17467386724E+02  0.33144898080E+02  0.37465906064E+02  0.51100000000E-03 0.  1.
         12    1    3    3    0    0 -0.36571644144E+01  0.28437774904E+01  0.25487020904E+01  0.52875140014E+01  0.00000000000E+00 0. -1.
</event>
<event>
 7    1  0.4346085E-013  0.5930195E+02  0.7816164E-02  0.1266605E+00
        -11   -1    0    0    0    0  0.00000000000E+00  0.00000000000E+00  0.45593999997E+02  0.45594000000E+02  0.51100000000E-03 0. -1.
         11   -1    0    0    0    0 -0.00000000000E+00 -0.00000000000E+00 -0.45593999997E+02  0.45594000000E+02  0.51100000000E-03 0.  1.
    9900012    2    1    2    0    0  0.19393873189E+02 -0.16680042795E+02 -0.19036126707E+02  0.59301948741E+02  0.50000008595E+02 0.  0.
         12    1    1    2    0    0 -0.19393873189E+02  0.16680042795E+02  0.19036126707E+02  0.31886051259E+02  0.00000000000E+00 0. -1.
         11    1    3    3    0    0  0.34028007747E+01  0.46316896336E+01 -0.24518872674E+02  0.25183461228E+02  0.51100000000E-03 0. -1.
        -11    1    3    3    0    0  0.15589757735E+02 -0.18481748001E+02 -0.37369383985E+01  0.24465900029E+02  0.51100000000E-03 0.  1.
         12    1    3    3    0    0  0.40131467888E+00 -0.28299844278E+01  0.92196843650E+01  0.96525874833E+01  0.00000000000E+00 0. -1.
</event>
<event>
 7    1  0.4346085E-013  0.5930194E+02  0.7816164E-02  0.1266605E+00
        -11   -1    0    0    0    0  0.00000000000E+00  0.00000000000E+00  0.45593999997E+02  0.45594000000E+02  0.51100000000E-03 0.  1.
         11   -1    0    0    0    0 -0.00000000000E+00 -0.00000000000E+00 -0.45593999997E+02  0.45594000000E+02  0.51100000000E-03 0. -1.
    9900012    2    1    2    0    0 -0.17136953591E+02  0.60434769256E+01  0.26201563816E+02  0.59301941320E+02  0.49999995062E+02 0.  0.
         12    1    1    2    0    0  0.17136953591E+02 -0.60434769256E+01 -0.26201563816E+02  0.31886058680E+02  0.00000000000E+00 0. -1.
         11    1    3    3    0    0 -0.34515349175E+01 -0.27217238414E+01  0.31957019767E+02  0.32257898050E+02  0.51100000000E-03 0. -1.
        -11    1    3    3    0    0 -0.17437050758E+02  0.10342777570E+02 -0.34868480310E+00  0.20276719861E+02  0.51100000000E-03 0.  1.
         12    1    3    3    0    0  0.37516320839E+01 -0.15775768025E+01 -0.54067711484E+01  0.67673234083E+01  0.00000000000E+00 0. -1.
</event>
<event>
 7    1  0.4346085E-013  0.5930192E+02  0.7816164E-02  0.1266605E+00
        -11   -1    0    0    0    0  0.00000000000E+00  0.00000000000E+00  0.45593999997E+02  0.45594000000E+02  0.51100000000E-03 0.  1.
         11   -1    0    0    0    0 -0.00000000000E+00 -0.00000000000E+00 -0.45593999997E+02  0.45594000000E+02  0.51100000000E-03 0. -1.
    9900012    2    1    2    0    0 -0.86424521158E+01 -0.29597907293E+02  0.81236755052E+01  0.59301918422E+02  0.49999953301E+02 0.  0.
         12    1    1    2    0    0  0.86424521158E+01  0.29597907293E+02 -0.81236755052E+01  0.31886081578E+02  0.00000000000E+00 0. -1.
         11    1    3    3    0    0  0.22849289645E+01  0.18234566379E+01 -0.14712194736E+02  0.14999818956E+02  0.51100000000E-03 0. -1.
        -11    1    3    3    0    0 -0.95607138599E+01 -0.13107044149E+02  0.19946143647E+02  0.25710902405E+02  0.51100000000E-03 0.  1.
         12    1    3    3    0    0 -0.13666672204E+01 -0.18314319782E+02  0.28897265941E+01  0.18591197061E+02  0.00000000000E+00 0. -1.
</event>
<event>
 7    1  0.4346085E-013  0.5930193E+02  0.7816164E-02  0.1266605E+00
        -11   -1    0    0    0    0  0.00000000000E+00  0.00000000000E+00  0.45593999997E+02  0.45594000000E+02  0.51100000000E-03 0.  1.
         11   -1    0    0    0    0 -0.00000000000E+00 -0.00000000000E+00 -0.45593999997E+02  0.45594000000E+02  0.51100000000E-03 0. -1.
    9900012    2    1    2    0    0  0.26211396436E+00  0.18271204075E+02  0.26130748771E+02  0.59301927282E+02  0.49999969459E+02 0.  0.
         12    1    1    2    0    0 -0.26211396436E+00 -0.18271204075E+02 -0.26130748771E+02  0.31886072718E+02  0.00000000000E+00 0. -1.
         11    1    3    3    0    0  0.93497699064E+01  0.16150985307E+01  0.13603080885E+02  0.16585250990E+02  0.51100000000E-03 0. -1.
        -11    1    3    3    0    0 -0.19276003250E+02  0.14095140792E+02  0.18878715958E+02  0.30440814899E+02  0.51100000000E-03 0.  1.
        -12    1    3    3    0    0  0.10188347308E+02  0.25609647525E+01 -0.63510480724E+01  0.12275861393E+02  0.00000000000E+00 0.  1.
</event>
<event>
 7    1  0.4346085E-013  0.5930193E+02  0.7816164E-02  0.1266605E+00
        -11   -1    0    0    0    0  0.00000000000E+00  0.00000000000E+00  0.45593999997E+02  0.45594000000E+02  0.51100000000E-03 0. -1.
         11   -1    0    0    0    0 -0.00000000000E+00 -0.00000000000E+00 -0.45593999997E+02  0.45594000000E+02  0.51100000000E-03 0.  1.
    9900012    2    1    2    0    0 -0.68240741086E+00  0.25407049394E+02 -0.19254552978E+02  0.59301927035E+02  0.49999969009E+02 0.  0.
         12    1    1    2    0    0  0.68240741086E+00 -0.25407049394E+02  0.19254552978E+02  0.31886072965E+02  0.00000000000E+00 0. -1.
         11    1    3    3    0    0 -0.81177417532E+01  0.84815282658E+01  0.39608658781E+01  0.12390420157E+02  0.51100000000E-03 0. -1.
        -11    1    3    3    0    0 -0.89069164951E+01  0.65274501459E+01 -0.25128159695E+02  0.27447498553E+02  0.51100000000E-03 0.  1.
        -12    1    3    3    0    0  0.16342250837E+02  0.10398070982E+02  0.19127408396E+01  0.19464008326E+02  0.00000000000E+00 0.  1.
</event>
<event>
 7    1  0.4346085E-013  0.5930195E+02  0.7816164E-02  0.1266605E+00
        -11   -1    0    0    0    0  0.00000000000E+00  0.00000000000E+00  0.45593999997E+02  0.45594000000E+02  0.51100000000E-03 0.  1.
         11   -1    0    0    0    0 -0.00000000000E+00 -0.00000000000E+00 -0.45593999997E+02  0.45594000000E+02  0.51100000000E-03 0. -1.
    9900012    2    1    2    0    0  0.16920520333E+02  0.22307220088E+02  0.15257915837E+02  0.59301951765E+02  0.50000014110E+02 0.  0.
         12    1    1    2    0    0 -0.16920520333E+02 -0.22307220088E+02 -0.15257915837E+02  0.31886048235E+02  0.00000000000E+00 0. -1.
         11    1    3    3    0    0  0.15148745552E+01  0.18119376992E+02 -0.16274137156E+01  0.18255277131E+02  0.51100000000E-03 0. -1.
        -11    1    3    3    0    0  0.94274094649E+01 -0.12937386757E+02 -0.36910986975E+00  0.16012128767E+02  0.51100000000E-03 0.  1.
        -12    1    3    3    0    0  0.59782363124E+01  0.17125229853E+02  0.17254439422E+02  0.25034545866E+02  0.00000000000E+00 0.  1.
</event>
<event>
 7    1  0.4346085E-013  0.5930192E+02  0.7816164E-02  0.1266605E+00
        -11   -1    0    0    0    0  0.00000000000E+00  0.00000000000E+00  0.45593999997E+02  0.45594000000E+02  0.51100000000E-03 0.  1.
         11   -1    0    0    0    0 -0.00000000000E+00 -0.00000000000E+00 -0.45593999997E+02  0.45594000000E+02  0.51100000000E-03 0. -1.
    9900012    2    1    2    0    0 -0.15679996666E+02  0.26751462767E+02  0.74309538733E+01  0.59301919477E+02  0.49999955225E+02 0.  0.
         12    1    1    2    0    0  0.15679996666E+02 -0.26751462767E+02 -0.74309538733E+01  0.31886080523E+02  0.00000000000E+00 0. -1.
         11    1    3    3    0    0 -0.14708764884E+02  0.71078810066E+01 -0.15544391798E+02  0.22549896972E+02  0.51100000000E-03 0. -1.
        -11    1    3    3    0    0 -0.85425153682E+01  0.18370348380E+02  0.20142163881E+02  0.28568357224E+02  0.51100000000E-03 0.  1.
        -12    1    3    3    0    0  0.75712835859E+01  0.12732333808E+01  0.28331817902E+01  0.81836652813E+01  0.00000000000E+00 0.  1.
</event>
<event>
 7    1  0.4346085E-013  0.5930194E+02  0.7816164E-02  0.1266605E+00
        -11   -1    0    0    0    0  0.00000000000E+00  0.00000000000E+00  0.45593999997E+02  0.45594000000E+02  0.51100000000E-03 0. -1.
         11   -1    0    0    0    0 -0.00000000000E+00 -0.00000000000E+00 -0.45593999997E+02  0.45594000000E+02  0.51100000000E-03 0.  1.
    9900012    2    1    2    0    0  0.24039742063E+02  0.11606203775E+02 -0.17438690834E+02  0.59301935607E+02  0.49999984642E+02 0.  0.
         12    1    1    2    0    0 -0.24039742063E+02 -0.11606203775E+02  0.17438690834E+02  0.31886064393E+02  0.00000000000E+00 0. -1.
         11    1    3    3    0    0  0.21680676520E+02  0.79396489442E+01 -0.29275876434E+02  0.37284939332E+02  0.51100000000E-03 0. -1.
        -11    1    3    3    0    0  0.77918450188E+01 -0.43138214943E+01  0.59031661767E+01  0.10685002380E+02  0.51100000000E-03 0.  1.
         12    1    3    3    0    0 -0.54327794761E+01  0.79803763250E+01  0.59340194237E+01  0.11331993895E+02  0.00000000000E+00 0. -1.
</event>
<event>
 7    1  0.4346085E-013  0.5930195E+02  0.7816164E-02  0.1266605E+00
        -11   -1    0    0    0    0  0.00000000000E+00  0.00000000000E+00  0.45593999997E+02  0.45594000000E+02  0.51100000000E-03 0. -1.
         11   -1    0    0    0    0 -0.00000000000E+00 -0.00000000000E+00 -0.45593999997E+02  0.45594000000E+02  0.51100000000E-03 0.  1.
    9900012    2    1    2    0    0  0.25395582601E+02  0.18624489271E+02 -0.49913025086E+01  0.59301947924E+02  0.50000007106E+02 0.  0.
         12    1    1    2    0    0 -0.25395582601E+02 -0.18624489271E+02  0.49913025086E+01  0.31886052076E+02  0.00000000000E+00 0. -1.
         11    1    3    3    0    0 -0.13080798489E+01 -0.52028423850E+00  0.28724697701E+00  0.14367601285E+01  0.51100000000E-03 0. -1.
        -11    1    3    3    0    0  0.26184045613E+02  0.58691897528E+01 -0.23257482318E+02  0.35510028401E+02  0.51100000000E-03 0.  1.
        -12    1    3    3    0    0  0.51961683747E+00  0.13275583757E+02  0.17978932833E+02  0.22355159394E+02  0.00000000000E+00 0.  1.
</event>
<event>
 7    1  0.4346085E-013  0.5930193E+02  0.7816164E-02  0.1266605E+00
        -11   -1    0    0    0    0  0.00000000000E+00  0.00000000000E+00  0.45593999997E+02  0.45594000000E+02  0.51100000000E-03 0.  1.
         11   -1    0    0    0    0 -0.00000000000E+00 -0.00000000000E+00 -0.45593999997E+02  0.45594000000E+02  0.51100000000E-03 0. -1.
    9900012    2    1    2    0    0 -0.19510880181E+02  0.24732025834E+02  0.49369690824E+01  0.59301933905E+02  0.49999981539E+02 0.  0.
         12    1    1    2    0    0  0.19510880181E+02 -0.24732025834E+02 -0.49369690824E+01  0.31886066095E+02  0.00000000000E+00 0. -1.
         11    1    3    3    0    0  0.73452842844E+01  0.50912719919E+01  0.51469183099E+01  0.10313341848E+02  0.51100000000E-03 0. -1.
        -11    1    3    3    0    0 -0.23721240763E+02  0.25792957409E+02 -0.10513254811E+02  0.36585549637E+02  0.51100000000E-03 0.  1.
        -12    1    3    3    0    0 -0.31349237020E+01 -0.61522035670E+01  0.10303305584E+02  0.12403042421E+02  0.00000000000E+00 0.  1.
</event>
<event>
 7    1  0.4346085E-013  0.5930192E+02  0.7816164E-02  0.1266605E+00
        -11   -1    0    0    0    0  0.00000000000E+00  0.00000000000E+00  0.45593999997E+02  0.45594000000E+02  0.51100000000E-03 0.  1.
         11   -1    0    0    0    0 -0.00000000000E+00 -0.00000000000E+00 -0.45593999997E+02  0.45594000000E+02  0.51100000000E-03 0. -1.
    9900012    2    1    2    0    0 -0.31448545056E+02 -0.49367704439E+01  0.18274127279E+01  0.59301919560E+02  0.49999955377E+02 0.  0.
         12    1    1    2    0    0  0.31448545056E+02  0.49367704439E+01 -0.18274127279E+01  0.31886080440E+02  0.00000000000E+00 0. -1.
         11    1    3    3    0    0 -0.13175705348E+02 -0.17855691095E+02 -0.11370112840E+02  0.24934000524E+02  0.51100000000E-03 0. -1.
        -11    1    3    3    0    0 -0.22767862524E+02  0.61119962933E+01  0.99641431988E+01  0.25593284520E+02  0.51100000000E-03 0.  1.
        -12    1    3    3    0    0  0.44950228157E+01  0.68069243581E+01  0.32333823687E+01  0.87746345151E+01  0.00000000000E+00 0.  1.
</event>
<event>
 7    1  0.4346085E-013  0.5930191E+02  0.7816164E-02  0.1266605E+00
        -11   -1    0    0    0    0  0.00000000000E+00  0.00000000000E+00  0.45593999997E+02  0.45594000000E+02  0.51100000000E-03 0.  1.
         11   -1    0    0    0    0 -0.00000000000E+00 -0.00000000000E+00 -0.45593999997E+02  0.45594000000E+02  0.51100000000E-03 0. -1.
    9900012    2    1    2    0    0 -0.31336909635E+02 -0.42961595163E+01 -0.40328254143E+01  0.59301912550E+02  0.49999942592E+02 0.  0.
         12    1    1    2    0    0  0.31336909635E+02  0.42961595163E+01  0.40328254143E+01  0.31886087450E+02  0.00000000000E+00 0. -1.
         11    1    3    3    0    0  0.46631967842E+01 -0.60714860636E+01 -0.51839009053E+01  0.92456030699E+01  0.51100000000E-03 0. -1.
        -11    1    3    3    0    0 -0.21028190794E+02  0.17984815079E+02 -0.21108633923E+01  0.27750569832E+02  0.51100000000E-03 0.  1.
        -12    1    3    3    0    0 -0.14971915625E+02 -0.16209488532E+02  0.32619388833E+01  0.22305739647E+02  0.00000000000E+00 0.  1.
</event>
<event>
 7    1  0.4346085E-013  0.5930198E+02  0.7816164E-02  0.1266605E+00
        -11   -1    0    0    0    0  0.00000000000E+00  0.00000000000E+00  0.45593999997E+02  0.45594000000E+02  0.51100000000E-03 0. -1.
         11   -1    0    0    0    0 -0.00000000000E+00 -0.00000000000E+00 -0.45593999997E+02  0.45594000000E+02  0.51100000000E-03 0.  1.
    9900012    2    1    2    0    0 -0.14387849880E+02  0.18051673130E+02 -0.21996482701E+02  0.59301978326E+02  0.50000062552E+02 0.  0.
         12    1    1    2    0    0  0.14387849880E+02 -0.18051673130E+02  0.21996482701E+02  0.31886021674E+02  0.00000000000E+00 0. -1.
         11    1    3    3    0    0 -0.97571935353E+01 -0.50272196713E+01 -0.35992580329E+01  0.11551208679E+02  0.51100000000E-03 0.  1.
        -11    1    3    3    0    0  0.16021588469E+02  0.13798544598E+02 -0.62100758626E+01  0.22037608141E+02  0.51100000000E-03 0. -1.
        -12    1    3    3    0    0 -0.20652244813E+02  0.92803482036E+01 -0.12187148806E+02  0.25713161506E+02  0.00000000000E+00 0.  1.
</event>
<event>
 7    1  0.4346085E-013  0.5930193E+02  0.7816164E-02  0.1266605E+00
        -11   -1    0    0    0    0  0.00000000000E+00  0.00000000000E+00  0.45593999997E+02  0.45594000000E+02  0.51100000000E-03 0.  1.
         11   -1    0    0    0    0 -0.00000000000E+00 -0.00000000000E+00 -0.45593999997E+02  0.45594000000E+02  0.51100000000E-03 0. -1.
    9900012    2    1    2    0    0  0.31483887435E+02 -0.20204217749E+01  0.46264588070E+01  0.59301931047E+02  0.49999976326E+02 0.  0.
         12    1    1    2    0    0 -0.31483887435E+02  0.20204217749E+01 -0.46264588070E+01  0.31886068953E+02  0.00000000000E+00 0. -1.
         11    1    3    3    0    0  0.13812457325E+02  0.14446574717E+02 -0.11591855097E+02  0.23105380397E+02  0.51100000000E-03 0. -1.
        -11    1    3    3    0    0  0.19882368948E+02 -0.47633763502E+01  0.10527671438E+02  0.22996308734E+02  0.51100000000E-03 0.  1.
         12    1    3    3    0    0 -0.22109388376E+01 -0.11703620142E+02  0.56906424661E+01  0.13200241916E+02  0.00000000000E+00 0. -1.
</event>
<event>
 7    1  0.4346085E-013  0.5930196E+02  0.7816164E-02  0.1266605E+00
        -11   -1    0    0    0    0  0.00000000000E+00  0.00000000000E+00  0.45593999997E+02  0.45594000000E+02  0.51100000000E-03 0.  1.
         11   -1    0    0    0    0 -0.00000000000E+00 -0.00000000000E+00 -0.45593999997E+02  0.45594000000E+02  0.51100000000E-03 0. -1.
    9900012    2    1    2    0    0 -0.26489686923E+02  0.13939449535E+02  0.10986716384E+02  0.59301957544E+02  0.50000024650E+02 0.  0.
         12    1    1    2    0    0  0.26489686923E+02 -0.13939449535E+02 -0.10986716384E+02  0.31886042456E+02  0.00000000000E+00 0. -1.
         11    1    3    3    0    0 -0.13453380119E+02 -0.11942986590E+02  0.18083589973E+02  0.25507735923E+02  0.51100000000E-03 0. -1.
        -11    1    3    3    0    0 -0.62088037332E+01  0.21625824886E+02  0.80942771036E+00  0.22514011621E+02  0.51100000000E-03 0.  1.
         12    1    3    3    0    0 -0.68275030705E+01  0.42566112395E+01 -0.79063012990E+01  0.11280210000E+02  0.00000000000E+00 0. -1.
</event>
<event>
 7    1  0.4346085E-013  0.5930203E+02  0.7816164E-02  0.1266604E+00
        -11   -1    0    0    0    0  0.00000000000E+00  0.00000000000E+00  0.45593999997E+02  0.45594000000E+02  0.51100000000E-03 0.  1.
         11   -1    0    0    0    0 -0.00000000000E+00 -0.00000000000E+00 -0.45593999997E+02  0.45594000000E+02  0.51100000000E-03 0. -1.
    9900012    2    1    2    0    0  0.26283675587E+02  0.11772637649E+02  0.13685335148E+02  0.59302031335E+02  0.50000159228E+02 0.  0.
         12    1    1    2    0    0 -0.26283675587E+02 -0.11772637649E+02 -0.13685335148E+02  0.31885968665E+02  0.00000000000E+00 0. -1.
         11    1    3    3    0    0  0.16685521929E+01  0.57129088336E+01 -0.59793196561E+01  0.84364481609E+01  0.51100000000E-03 0. -1.
        -11    1    3    3    0    0  0.74079860526E+01 -0.11150713419E+02  0.22686421635E+02  0.26341799368E+02  0.51100000000E-03 0.  1.
        -12    1    3    3    0    0  0.17207137341E+02  0.17210442235E+02 -0.30217668304E+01  0.24523783806E+02  0.00000000000E+00 0.  1.
</event>
<event>
 7    1  0.4346085E-013  0.5930194E+02  0.7816164E-02  0.1266605E+00
        -11   -1    0    0    0    0  0.00000000000E+00  0.00000000000E+00  0.45593999997E+02  0.45594000000E+02  0.51100000000E-03 0. -1.
         11   -1    0    0    0    0 -0.00000000000E+00 -0.00000000000E+00 -0.45593999997E+02  0.45594000000E+02  0.51100000000E-03 0.  1.
    9900012    2    1    2    0    0  0.29474373936E+02 -0.11017906033E+02  0.51563313824E+01  0.59301941517E+02  0.49999995420E+02 0.  0.
         12    1    1    2    0    0 -0.29474373936E+02  0.11017906033E+02 -0.51563313824E+01  0.31886058483E+02  0.00000000000E+00 0. -1.
         11    1    3    3    0    0  0.22114009784E+02 -0.14703616225E+02  0.10841208899E+02  0.28683750966E+02  0.51100000000E-03 0. -1.
        -11    1    3    3    0    0  0.58790818849E+01  0.13431217084E+02  0.55455212366E+01  0.15675267213E+02  0.51100000000E-03 0.  1.
        -12    1    3    3    0    0  0.14812822676E+01 -0.97455068917E+01 -0.11230398753E+02  0.14942923338E+02  0.00000000000E+00 0.  1.
</event>
<event>
 7    1  0.4346085E-013  0.5930193E+02  0.7816164E-02  0.1266605E+00
        -11   -1    0    0    0    0  0.00000000000E+00  0.00000000000E+00  0.45593999997E+02  0.45594000000E+02  0.51100000000E-03 0. -1.
         11   -1    0    0    0    0 -0.00000000000E+00 -0.00000000000E+00 -0.45593999997E+02  0.45594000000E+02  0.51100000000E-03 0.  1.
    9900012    2    1    2    0    0  0.88048502717E+01  0.29499981535E+02  0.83034533638E+01  0.59301927231E+02  0.49999969367E+02 0.  0.
         12    1    1    2    0    0 -0.88048502717E+01 -0.29499981535E+02 -0.83034533638E+01  0.31886072769E+02  0.00000000000E+00 0. -1.
         11    1    3    3    0    0 -0.39132514566E+01  0.20277858648E+02 -0.14408919184E+02  0.25181779934E+02  0.51100000000E-03 0. -1.
        -11    1    3    3    0    0  0.63412484150E+01 -0.53972510576E+01  0.13024068875E+02  0.15458593751E+02  0.51100000000E-03 0.  1.
        -12    1    3    3    0    0  0.63768533134E+01  0.14619373944E+02  0.96883036723E+01  0.18661553546E+02  0.00000000000E+00 0.  1.
</event>
<event>
 7    1  0.4346085E-013  0.5930195E+02  0.7816164E-02  0.1266605E+00
        -11   -1    0    0    0    0  0.00000000000E+00  0.00000000000E+00  0.45593999997E+02  0.45594000000E+02  0.51100000000E-03 0.  1.
         11   -1    0    0    0    0 -0.00000000000E+00 -0.00000000000E+00 -0.45593999997E+02  0.45594000000E+02  0.51100000000E-03 0. -1.
    9900012    2    1    2    0    0  0.10609479485E+02 -0.28619508951E+02  0.92240531168E+01  0.59301945001E+02  0.50000001775E+02 0.  0.
         12    1    1    2    0    0 -0.10609479485E+02  0.28619508951E+02 -0.92240531168E+01  0.31886054999E+02  0.00000000000E+00 0. -1.
         11    1    3    3    0    0 -0.76580956486E+00  0.85507366811E+01 -0.14773875376E+01  0.87111558519E+01  0.51100000000E-03 0. -1.
        -11    1    3    3    0    0  0.15533853022E+02 -0.40850689188E+02  0.80607300091E+01  0.44441588241E+02  0.51100000000E-03 0.  1.
        -12    1    3    3    0    0 -0.41585639723E+01  0.36804435568E+01  0.26407106453E+01  0.61492009073E+01  0.00000000000E+00 0.  1.
</event>
<event>
 7    1  0.4346085E-013  0.5930196E+02  0.7816164E-02  0.1266605E+00
        -11   -1    0    0    0    0  0.00000000000E+00  0.00000000000E+00  0.45593999997E+02  0.45594000000E+02  0.51100000000E-03 0.  1.
         11   -1    0    0    0    0 -0.00000000000E+00 -0.00000000000E+00 -0.45593999997E+02  0.45594000000E+02  0.51100000000E-03 0. -1.
    9900012    2    1    2    0    0  0.54108504901E+01  0.12199632822E+02  0.28958785848E+02  0.59301958825E+02  0.50000026987E+02 0.  0.
         12    1    1    2    0    0 -0.54108504901E+01 -0.12199632822E+02 -0.28958785848E+02  0.31886041175E+02  0.00000000000E+00 0. -1.
         11    1    3    3    0    0 -0.96852815737E+00  0.12441912381E+02  0.29285451651E+02  0.31833581469E+02  0.51100000000E-03 0.  1.
        -11    1    3    3    0    0 -0.23803159655E+01 -0.12210446267E+02 -0.17757611357E+01  0.12566392880E+02  0.51100000000E-03 0. -1.
        -12    1    3    3    0    0  0.87596946130E+01  0.11968166708E+02  0.14490953329E+01  0.14901984477E+02  0.00000000000E+00 0.  1.
</event>
<event>
 7    1  0.4346085E-013  0.5930194E+02  0.7816164E-02  0.1266605E+00
        -11   -1    0    0    0    0  0.00000000000E+00  0.00000000000E+00  0.45593999997E+02  0.45594000000E+02  0.51100000000E-03 0. -1.
         11   -1    0    0    0    0 -0.00000000000E+00 -0.00000000000E+00 -0.45593999997E+02  0.45594000000E+02  0.51100000000E-03 0.  1.
    9900012    2    1    2    0    0 -0.11916199709E+02 -0.20519064229E+02 -0.21300064484E+02  0.59301944124E+02  0.50000000175E+02 0.  0.
         12    1    1    2    0    0  0.11916199709E+02  0.20519064229E+02  0.21300064484E+02  0.31886055876E+02  0.00000000000E+00 0. -1.
         11    1    3    3    0    0  0.10031975672E+02  0.21781710010E+01 -0.13394452549E+02  0.16875909580E+02  0.51100000000E-03 0. -1.
        -11    1    3    3    0    0 -0.68587796947E+01 -0.25396179238E+02 -0.40103605322E+01  0.26609993812E+02  0.51100000000E-03 0.  1.
         12    1    3    3    0    0 -0.15089395687E+02  0.26989440086E+01 -0.38952514029E+01  0.15816040732E+02  0.00000000000E+00 0. -1.
</event>
<event>
 7    1  0.4346085E-013  0.5930193E+02  0.7816164E-02  0.1266605E+00
        -11   -1    0    0    0    0  0.00000000000E+00  0.00000000000E+00  0.45593999997E+02  0.45594000000E+02  0.51100000000E-03 0.  1.
         11   -1    0    0    0    0 -0.00000000000E+00 -0.00000000000E+00 -0.45593999997E+02  0.45594000000E+02  0.51100000000E-03 0. -1.
    9900012    2    1    2    0    0 -0.48681381609E+01 -0.30935897080E+02  0.59994042359E+01  0.59301931750E+02  0.49999977608E+02 0.  0.
         12    1    1    2    0    0  0.48681381609E+01  0.30935897080E+02 -0.59994042359E+01  0.31886068250E+02  0.00000000000E+00 0. -1.
         11    1    3    3    0    0  0.10856519877E+02 -0.46281226575E+01 -0.91516455746E+01  0.14934395205E+02  0.51100000000E-03 0. -1.
        -11    1    3    3    0    0 -0.99871842277E+01 -0.29995126497E+02  0.18646827592E+02  0.36703618920E+02  0.51100000000E-03 0.  1.
         12    1    3    3    0    0 -0.57374738101E+01  0.36873520743E+01 -0.34957777818E+01  0.76639176236E+01  0.00000000000E+00 0. -1.
</event>
<event>
 7    1  0.4346085E-013  0.5930195E+02  0.7816164E-02  0.1266605E+00
        -11   -1    0    0    0    0  0.00000000000E+00  0.00000000000E+00  0.45593999997E+02  0.45594000000E+02  0.51100000000E-03 0.  1.
         11   -1    0    0    0    0 -0.00000000000E+00 -0.00000000000E+00 -0.45593999997E+02  0.45594000000E+02  0.51100000000E-03 0. -1.
    9900012    2    1    2    0    0  0.85051133246E+01 -0.12896339990E+02  0.27893864160E+02  0.59301949828E+02  0.50000010578E+02 0.  0.
         12    1    1    2    0    0 -0.85051133246E+01  0.12896339990E+02 -0.27893864160E+02  0.31886050172E+02  0.00000000000E+00 0. -1.
         11    1    3    3    0    0 -0.53359578450E+01 -0.73787951053E+01 -0.21305056693E+01  0.93519045118E+01  0.51100000000E-03 0. -1.
        -11    1    3    3    0    0  0.20655899404E+02 -0.62832628942E+01  0.35244326173E+02  0.41331683978E+02  0.51100000000E-03 0.  1.
        -12    1    3    3    0    0 -0.68148282340E+01  0.76571800924E+00 -0.52199563438E+01  0.86183613384E+01  0.00000000000E+00 0.  1.
</event>
<event>
 7    1  0.4346085E-013  0.5930196E+02  0.7816164E-02  0.1266605E+00
        -11   -1    0    0    0    0  0.00000000000E+00  0.00000000000E+00  0.45593999997E+02  0.45594000000E+02  0.51100000000E-03 0.  1.
         11   -1    0    0    0    0 -0.00000000000E+00 -0.00000000000E+00 -0.45593999997E+02  0.45594000000E+02  0.51100000000E-03 0. -1.
    9900012    2    1    2    0    0  0.21221781309E+00 -0.20269048411E+01  0.31820841126E+02  0.59301963721E+02  0.50000035915E+02 0.  0.
         12    1    1    2    0    0 -0.21221781309E+00  0.20269048411E+01 -0.31820841126E+02  0.31886036279E+02  0.00000000000E+00 0. -1.
         11    1    3    3    0    0 -0.31180930883E+01  0.87954001347E+00 -0.37702101566E+01  0.49709737506E+01  0.51100000000E-03 0. -1.
        -11    1    3    3    0    0 -0.10735187244E+02 -0.14842983550E+02  0.29828337514E+02  0.35004115828E+02  0.51100000000E-03 0.  1.
        -12    1    3    3    0    0  0.14065498145E+02  0.11936538696E+02  0.57627137690E+01  0.19326874142E+02  0.00000000000E+00 0.  1.
</event>
<event>
 7    1  0.4346085E-013  0.5930197E+02  0.7816164E-02  0.1266605E+00
        -11   -1    0    0    0    0  0.00000000000E+00  0.00000000000E+00  0.45593999997E+02  0.45594000000E+02  0.51100000000E-03 0.  1.
         11   -1    0    0    0    0 -0.00000000000E+00 -0.00000000000E+00 -0.45593999997E+02  0.45594000000E+02  0.51100000000E-03 0. -1.
    9900012    2    1    2    0    0 -0.18897768541E+02  0.20027367831E+02  0.16077864673E+02  0.59301970919E+02  0.50000049044E+02 0.  0.
         12    1    1    2    0    0  0.18897768541E+02 -0.20027367831E+02 -0.16077864673E+02  0.31886029081E+02  0.00000000000E+00 0. -1.
         11    1    3    3    0    0 -0.76035545133E+01  0.28709387416E+02  0.18017226624E+02  0.34737061225E+02  0.51100000000E-03 0. -1.
        -11    1    3    3    0    0 -0.83933643853E+01 -0.13975818739E+02  0.32277156469E+01  0.16618971800E+02  0.51100000000E-03 0.  1.
         12    1    3    3    0    0 -0.29008496426E+01  0.52937991537E+01 -0.51670775973E+01  0.79459378946E+01  0.00000000000E+00 0. -1.
</event>
<event>
 7    1  0.4346085E-013  0.5930193E+02  0.7816164E-02  0.1266605E+00
        -11   -1    0    0    0    0  0.00000000000E+00  0.00000000000E+00  0.45593999997E+02  0.45594000000E+02  0.51100000000E-03 0.  1.
         11   -1    0    0    0    0 -0.00000000000E+00 -0.00000000000E+00 -0.45593999997E+02  0.45594000000E+02  0.51100000000E-03 0. -1.
    9900012    2    1    2    0    0  0.23462259572E+00 -0.62362939737E+01  0.31269391574E+02  0.59301933142E+02  0.49999980146E+02 0.  0.
         12    1    1    2    0    0 -0.23462259572E+00  0.62362939737E+01 -0.31269391574E+02  0.31886066858E+02  0.00000000000E+00 0. -1.
         11    1    3    3    0    0 -0.11102066615E+02 -0.13085851776E+01  0.41604291390E+01  0.11928011115E+02  0.51100000000E-03 0. -1.
        -11    1    3    3    0    0  0.14470621212E+02 -0.10211873466E+02  0.33880664871E+02  0.38230625032E+02  0.51100000000E-03 0.  1.
        -12    1    3    3    0    0 -0.31339320018E+01  0.52841646701E+01 -0.67717024358E+01  0.91432969946E+01  0.00000000000E+00 0.  1.
</event>
<event>
 7    1  0.4346085E-013  0.5930197E+02  0.7816164E-02  0.1266605E+00
        -11   -1    0    0    0    0  0.00000000000E+00  0.00000000000E+00  0.45593999997E+02  0.45594000000E+02  0.51100000000E-03 0.  1.
         11   -1    0    0    0    0 -0.00000000000E+00 -0.00000000000E+00 -0.45593999997E+02  0.45594000000E+02  0.51100000000E-03 0. -1.
    9900012    2    1    2    0    0 -0.43445852901E+01  0.39276908567E+01  0.31343528200E+02  0.59301969566E+02  0.50000046575E+02 0.  0.
         12    1    1    2    0    0  0.43445852901E+01 -0.39276908567E+01 -0.31343528200E+02  0.31886030434E+02  0.00000000000E+00 0. -1.
         11    1    3    3    0    0 -0.13980875233E+02 -0.14328362307E+02 -0.81467964166E+00  0.20035731627E+02  0.51100000000E-03 0. -1.
        -11    1    3    3    0    0  0.51584366160E+01  0.43986440945E+01  0.16725730695E+02  0.18047371159E+02  0.51100000000E-03 0.  1.
         12    1    3    3    0    0  0.44778533268E+01  0.13857409069E+02  0.15432477147E+02  0.21218866779E+02  0.00000000000E+00 0. -1.
</event>
<event>
 7    1  0.4346085E-013  0.5930195E+02  0.7816164E-02  0.1266605E+00
        -11   -1    0    0    0    0  0.00000000000E+00  0.00000000000E+00  0.45593999997E+02  0.45594000000E+02  0.51100000000E-03 0.  1.
         11   -1    0    0    0    0 -0.00000000000E+00 -0.00000000000E+00 -0.45593999997E+02  0.45594000000E+02  0.51100000000E-03 0. -1.
    9900012    2    1    2    0    0 -0.13124771280E+02  0.11136575642E+02  0.26840967846E+02  0.59301945163E+02  0.50000002070E+02 0.  0.
         12    1    1    2    0    0  0.13124771280E+02 -0.11136575642E+02 -0.26840967846E+02  0.31886054837E+02  0.00000000000E+00 0. -1.
         11    1    3    3    0    0  0.56969457205E+01  0.50265187117E+01  0.40358599711E+01  0.86028627135E+01  0.51100000000E-03 0. -1.
        -11    1    3    3    0    0 -0.14049205220E+02  0.67261832687E+01  0.34608634447E+02  0.37952329141E+02  0.51100000000E-03 0.  1.
        -12    1    3    3    0    0 -0.47725117806E+01 -0.61612633851E+00 -0.11803526572E+02  0.12746753308E+02  0.00000000000E+00 0.  1.
</event>
<event>
 7    1  0.4346085E-013  0.5930197E+02  0.7816164E-02  0.1266605E+00
        -11   -1    0    0    0    0  0.00000000000E+00  0.00000000000E+00  0.45593999997E+02  0.45594000000E+02  0.51100000000E-03 0.  1.
         11   -1    0    0    0    0 -0.00000000000E+00 -0.00000000000E+00 -0.45593999997E+02  0.45594000000E+02  0.51100000000E-03 0. -1.
    9900012    2    1    2    0    0 -0.11776863496E+02  0.29344348247E+02 -0.41150544780E+01  0.59301969184E+02  0.50000045878E+02 0.  0.
         12    1    1    2    0    0  0.11776863496E+02 -0.29344348247E+02  0.41150544780E+01  0.31886030816E+02  0.00000000000E+00 0. -1.
         11    1    3    3    0    0  0.74721815741E+01 -0.70413649509E+00 -0.52708558373E+00  0.75237706739E+01  0.51100000000E-03 0. -1.
        -11    1    3    3    0    0 -0.29973162087E+02  0.26779636322E+02 -0.48961658950E+01  0.40490885490E+02  0.51100000000E-03 0.  1.
        -12    1    3    3    0    0  0.10724117018E+02  0.32688484203E+01  0.13081970008E+01  0.11287313019E+02  0.00000000000E+00 0.  1.
</event>
<event>
 7    1  0.4346085E-013  0.5930189E+02  0.7816164E-02  0.1266605E+00
        -11   -1    0    0    0    0  0.00000000000E+00  0.00000000000E+00  0.45593999997E+02  0.45594000000E+02  0.51100000000E-03 0.  1.
         11   -1    0    0    0    0 -0.00000000000E+00 -0.00000000000E+00 -0.45593999997E+02  0.45594000000E+02  0.51100000000E-03 0. -1.
    9900012    2    1    2    0    0  0.40817051378E+01  0.12655439096E+02  0.28981088473E+02  0.59301891039E+02  0.49999903362E+02 0.  0.
         12    1    1    2    0    0 -0.40817051378E+01 -0.12655439096E+02 -0.28981088473E+02  0.31886108961E+02  0.00000000000E+00 0. -1.
         11    1    3    3    0    0  0.20248232993E+02  0.17856759766E+02  0.50185196695E+01  0.27459795131E+02  0.51100000000E-03 0. -1.
        -11    1    3    3    0    0 -0.27349695464E+01 -0.69077220359E+01  0.83959538458E+01  0.11211098224E+02  0.51100000000E-03 0.  1.
         12    1    3    3    0    0 -0.13431558309E+02  0.17064013658E+01  0.15566614958E+02  0.20630997685E+02  0.00000000000E+00 0. -1.
</event>
<event>
 7    1  0.4346085E-013  0.5930188E+02  0.7816164E-02  0.1266605E+00
        -11   -1    0    0    0    0  0.00000000000E+00  0.00000000000E+00  0.45593999997E+02  0.45594000000E+02  0.51100000000E-03 0.  1.
         11   -1    0    0    0    0 -0.00000000000E+00 -0.00000000000E+00 -0.45593999997E+02  0.45594000000E+02  0.51100000000E-03 0. -1.
    9900012    2    1    2    0    0 -0.23082241736E+02  0.17170882835E+02  0.13751191545E+02  0.59301884373E+02  0.49999891204E+02 0.  0.
         12    1    1    2    0    0  0.23082241736E+02 -0.17170882835E+02 -0.13751191545E+02  0.31886115627E+02  0.00000000000E+00 0. -1.
         11    1    3    3    0    0 -0.20394497613E+02 -0.63946391090E+01 -0.97629117711E+01  0.23497689008E+02  0.51100000000E-03 0. -1.
        -11    1    3    3    0    0  0.77095853627E+00  0.22095671856E+02  0.15647767934E+02  0.27086264664E+02  0.51100000000E-03 0.  1.
        -12    1    3    3    0    0 -0.34587026592E+01  0.14698500879E+01  0.78663353820E+01  0.87179307010E+01  0.00000000000E+00 0.  1.
</event>
<event>
 7    1  0.4346085E-013  0.5930189E+02  0.7816164E-02  0.1266605E+00
        -11   -1    0    0    0    0  0.00000000000E+00  0.00000000000E+00  0.45593999997E+02  0.45594000000E+02  0.51100000000E-03 0. -1.
         11   -1    0    0    0    0 -0.00000000000E+00 -0.00000000000E+00 -0.45593999997E+02  0.45594000000E+02  0.51100000000E-03 0.  1.
    9900012    2    1    2    0    0  0.82094210035E+01  0.13989420562E+01 -0.30779417449E+02  0.59301887496E+02  0.49999896900E+02 0.  0.
         12    1    1    2    0    0 -0.82094210035E+01 -0.13989420562E+01  0.30779417449E+02  0.31886112504E+02  0.00000000000E+00 0. -1.
         11    1    3    3    0    0 -0.17698078595E+02  0.11326901266E+02 -0.10516479892E+02  0.23497170634E+02  0.51100000000E-03 0. -1.
        -11    1    3    3    0    0  0.18681119064E+02 -0.36463082369E+01 -0.17457591123E+02  0.25827258107E+02  0.51100000000E-03 0.  1.
         12    1    3    3    0    0  0.72263805347E+01 -0.62816509732E+01 -0.28053464341E+01  0.99774587544E+01  0.00000000000E+00 0. -1.
</event>
<event>
 7    1  0.4346085E-013  0.5930191E+02  0.7816164E-02  0.1266605E+00
        -11   -1    0    0    0    0  0.00000000000E+00  0.00000000000E+00  0.45593999997E+02  0.45594000000E+02  0.51100000000E-03 0.  1.
         11   -1    0    0    0    0 -0.00000000000E+00 -0.00000000000E+00 -0.45593999997E+02  0.45594000000E+02  0.51100000000E-03 0. -1.
    9900012    2    1    2    0    0  0.22890078068E+00 -0.27182121243E+01  0.31769198225E+02  0.59301905404E+02  0.49999929559E+02 0.  0.
         12    1    1    2    0    0 -0.22890078068E+00  0.27182121243E+01 -0.31769198225E+02  0.31886094596E+02  0.00000000000E+00 0. -1.
         11    1    3    3    0    0  0.20629258928E+02 -0.20385161087E+01  0.12109352805E+02  0.24007463370E+02  0.51100000000E-03 0. -1.
        -11    1    3    3    0    0 -0.71248552224E+01 -0.98673908840E+01  0.13062387157E+02  0.17853708951E+02  0.51100000000E-03 0.  1.
         12    1    3    3    0    0 -0.13275502925E+02  0.91876948685E+01  0.65974582635E+01  0.17440733083E+02  0.00000000000E+00 0. -1.
</event>
<event>
 7    1  0.4346085E-013  0.5930195E+02  0.7816164E-02  0.1266605E+00
        -11   -1    0    0    0    0  0.00000000000E+00  0.00000000000E+00  0.45593999997E+02  0.45594000000E+02  0.51100000000E-03 0.  1.
         11   -1    0    0    0    0 -0.00000000000E+00 -0.00000000000E+00 -0.45593999997E+02  0.45594000000E+02  0.51100000000E-03 0. -1.
    9900012    2    1    2    0    0  0.25316708867E+02 -0.11944554538E+02  0.15268013270E+02  0.59301947247E+02  0.50000005871E+02 0.  0.
         12    1    1    2    0    0 -0.25316708867E+02  0.11944554538E+02 -0.15268013270E+02  0.31886052753E+02  0.00000000000E+00 0. -1.
         11    1    3    3    0    0  0.12237992152E+02 -0.56623506505E+01 -0.13008433096E+02  0.18736328314E+02  0.51100000000E-03 0. -1.
        -11    1    3    3    0    0  0.14995159467E+02 -0.12580085584E+02  0.11878634112E+02  0.22895748718E+02  0.51100000000E-03 0.  1.
         12    1    3    3    0    0 -0.19164427524E+01  0.62978816969E+01  0.16397812254E+02  0.17669870215E+02  0.00000000000E+00 0. -1.
</event>
<event>
 7    1  0.4346085E-013  0.5930195E+02  0.7816164E-02  0.1266605E+00
        -11   -1    0    0    0    0  0.00000000000E+00  0.00000000000E+00  0.45593999997E+02  0.45594000000E+02  0.51100000000E-03 0. -1.
         11   -1    0    0    0    0 -0.00000000000E+00 -0.00000000000E+00 -0.45593999997E+02  0.45594000000E+02  0.51100000000E-03 0.  1.
    9900012    2    1    2    0    0 -0.17541613203E+02  0.95269222501E+01 -0.24864632683E+02  0.59301946625E+02  0.50000004737E+02 0.  0.
         12    1    1    2    0    0  0.17541613203E+02 -0.95269222501E+01  0.24864632683E+02  0.31886053375E+02  0.00000000000E+00 0. -1.
         11    1    3    3    0    0  0.25610898653E+01  0.13427355833E+02 -0.14506901677E+02  0.19932467547E+02  0.51100000000E-03 0. -1.
        -11    1    3    3    0    0 -0.26752394701E+02 -0.33106321703E+01 -0.15361824735E+02  0.31026385015E+02  0.51100000000E-03 0.  1.
        -12    1    3    3    0    0  0.66496916327E+01 -0.58980141275E+00  0.50040937287E+01  0.83430940641E+01  0.00000000000E+00 0.  1.
</event>
<event>
 7    1  0.4346085E-013  0.5930197E+02  0.7816164E-02  0.1266605E+00
        -11   -1    0    0    0    0  0.00000000000E+00  0.00000000000E+00  0.45593999997E+02  0.45594000000E+02  0.51100000000E-03 0. -1.
         11   -1    0    0    0    0 -0.00000000000E+00 -0.00000000000E+00 -0.45593999997E+02  0.45594000000E+02  0.51100000000E-03 0.  1.
    9900012    2    1    2    0    0  0.22355116632E+02  0.16451622664E+02 -0.15694320654E+02  0.59301971262E+02  0.50000049668E+02 0.  0.
         12    1    1    2    0    0 -0.22355116632E+02 -0.16451622664E+02  0.15694320654E+02  0.31886028738E+02  0.00000000000E+00 0. -1.
         11    1    3    3    0    0  0.92124128222E+01  0.64270759457E+01  0.16662253966E+02  0.20094938733E+02  0.51100000000E-03 0. -1.
        -11    1    3    3    0    0  0.77564148666E+01  0.10029265738E+02 -0.98231120020E+01  0.16038755329E+02  0.51100000000E-03 0.  1.
         12    1    3    3    0    0  0.53862889431E+01 -0.47190197253E-02 -0.22533462618E+02  0.23168277200E+02  0.00000000000E+00 0. -1.
</event>
<event>
 7    1  0.4346085E-013  0.5930194E+02  0.7816164E-02  0.1266605E+00
        -11   -1    0    0    0    0  0.00000000000E+00  0.00000000000E+00  0.45593999997E+02  0.45594000000E+02  0.51100000000E-03 0. -1.
         11   -1    0    0    0    0 -0.00000000000E+00 -0.00000000000E+00 -0.45593999997E+02  0.45594000000E+02  0.51100000000E-03 0.  1.
    9900012    2    1    2    0    0 -0.13783036247E+02 -0.13162466311E+02 -0.25563614526E+02  0.59301937289E+02  0.49999987710E+02 0.  0.
         12    1    1    2    0    0  0.13783036247E+02  0.13162466311E+02  0.25563614526E+02  0.31886062711E+02  0.00000000000E+00 0. -1.
         11    1    3    3    0    0 -0.14349274128E+02 -0.21388846840E+01  0.75807604484E+01  0.16369008061E+02  0.51100000000E-03 0. -1.
        -11    1    3    3    0    0  0.11360106432E+02  0.10988545963E+00 -0.17807810704E+02  0.21123025713E+02  0.51100000000E-03 0.  1.
         12    1    3    3    0    0 -0.10793868551E+02 -0.11133467086E+02 -0.15336564271E+02  0.21809903514E+02  0.00000000000E+00 0. -1.
</event>
<event>
 7    1  0.4346085E-013  0.5930195E+02  0.7816164E-02  0.1266605E+00
        -11   -1    0    0    0    0  0.00000000000E+00  0.00000000000E+00  0.45593999997E+02  0.45594000000E+02  0.51100000000E-03 0.  1.
         11   -1    0    0    0    0 -0.00000000000E+00 -0.00000000000E+00 -0.45593999997E+02  0.45594000000E+02  0.51100000000E-03 0. -1.
    9900012    2    1    2    0    0  0.28020123637E+01 -0.31135545838E+02  0.62806376514E+01  0.59301954506E+02  0.50000019110E+02 0.  0.
         12    1    1    2    0    0 -0.28020123637E+01  0.31135545838E+02 -0.62806376514E+01  0.31886045494E+02  0.00000000000E+00 0. -1.
         11    1    3    3    0    0 -0.29533160748E+01 -0.35087080471E+02 -0.13093670794E+02  0.37566867143E+02  0.51100000000E-03 0. -1.
        -11    1    3    3    0    0  0.12446861388E+01  0.25926800133E+01  0.14866346616E+01  0.32374860793E+01  0.51100000000E-03 0.  1.
         12    1    3    3    0    0  0.45106422997E+01  0.13588546195E+01  0.17887673784E+02  0.18497601283E+02  0.00000000000E+00 0. -1.
</event>
<event>
 7    1  0.4346085E-013  0.5930194E+02  0.7816164E-02  0.1266605E+00
        -11   -1    0    0    0    0  0.00000000000E+00  0.00000000000E+00  0.45593999997E+02  0.45594000000E+02  0.51100000000E-03 0.  1.
         11   -1    0    0    0    0 -0.00000000000E+00 -0.00000000000E+00 -0.45593999997E+02  0.45594000000E+02  0.51100000000E-03 0. -1.
    9900012    2    1    2    0    0  0.14156051623E+02 -0.16081976319E+02  0.23615605391E+02  0.59301943834E+02  0.49999999646E+02 0.  0.
         12    1    1    2    0    0 -0.14156051623E+02  0.16081976319E+02 -0.23615605391E+02  0.31886056166E+02  0.00000000000E+00 0. -1.
         11    1    3    3    0    0  0.85515386588E+01  0.54169377986E+01 -0.38110717187E+01  0.10816482628E+02  0.51100000000E-03 0. -1.
        -11    1    3    3    0    0  0.77494233611E+01 -0.22210153676E+02  0.34107579431E+02  0.41432734204E+02  0.51100000000E-03 0.  1.
        -12    1    3    3    0    0 -0.21449103972E+01  0.71123955888E+00 -0.66809023214E+01  0.70527270010E+01  0.00000000000E+00 0.  1.
</event>
<event>
 7    1  0.4346085E-013  0.5930193E+02  0.7816164E-02  0.1266605E+00
        -11   -1    0    0    0    0  0.00000000000E+00  0.00000000000E+00  0.45593999997E+02  0.45594000000E+02  0.51100000000E-03 0.  1.
         11   -1    0    0    0    0 -0.00000000000E+00 -0.00000000000E+00 -0.45593999997E+02  0.45594000000E+02  0.51100000000E-03 0. -1.
    9900012    2    1    2    0    0 -0.24607782716E+02  0.14322618720E+01  0.20226888026E+02  0.59301931828E+02  0.49999977751E+02 0.  0.
         12    1    1    2    0    0  0.24607782716E+02 -0.14322618720E+01 -0.20226888026E+02  0.31886068172E+02  0.00000000000E+00 0. -1.
         11    1    3    3    0    0  0.81786129287E+01  0.24389276070E+01  0.17541027097E+02  0.19507068185E+02  0.51100000000E-03 0. -1.
        -11    1    3    3    0    0 -0.18542496050E+02  0.47415205323E+01  0.11258055370E+02  0.22204728949E+02  0.51100000000E-03 0.  1.
         12    1    3    3    0    0 -0.14243899594E+02 -0.57481862673E+01 -0.85721944411E+01  0.17590134694E+02  0.00000000000E+00 0. -1.
</event>
<event>
 7    1  0.4346085E-013  0.5930196E+02  0.7816164E-02  0.1266605E+00
        -11   -1    0    0    0    0  0.00000000000E+00  0.00000000000E+00  0.45593999997E+02  0.45594000000E+02  0.51100000000E-03 0. -1.
         11   -1    0    0    0    0 -0.00000000000E+00 -0.00000000000E+00 -0.45593999997E+02  0.45594000000E+02  0.51100000000E-03 0.  1.
    9900012    2    1    2    0    0  0.13535896048E+02 -0.67124998565E+01 -0.28079203639E+02  0.59301955825E+02  0.50000021515E+02 0.  0.
         12    1    1    2    0    0 -0.13535896048E+02  0.67124998565E+01  0.28079203639E+02  0.31886044175E+02  0.00000000000E+00 0. -1.
         11    1    3    3    0    0 -0.13860538191E+02  0.63134112427E+01 -0.50720167687E+00  0.15239125115E+02  0.51100000000E-03 0. -1.
        -11    1    3    3    0    0  0.23383474892E+02 -0.92780025543E+01 -0.12641210906E+02  0.28154368096E+02  0.51100000000E-03 0.  1.
        -12    1    3    3    0    0  0.40129593464E+01 -0.37479085449E+01 -0.14930791057E+02  0.15908462614E+02  0.00000000000E+00 0.  1.
</event>
<event>
 7    1  0.4346085E-013  0.5930197E+02  0.7816164E-02  0.1266605E+00
        -11   -1    0    0    0    0  0.00000000000E+00  0.00000000000E+00  0.45593999997E+02  0.45594000000E+02  0.51100000000E-03 0.  1.
         11   -1    0    0    0    0 -0.00000000000E+00 -0.00000000000E+00 -0.45593999997E+02  0.45594000000E+02  0.51100000000E-03 0. -1.
    9900012    2    1    2    0    0  0.10106594346E+02  0.27019195588E+02  0.13584510124E+02  0.59301967089E+02  0.50000042059E+02 0.  0.
         12    1    1    2    0    0 -0.10106594346E+02 -0.27019195588E+02 -0.13584510124E+02  0.31886032911E+02  0.00000000000E+00 0. -1.
         11    1    3    3    0    0 -0.51025662297E+01 -0.46594077226E+01  0.15946302022E+02  0.17379033658E+02  0.51100000000E-03 0. -1.
        -11    1    3    3    0    0  0.74488361129E+01  0.32466718771E+02  0.12354954882E+01  0.33333158214E+02  0.51100000000E-03 0.  1.
         12    1    3    3    0    0  0.77603244623E+01 -0.78811546052E+00 -0.35972873862E+01  0.85897752170E+01  0.00000000000E+00 0. -1.
</event>
<event>
 7    1  0.4346085E-013  0.5930195E+02  0.7816164E-02  0.1266605E+00
        -11   -1    0    0    0    0  0.00000000000E+00  0.00000000000E+00  0.45593999997E+02  0.45594000000E+02  0.51100000000E-03 0.  1.
         11   -1    0    0    0    0 -0.00000000000E+00 -0.00000000000E+00 -0.45593999997E+02  0.45594000000E+02  0.51100000000E-03 0. -1.
    9900012    2    1    2    0    0  0.15436777723E+02  0.63962244854E+01  0.27157212765E+02  0.59301952906E+02  0.50000016191E+02 0.  0.
         12    1    1    2    0    0 -0.15436777723E+02 -0.63962244854E+01 -0.27157212765E+02  0.31886047094E+02  0.00000000000E+00 0. -1.
         11    1    3    3    0    0  0.18002532585E+02  0.13580475951E+02  0.23174546465E+01  0.22669166346E+02  0.51100000000E-03 0. -1.
        -11    1    3    3    0    0 -0.94813536839E+00  0.53826418070E+00  0.28081511849E+02  0.28102668859E+02  0.51100000000E-03 0.  1.
        -12    1    3    3    0    0 -0.16176194934E+01 -0.77225156460E+01 -0.32417537309E+01  0.85301177003E+01  0.00000000000E+00 0.  1.
</event>
<event>
 7    1  0.4346085E-013  0.5930176E+02  0.7816164E-02  0.1266605E+00
        -11   -1    0    0    0    0  0.00000000000E+00  0.00000000000E+00  0.45593999997E+02  0.45594000000E+02  0.51100000000E-03 0.  1.
         11   -1    0    0    0    0 -0.00000000000E+00 -0.00000000000E+00 -0.45593999997E+02  0.45594000000E+02  0.51100000000E-03 0. -1.
    9900012    2    1    2    0    0  0.27430219697E+02  0.15268654555E+02  0.55842220858E+01  0.59301760008E+02  0.49999664391E+02 0.  0.
         12    1    1    2    0    0 -0.27430219697E+02 -0.15268654555E+02 -0.55842220858E+01  0.31886239992E+02  0.00000000000E+00 0. -1.
         11    1    3    3    0    0 -0.66750752954E+01 -0.45316432082E+01 -0.17476399818E+01  0.82550994018E+01  0.51100000000E-03 0. -1.
        -11    1    3    3    0    0  0.17334381628E+02  0.26842602558E+02  0.76428281573E+01  0.32854511426E+02  0.51100000000E-03 0.  1.
        -12    1    3    3    0    0  0.16770913364E+02 -0.70423047953E+01 -0.31096608962E+00  0.18192149181E+02  0.00000000000E+00 0.  1.
</event>
<event>
 7    1  0.4346085E-013  0.5930194E+02  0.7816164E-02  0.1266605E+00
        -11   -1    0    0    0    0  0.00000000000E+00  0.00000000000E+00  0.45593999997E+02  0.45594000000E+02  0.51100000000E-03 0.  1.
         11   -1    0    0    0    0 -0.00000000000E+00 -0.00000000000E+00 -0.45593999997E+02  0.45594000000E+02  0.51100000000E-03 0. -1.
    9900012    2    1    2    0    0  0.19715376921E+02 -0.23281115001E+02  0.92743956101E+01  0.59301940087E+02  0.49999992813E+02 0.  0.
         12    1    1    2    0    0 -0.19715376921E+02  0.23281115001E+02 -0.92743956101E+01  0.31886059913E+02  0.00000000000E+00 0. -1.
         11    1    3    3    0    0 -0.79104583707E+01 -0.43448444484E+01  0.10540397568E+02  0.13876347000E+02  0.51100000000E-03 0. -1.
        -11    1    3    3    0    0  0.18095932519E+02 -0.22948940307E+02 -0.10997719805E+02  0.31226054444E+02  0.51100000000E-03 0.  1.
         12    1    3    3    0    0  0.95299027731E+01  0.40126697544E+01  0.97317178475E+01  0.14199538643E+02  0.00000000000E+00 0. -1.
</event>
<event>
 7    1  0.4346085E-013  0.5930192E+02  0.7816164E-02  0.1266605E+00
        -11   -1    0    0    0    0  0.00000000000E+00  0.00000000000E+00  0.45593999997E+02  0.45594000000E+02  0.51100000000E-03 0.  1.
         11   -1    0    0    0    0 -0.00000000000E+00 -0.00000000000E+00 -0.45593999997E+02  0.45594000000E+02  0.51100000000E-03 0. -1.
    9900012    2    1    2    0    0 -0.24117324539E+02 -0.37688475953E+01  0.20515178224E+02  0.59301920080E+02  0.49999956325E+02 0.  0.
         12    1    1    2    0    0  0.24117324539E+02  0.37688475953E+01 -0.20515178224E+02  0.31886079920E+02  0.00000000000E+00 0. -1.
         11    1    3    3    0    0  0.10483769410E+02  0.10794493110E+02  0.48821523977E+01  0.15819795031E+02  0.51100000000E-03 0. -1.
        -11    1    3    3    0    0 -0.23375132332E+02 -0.91590555767E+01  0.17880417269E+02  0.30821979699E+02  0.51100000000E-03 0.  1.
         12    1    3    3    0    0 -0.11225961617E+02 -0.54042851286E+01 -0.22473914425E+01  0.12660145350E+02  0.00000000000E+00 0. -1.
</event>
<event>
 7    1  0.4346085E-013  0.5930195E+02  0.7816164E-02  0.1266605E+00
        -11   -1    0    0    0    0  0.00000000000E+00  0.00000000000E+00  0.45593999997E+02  0.45594000000E+02  0.51100000000E-03 0.  1.
         11   -1    0    0    0    0 -0.00000000000E+00 -0.00000000000E+00 -0.45593999997E+02  0.45594000000E+02  0.51100000000E-03 0. -1.
    9900012    2    1    2    0    0  0.29153735046E+02 -0.77306654625E+01  0.10344903237E+02  0.59301945390E+02  0.50000002485E+02 0.  0.
         12    1    1    2    0    0 -0.29153735046E+02  0.77306654625E+01 -0.10344903237E+02  0.31886054610E+02  0.00000000000E+00 0. -1.
         11    1    3    3    0    0  0.17272673541E+02  0.47304281577E+01  0.29755998111E+01  0.18154239072E+02  0.51100000000E-03 0. -1.
        -11    1    3    3    0    0  0.14714440641E+02 -0.21386982774E+02 -0.41633695469E+01  0.26291661070E+02  0.51100000000E-03 0.  1.
        -12    1    3    3    0    0 -0.28333791366E+01  0.89258891536E+01  0.11532672973E+02  0.14856045248E+02  0.00000000000E+00 0.  1.
</event>
<event>
 7    1  0.4346085E-013  0.5930195E+02  0.7816164E-02  0.1266605E+00
        -11   -1    0    0    0    0  0.00000000000E+00  0.00000000000E+00  0.45593999997E+02  0.45594000000E+02  0.51100000000E-03 0.  1.
         11   -1    0    0    0    0 -0.00000000000E+00 -0.00000000000E+00 -0.45593999997E+02  0.45594000000E+02  0.51100000000E-03 0. -1.
    9900012    2    1    2    0    0  0.31418934600E+02 -0.32125362682E+01  0.43875501404E+01  0.59301946044E+02  0.50000003676E+02 0.  0.
         12    1    1    2    0    0 -0.31418934600E+02  0.32125362682E+01 -0.43875501404E+01  0.31886053956E+02  0.00000000000E+00 0. -1.
         11    1    3    3    0    0 -0.42026516167E+01 -0.29908415023E+01 -0.14612392299E+02  0.15496109914E+02  0.51100000000E-03 0. -1.
        -11    1    3    3    0    0  0.30227296243E+02 -0.66553114030E+01  0.16334184039E+02  0.34996973819E+02  0.51100000000E-03 0.  1.
         12    1    3    3    0    0  0.53942899736E+01  0.64336166372E+01  0.26657584004E+01  0.88088623103E+01  0.00000000000E+00 0. -1.
</event>
<event>
 7    1  0.4346085E-013  0.5930180E+02  0.7816164E-02  0.1266605E+00
        -11   -1    0    0    0    0  0.00000000000E+00  0.00000000000E+00  0.45593999997E+02  0.45594000000E+02  0.51100000000E-03 0.  1.
         11   -1    0    0    0    0 -0.00000000000E+00 -0.00000000000E+00 -0.45593999997E+02  0.45594000000E+02  0.51100000000E-03 0. -1.
    9900012    2    1    2    0    0 -0.20531818140E+02  0.13671442567E+02  0.20205589244E+02  0.59301800247E+02  0.49999737777E+02 0.  0.
         12    1    1    2    0    0  0.20531818140E+02 -0.13671442567E+02 -0.20205589244E+02  0.31886199753E+02  0.00000000000E+00 0. -1.
         11    1    3    3    0    0 -0.86243850344E+01  0.16728621596E+02 -0.21639645598E+01  0.18944908039E+02  0.51100000000E-03 0. -1.
        -11    1    3    3    0    0  0.49421842327E+00 -0.14868614375E+02  0.16585988690E+02  0.22280371774E+02  0.51100000000E-03 0.  1.
        -12    1    3    3    0    0 -0.12401651529E+02  0.11811435346E+02  0.57835651137E+01  0.18076520434E+02  0.00000000000E+00 0.  1.
</event>
<event>
 7    1  0.5713954E-013  0.5930233E+02  0.7816164E-02  0.1266603E+00
        -11   -1    0    0    0    0  0.00000000000E+00  0.00000000000E+00  0.45593999997E+02  0.45594000000E+02  0.51100000000E-03 0. -1.
         11   -1    0    0    0    0 -0.00000000000E+00 -0.00000000000E+00 -0.45593999997E+02  0.45594000000E+02  0.51100000000E-03 0.  1.
    9900012    2    1    2    0    0 -0.74473853470E+01 -0.28471953184E+02  0.12271108445E+02  0.59302332858E+02  0.50000709128E+02 0.  0.
         12    1    1    2    0    0  0.74473853470E+01  0.28471953184E+02 -0.12271108445E+02  0.31885667142E+02  0.00000000000E+00 0. -1.
         11    1    3    3    0    0 -0.27631757682E+01 -0.21287354074E+01 -0.12986002911E+02  0.13446297878E+02  0.51100000000E-03 0.  1.
        -11    1    3    3    0    0  0.21418488839E+01 -0.27645844652E+02  0.10693124693E+02  0.29719070630E+02  0.51100000000E-03 0. -1.
        -12    1    3    3    0    0 -0.68260584627E+01  0.13026268754E+01  0.14563986663E+02  0.16136964350E+02  0.00000000000E+00 0.  1.
</event>
<event>
 7    1  0.4346085E-013  0.5930194E+02  0.7816164E-02  0.1266605E+00
        -11   -1    0    0    0    0  0.00000000000E+00  0.00000000000E+00  0.45593999997E+02  0.45594000000E+02  0.51100000000E-03 0.  1.
         11   -1    0    0    0    0 -0.00000000000E+00 -0.00000000000E+00 -0.45593999997E+02  0.45594000000E+02  0.51100000000E-03 0. -1.
    9900012    2    1    2    0    0  0.18430373457E+01 -0.18463837613E+02  0.25930887519E+02  0.59301937001E+02  0.49999987184E+02 0.  0.
         12    1    1    2    0    0 -0.18430373457E+01  0.18463837613E+02 -0.25930887519E+02  0.31886062999E+02  0.00000000000E+00 0. -1.
         11    1    3    3    0    0  0.22261973945E+00 -0.20254523031E+02  0.36205537295E+02  0.41486578478E+02  0.51100000000E-03 0. -1.
        -11    1    3    3    0    0 -0.23675444825E-01 -0.62024242854E+01 -0.30296770747E+01  0.69028668668E+01  0.51100000000E-03 0.  1.
         12    1    3    3    0    0  0.16440930511E+01  0.79931097032E+01 -0.72449727012E+01  0.10912491655E+02  0.00000000000E+00 0. -1.
</event>
<event>
 7    1  0.4346085E-013  0.5930196E+02  0.7816164E-02  0.1266605E+00
        -11   -1    0    0    0    0  0.00000000000E+00  0.00000000000E+00  0.45593999997E+02  0.45594000000E+02  0.51100000000E-03 0. -1.
         11   -1    0    0    0    0 -0.00000000000E+00 -0.00000000000E+00 -0.45593999997E+02  0.45594000000E+02  0.51100000000E-03 0.  1.
    9900012    2    1    2    0    0 -0.30711633631E+02 -0.58882309612E+01 -0.62324795118E+01  0.59301960657E+02  0.50000030328E+02 0.  0.
         12    1    1    2    0    0  0.30711633631E+02  0.58882309612E+01  0.62324795118E+01  0.31886039343E+02  0.00000000000E+00 0. -1.
         11    1    3    3    0    0 -0.14745635624E+02 -0.25079504683E+01  0.14157405747E+02  0.20595041230E+02  0.51100000000E-03 0. -1.
        -11    1    3    3    0    0 -0.18739022354E+02  0.84942625077E+01 -0.11102289739E+02  0.23378714508E+02  0.51100000000E-03 0.  1.
         12    1    3    3    0    0  0.27730243471E+01 -0.11874543001E+02 -0.92875955201E+01  0.15328204919E+02  0.00000000000E+00 0. -1.
</event>
<event>
 7    1  0.4346085E-013  0.5930195E+02  0.7816164E-02  0.1266605E+00
        -11   -1    0    0    0    0  0.00000000000E+00  0.00000000000E+00  0.45593999997E+02  0.45594000000E+02  0.51100000000E-03 0. -1.
         11   -1    0    0    0    0 -0.00000000000E+00 -0.00000000000E+00 -0.45593999997E+02  0.45594000000E+02  0.51100000000E-03 0.  1.
    9900012    2    1    2    0    0 -0.30435011964E+02  0.78104561554E+01 -0.54246573660E+01  0.59301951544E+02  0.50000013707E+02 0.  0.
         12    1    1    2    0    0  0.30435011964E+02 -0.78104561554E+01  0.54246573660E+01  0.31886048456E+02  0.00000000000E+00 0. -1.
         11    1    3    3    0    0 -0.21314827542E+02 -0.18650836700E+02  0.27944956130E+01  0.28460231706E+02  0.51100000000E-03 0. -1.
        -11    1    3    3    0    0 -0.88977212846E+01  0.13531766080E+02 -0.76154930719E+01  0.17896197146E+02  0.51100000000E-03 0.  1.
         12    1    3    3    0    0 -0.22246313745E+00  0.12929526775E+02 -0.60365990716E+00  0.12945522692E+02  0.00000000000E+00 0. -1.
</event>
<event>
 7    1  0.4346085E-013  0.5930194E+02  0.7816164E-02  0.1266605E+00
        -11   -1    0    0    0    0  0.00000000000E+00  0.00000000000E+00  0.45593999997E+02  0.45594000000E+02  0.51100000000E-03 0.  1.
         11   -1    0    0    0    0 -0.00000000000E+00 -0.00000000000E+00 -0.45593999997E+02  0.45594000000E+02  0.51100000000E-03 0. -1.
    9900012    2    1    2    0    0 -0.38168311413E+01 -0.14335202040E+02  0.28225069523E+02  0.59301940867E+02  0.49999994235E+02 0.  0.
         12    1    1    2    0    0  0.38168311413E+01  0.14335202040E+02 -0.28225069523E+02  0.31886059133E+02  0.00000000000E+00 0. -1.
         11    1    3    3    0    0 -0.52994364442E+00 -0.85379467650E+01  0.27028976948E+00  0.85586466249E+01  0.51100000000E-03 0. -1.
        -11    1    3    3    0    0  0.89298531384E+01  0.97931634975E+00  0.34258391229E+02  0.35416644498E+02  0.51100000000E-03 0.  1.
        -12    1    3    3    0    0 -0.12216740635E+02 -0.67765716248E+01 -0.63036114760E+01  0.15326649744E+02  0.00000000000E+00 0.  1.
</event>
<event>
 7    1  0.4346085E-013  0.5930198E+02  0.7816164E-02  0.1266605E+00
        -11   -1    0    0    0    0  0.00000000000E+00  0.00000000000E+00  0.45593999997E+02  0.45594000000E+02  0.51100000000E-03 0.  1.
         11   -1    0    0    0    0 -0.00000000000E+00 -0.00000000000E+00 -0.45593999997E+02  0.45594000000E+02  0.51100000000E-03 0. -1.
    9900012    2    1    2    0    0 -0.23064643356E+02 -0.20980625452E+02 -0.66748643717E+01  0.59301980620E+02  0.50000066735E+02 0.  0.
         12    1    1    2    0    0  0.23064643356E+02  0.20980625452E+02  0.66748643717E+01  0.31886019380E+02  0.00000000000E+00 0. -1.
         11    1    3    3    0    0 -0.25676350941E+02 -0.22185123251E+02 -0.63952086624E+01  0.34530470391E+02  0.51100000000E-03 0. -1.
        -11    1    3    3    0    0 -0.87050262376E+01  0.47889555916E+01  0.57266985817E+01  0.11467635081E+02  0.51100000000E-03 0.  1.
         12    1    3    3    0    0  0.11316733822E+02 -0.35844577926E+01 -0.60063542910E+01  0.13303875148E+02  0.00000000000E+00 0. -1.
</event>
<event>
 7    1  0.4346085E-013  0.5930193E+02  0.7816164E-02  0.1266605E+00
        -11   -1    0    0    0    0  0.00000000000E+00  0.00000000000E+00  0.45593999997E+02  0.45594000000E+02  0.51100000000E-03 0. -1.
         11   -1    0    0    0    0 -0.00000000000E+00 -0.00000000000E+00 -0.45593999997E+02  0.45594000000E+02  0.51100000000E-03 0.  1.
    9900012    2    1    2    0    0  0.37284866787E+01  0.15395160754E+02 -0.27673247208E+02  0.59301934100E+02  0.49999981894E+02 0.  0.
         12    1    1    2    0    0 -0.37284866787E+01 -0.15395160754E+02  0.27673247208E+02  0.31886065900E+02  0.00000000000E+00 0. -1.
         11    1    3    3    0    0  0.20128107924E+02  0.38660536507E+01  0.28265298179E+01  0.20690006537E+02  0.51100000000E-03 0. -1.
        -11    1    3    3    0    0 -0.83234696258E+01  0.13237152169E+01 -0.20608625527E+02  0.22265395010E+02  0.51100000000E-03 0.  1.
         12    1    3    3    0    0 -0.80761516195E+01  0.10205391886E+02 -0.98911514991E+01  0.16346532553E+02  0.00000000000E+00 0. -1.
</event>
<event>
 7    1  0.4346085E-013  0.5930194E+02  0.7816164E-02  0.1266605E+00
        -11   -1    0    0    0    0  0.00000000000E+00  0.00000000000E+00  0.45593999997E+02  0.45594000000E+02  0.51100000000E-03 0.  1.
         11   -1    0    0    0    0 -0.00000000000E+00 -0.00000000000E+00 -0.45593999997E+02  0.45594000000E+02  0.51100000000E-03 0. -1.
    9900012    2    1    2    0    0  0.24169019249E+02  0.16544946216E+02  0.12603342909E+02  0.59301937383E+02  0.49999987881E+02 0.  0.
         12    1    1    2    0    0 -0.24169019249E+02 -0.16544946216E+02 -0.12603342909E+02  0.31886062617E+02  0.00000000000E+00 0. -1.
         11    1    3    3    0    0  0.26406853196E+02 -0.91656843921E+01 -0.40911104600E+01  0.28250112410E+02  0.51100000000E-03 0. -1.
        -11    1    3    3    0    0 -0.12204917674E+01  0.22808362696E+02  0.16032095420E+02  0.27905897098E+02  0.51100000000E-03 0.  1.
         12    1    3    3    0    0 -0.10173421797E+01  0.29022679115E+01  0.66235794890E+00  0.31459278748E+01  0.00000000000E+00 0. -1.
</event>
<event>
 7    1  0.4346085E-013  0.5930184E+02  0.7816164E-02  0.1266605E+00
        -11   -1    0    0    0    0  0.00000000000E+00  0.00000000000E+00  0.45593999997E+02  0.45594000000E+02  0.51100000000E-03 0.  1.
         11   -1    0    0    0    0 -0.00000000000E+00 -0.00000000000E+00 -0.45593999997E+02  0.45594000000E+02  0.51100000000E-03 0. -1.
    9900012    2    1    2    0    0  0.17845190189E+02 -0.81396817494E+00  0.26412379322E+02  0.59301840956E+02  0.49999812022E+02 0.  0.
         12    1    1    2    0    0 -0.17845190189E+02  0.81396817494E+00 -0.26412379322E+02  0.31886159044E+02  0.00000000000E+00 0. -1.
         11    1    3    3    0    0 -0.84719248096E+01  0.72682735116E+01  0.41431535736E+01  0.11906596139E+02  0.51100000000E-03 0. -1.
        -11    1    3    3    0    0  0.24559626669E+02 -0.16770882721E+02  0.24177704842E+02  0.38327525110E+02  0.51100000000E-03 0.  1.
         12    1    3    3    0    0  0.17574883301E+01  0.86886410343E+01 -0.19084790932E+01  0.90677197080E+01  0.00000000000E+00 0. -1.
</event>
<event>
 7    1  0.4346085E-013  0.5930184E+02  0.7816164E-02  0.1266605E+00
        -11   -1    0    0    0    0  0.00000000000E+00  0.00000000000E+00  0.45593999997E+02  0.45594000000E+02  0.51100000000E-03 0.  1.
         11   -1    0    0    0    0 -0.00000000000E+00 -0.00000000000E+00 -0.45593999997E+02  0.45594000000E+02  0.51100000000E-03 0. -1.
    9900012    2    1    2    0    0 -0.94738228311E+01  0.30406105296E+02 -0.15629520937E+01  0.59301837209E+02  0.49999805188E+02 0.  0.
         12    1    1    2    0    0  0.94738228311E+01 -0.30406105296E+02  0.15629520937E+01  0.31886162791E+02  0.00000000000E+00 0. -1.
         11    1    3    3    0    0  0.15672254067E+02  0.10694910336E+02 -0.14082031768E+02  0.23628463209E+02  0.51100000000E-03 0. -1.
        -11    1    3    3    0    0 -0.13910747029E+02  0.14063264316E+02  0.32378756702E+01  0.20044154391E+02  0.51100000000E-03 0.  1.
         12    1    3    3    0    0 -0.11235329869E+02  0.56479306442E+01  0.92812040043E+01  0.15629219609E+02  0.00000000000E+00 0. -1.
</event>
<event>
 7    1  0.4346085E-013  0.5930194E+02  0.7816164E-02  0.1266605E+00
        -11   -1    0    0    0    0  0.00000000000E+00  0.00000000000E+00  0.45593999997E+02  0.45594000000E+02  0.51100000000E-03 0.  1.
         11   -1    0    0    0    0 -0.00000000000E+00 -0.00000000000E+00 -0.45593999997E+02  0.45594000000E+02  0.51100000000E-03 0. -1.
    9900012    2    1    2    0    0  0.92341031271E+01  0.29615960477E+02  0.73720319635E+01  0.59301943003E+02  0.49999998131E+02 0.  0.
         12    1    1    2    0    0 -0.92341031271E+01 -0.29615960477E+02 -0.73720319635E+01  0.31886056997E+02  0.00000000000E+00 0. -1.
         11    1    3    3    0    0  0.21544898212E+01  0.96667376855E+01 -0.17975658236E+02  0.20523448374E+02  0.51100000000E-03 0. -1.
        -11    1    3    3    0    0  0.13548134164E+02  0.79914860402E+01  0.14355116480E+02  0.21295190957E+02  0.51100000000E-03 0.  1.
        -12    1    3    3    0    0 -0.64685208586E+01  0.11957736751E+02  0.10992573720E+02  0.17483303672E+02  0.00000000000E+00 0.  1.
</event>
<event>
 7    1  0.4346085E-013  0.5930197E+02  0.7816164E-02  0.1266605E+00
        -11   -1    0    0    0    0  0.00000000000E+00  0.00000000000E+00  0.45593999997E+02  0.45594000000E+02  0.51100000000E-03 0.  1.
         11   -1    0    0    0    0 -0.00000000000E+00 -0.00000000000E+00 -0.45593999997E+02  0.45594000000E+02  0.51100000000E-03 0. -1.
    9900012    2    1    2    0    0 -0.25689195172E+02 -0.13548603494E+01  0.18840078750E+02  0.59301969164E+02  0.50000045843E+02 0.  0.
         12    1    1    2    0    0  0.25689195172E+02  0.13548603494E+01 -0.18840078750E+02  0.31886030836E+02  0.00000000000E+00 0. -1.
         11    1    3    3    0    0  0.27739870761E+01 -0.56029014293E+01  0.18193863821E+02  0.19238092153E+02  0.51100000000E-03 0. -1.
        -11    1    3    3    0    0 -0.49972525777E+01  0.46372720778E+01 -0.11703072194E+02  0.13543955282E+02  0.51100000000E-03 0.  1.
        -12    1    3    3    0    0 -0.23465929671E+02 -0.38923099791E+00  0.12349287123E+02  0.26519921729E+02  0.00000000000E+00 0.  1.
</event>
<event>
 7    1  0.4346085E-013  0.5930193E+02  0.7816164E-02  0.1266605E+00
        -11   -1    0    0    0    0  0.00000000000E+00  0.00000000000E+00  0.45593999997E+02  0.45594000000E+02  0.51100000000E-03 0.  1.
         11   -1    0    0    0    0 -0.00000000000E+00 -0.00000000000E+00 -0.45593999997E+02  0.45594000000E+02  0.51100000000E-03 0. -1.
    9900012    2    1    2    0    0  0.89321684163E+01  0.68235509988E+01  0.29839183840E+02  0.59301931364E+02  0.49999976904E+02 0.  0.
         12    1    1    2    0    0 -0.89321684163E+01 -0.68235509988E+01 -0.29839183840E+02  0.31886068636E+02  0.00000000000E+00 0. -1.
         11    1    3    3    0    0 -0.75351518583E+01 -0.98776731167E+01  0.22301911015E+00  0.12425645960E+02  0.51100000000E-03 0.  1.
        -11    1    3    3    0    0  0.99407765368E+01  0.13509111425E+02  0.40730006953E+00  0.16777396200E+02  0.51100000000E-03 0. -1.
         12    1    3    3    0    0  0.65265437378E+01  0.31921126908E+01  0.29208864660E+02  0.30098889204E+02  0.00000000000E+00 0. -1.
</event>
<event>
 7    1  0.4346085E-013  0.5930193E+02  0.7816164E-02  0.1266605E+00
        -11   -1    0    0    0    0  0.00000000000E+00  0.00000000000E+00  0.45593999997E+02  0.45594000000E+02  0.51100000000E-03 0.  1.
         11   -1    0    0    0    0 -0.00000000000E+00 -0.00000000000E+00 -0.45593999997E+02  0.45594000000E+02  0.51100000000E-03 0. -1.
    9900012    2    1    2    0    0  0.30438874771E+02 -0.82209027270E+01  0.47553348091E+01  0.59301928619E+02  0.49999971897E+02 0.  0.
         12    1    1    2    0    0 -0.30438874771E+02  0.82209027270E+01 -0.47553348091E+01  0.31886071381E+02  0.00000000000E+00 0. -1.
         11    1    3    3    0    0 -0.19427935066E+01 -0.13599707004E+02 -0.79710164941E+01  0.15882807731E+02  0.51100000000E-03 0. -1.
        -11    1    3    3    0    0  0.31464409542E+02  0.12838899405E+02  0.10002563493E+02  0.35424535035E+02  0.51100000000E-03 0.  1.
        -12    1    3    3    0    0  0.91725873566E+00 -0.74600951280E+01  0.27237878104E+01  0.79945858518E+01  0.00000000000E+00 0.  1.
</event>
<event>
 7    1  0.4346085E-013  0.5930193E+02  0.7816164E-02  0.1266605E+00
        -11   -1    0    0    0    0  0.00000000000E+00  0.00000000000E+00  0.45593999997E+02  0.45594000000E+02  0.51100000000E-03 0. -1.
         11   -1    0    0    0    0 -0.00000000000E+00 -0.00000000000E+00 -0.45593999997E+02  0.45594000000E+02  0.51100000000E-03 0.  1.
    9900012    2    1    2    0    0 -0.41515604863E+01  0.31613349705E+02 -0.28704204515E+00  0.59301925811E+02  0.49999966777E+02 0.  0.
         12    1    1    2    0    0  0.41515604863E+01 -0.31613349705E+02  0.28704204515E+00  0.31886074189E+02  0.00000000000E+00 0. -1.
         11    1    3    3    0    0  0.19738728557E+01  0.15350509510E+02 -0.19780002476E+02  0.25115389992E+02  0.51100000000E-03 0.  1.
        -11    1    3    3    0    0 -0.48797516367E+00  0.50981618978E+01  0.20975547418E+02  0.21591733702E+02  0.51100000000E-03 0. -1.
         12    1    3    3    0    0 -0.56374581783E+01  0.11164678297E+02 -0.14825869878E+01  0.12594802117E+02  0.00000000000E+00 0. -1.
</event>
<event>
 7    1  0.4346085E-013  0.5930158E+02  0.7816164E-02  0.1266606E+00
        -11   -1    0    0    0    0  0.00000000000E+00  0.00000000000E+00  0.45593999997E+02  0.45594000000E+02  0.51100000000E-03 0.  1.
         11   -1    0    0    0    0 -0.00000000000E+00 -0.00000000000E+00 -0.45593999997E+02  0.45594000000E+02  0.51100000000E-03 0. -1.
    9900012    2    1    2    0    0  0.27828750261E+02 -0.12222857298E+02  0.96387875355E+01  0.59301579587E+02  0.49999335342E+02 0.  0.
         12    1    1    2    0    0 -0.27828750261E+02  0.12222857298E+02 -0.96387875355E+01  0.31886420413E+02  0.00000000000E+00 0. -1.
         11    1    3    3    0    0  0.15261246206E+02  0.32728008311E+01  0.18453231547E+02  0.24168959759E+02  0.51100000000E-03 0.  1.
        -11    1    3    3    0    0  0.72920921680E+01 -0.22725651446E+02 -0.10415385263E+02  0.26040547081E+02  0.51100000000E-03 0. -1.
         12    1    3    3    0    0  0.52754118874E+01  0.72299933164E+01  0.16009412515E+01  0.90920727465E+01  0.00000000000E+00 0. -1.
</event>
<event>
 7    1  0.4346085E-013  0.5930193E+02  0.7816164E-02  0.1266605E+00
        -11   -1    0    0    0    0  0.00000000000E+00  0.00000000000E+00  0.45593999997E+02  0.45594000000E+02  0.51100000000E-03 0. -1.
         11   -1    0    0    0    0 -0.00000000000E+00 -0.00000000000E+00 -0.45593999997E+02  0.45594000000E+02  0.51100000000E-03 0.  1.
    9900012    2    1    2    0    0  0.16177052195E+02  0.12481996630E+02  0.24479051409E+02  0.59301933835E+02  0.49999981410E+02 0.  0.
         12    1    1    2    0    0 -0.16177052195E+02 -0.12481996630E+02 -0.24479051409E+02  0.31886066165E+02  0.00000000000E+00 0. -1.
         11    1    3    3    0    0  0.74381248463E+01 -0.15992125924E+02  0.13794195496E+02  0.22390927235E+02  0.51100000000E-03 0. -1.
        -11    1    3    3    0    0 -0.32106369754E+01  0.20660248539E+02  0.47009739359E+01  0.21430194019E+02  0.51100000000E-03 0.  1.
         12    1    3    3    0    0  0.11949564324E+02  0.78138740155E+01  0.59838819778E+01  0.15480812582E+02  0.00000000000E+00 0. -1.
</event>
<event>
 7    1  0.4346085E-013  0.5930194E+02  0.7816164E-02  0.1266605E+00
        -11   -1    0    0    0    0  0.00000000000E+00  0.00000000000E+00  0.45593999997E+02  0.45594000000E+02  0.51100000000E-03 0.  1.
         11   -1    0    0    0    0 -0.00000000000E+00 -0.00000000000E+00 -0.45593999997E+02  0.45594000000E+02  0.51100000000E-03 0. -1.
    9900012    2    1    2    0    0  0.11487977540E+02  0.15076304494E+01  0.29706464626E+02  0.59301943202E+02  0.49999998494E+02 0.  0.
         12    1    1    2    0    0 -0.11487977540E+02 -0.15076304494E+01 -0.29706464626E+02  0.31886056798E+02  0.00000000000E+00 0. -1.
         11    1    3    3    0    0 -0.73780819473E+01 -0.19157121509E+01  0.17140695611E+00  0.76246591315E+01  0.51100000000E-03 0. -1.
        -11    1    3    3    0    0  0.18429635614E+02  0.99123437532E+01  0.36546719501E+02  0.42113759439E+02  0.51100000000E-03 0.  1.
        -12    1    3    3    0    0  0.43642387321E+00 -0.64890011529E+01 -0.70116618304E+01  0.95635246318E+01  0.00000000000E+00 0.  1.
</event>
<event>
 7    1  0.4346085E-013  0.5930195E+02  0.7816164E-02  0.1266605E+00
        -11   -1    0    0    0    0  0.00000000000E+00  0.00000000000E+00  0.45593999997E+02  0.45594000000E+02  0.51100000000E-03 0.  1.
         11   -1    0    0    0    0 -0.00000000000E+00 -0.00000000000E+00 -0.45593999997E+02  0.45594000000E+02  0.51100000000E-03 0. -1.
    9900012    2    1    2    0    0 -0.19835548588E+02 -0.69378475647E+01  0.23982026592E+02  0.59301947939E+02  0.50000007133E+02 0.  0.
         12    1    1    2    0    0  0.19835548588E+02  0.69378475647E+01 -0.23982026592E+02  0.31886052061E+02  0.00000000000E+00 0. -1.
         11    1    3    3    0    0 -0.31479210267E+02 -0.89278501738E+01  0.92668008349E+01  0.34007657752E+02  0.51100000000E-03 0. -1.
        -11    1    3    3    0    0  0.86976477259E+01 -0.41372276910E+01  0.15705792563E+02  0.18423833727E+02  0.51100000000E-03 0.  1.
        -12    1    3    3    0    0  0.29460139538E+01  0.61272303002E+01 -0.99056680591E+00  0.68704564597E+01  0.00000000000E+00 0.  1.
</event>
<event>
 7    1  0.4346085E-013  0.5930201E+02  0.7816164E-02  0.1266605E+00
        -11   -1    0    0    0    0  0.00000000000E+00  0.00000000000E+00  0.45593999997E+02  0.45594000000E+02  0.51100000000E-03 0. -1.
         11   -1    0    0    0    0 -0.00000000000E+00 -0.00000000000E+00 -0.45593999997E+02  0.45594000000E+02  0.51100000000E-03 0.  1.
    9900012    2    1    2    0    0  0.12897428483E+02 -0.94022500190E+01 -0.27603808109E+02  0.59302012654E+02  0.50000125158E+02 0.  0.
         12    1    1    2    0    0 -0.12897428483E+02  0.94022500190E+01  0.27603808109E+02  0.31885987346E+02  0.00000000000E+00 0. -1.
         11    1    3    3    0    0 -0.46120026770E+01 -0.13707291151E+00 -0.20085211934E+02  0.20608374423E+02  0.51100000000E-03 0.  1.
        -11    1    3    3    0    0  0.22032208809E+02  0.34021013251E+01  0.17454002196E+01  0.22361550497E+02  0.51100000000E-03 0. -1.
         12    1    3    3    0    0 -0.45227776496E+01 -0.12667278433E+02 -0.92639963947E+01  0.16332087734E+02  0.00000000000E+00 0. -1.
</event>
<event>
 7    1  0.4346085E-013  0.5930186E+02  0.7816164E-02  0.1266605E+00
        -11   -1    0    0    0    0  0.00000000000E+00  0.00000000000E+00  0.45593999997E+02  0.45594000000E+02  0.51100000000E-03 0.  1.
         11   -1    0    0    0    0 -0.00000000000E+00 -0.00000000000E+00 -0.45593999997E+02  0.45594000000E+02  0.51100000000E-03 0. -1.
    9900012    2    1    2    0    0  0.14109321449E+02 -0.46674379028E+01 -0.28211127424E+02  0.59301864473E+02  0.49999854912E+02 0.  0.
         12    1    1    2    0    0 -0.14109321449E+02  0.46674379028E+01  0.28211127424E+02  0.31886135527E+02  0.00000000000E+00 0. -1.
         11    1    3    3    0    0  0.41134483326E+01 -0.73910810681E+01 -0.34309668561E+02  0.35336976294E+02  0.51100000000E-03 0. -1.
        -11    1    3    3    0    0  0.14111382368E+02 -0.38881447511E+01  0.68111005626E+01  0.16144344925E+02  0.51100000000E-03 0.  1.
        -12    1    3    3    0    0 -0.41155092517E+01  0.66117879164E+01 -0.71255942468E+00  0.78205432539E+01  0.00000000000E+00 0.  1.
</event>
<event>
 7    1  0.4346085E-013  0.5930193E+02  0.7816164E-02  0.1266605E+00
        -11   -1    0    0    0    0  0.00000000000E+00  0.00000000000E+00  0.45593999997E+02  0.45594000000E+02  0.51100000000E-03 0. -1.
         11   -1    0    0    0    0 -0.00000000000E+00 -0.00000000000E+00 -0.45593999997E+02  0.45594000000E+02  0.51100000000E-03 0.  1.
    9900012    2    1    2    0    0 -0.29752954721E+02 -0.10648458049E+02 -0.42536072955E+01  0.59301934886E+02  0.49999983328E+02 0.  0.
         12    1    1    2    0    0  0.29752954721E+02  0.10648458049E+02  0.42536072955E+01  0.31886065114E+02  0.00000000000E+00 0. -1.
         11    1    3    3    0    0 -0.67796137838E+01 -0.11237622507E+02  0.21167394211E+02  0.24905941070E+02  0.51100000000E-03 0. -1.
        -11    1    3    3    0    0 -0.11837748546E+02  0.11405361893E+01 -0.11309067048E+02  0.16411219065E+02  0.51100000000E-03 0.  1.
         12    1    3    3    0    0 -0.11135592391E+02 -0.55137173126E+00 -0.14111934459E+02  0.17984774751E+02  0.00000000000E+00 0. -1.
</event>
<event>
 7    1  0.4346085E-013  0.5930173E+02  0.7816164E-02  0.1266606E+00
        -11   -1    0    0    0    0  0.00000000000E+00  0.00000000000E+00  0.45593999997E+02  0.45594000000E+02  0.51100000000E-03 0.  1.
         11   -1    0    0    0    0 -0.00000000000E+00 -0.00000000000E+00 -0.45593999997E+02  0.45594000000E+02  0.51100000000E-03 0. -1.
    9900012    2    1    2    0    0  0.81412959028E+01 -0.30368371594E+02 -0.53118238547E+01  0.59301730778E+02  0.49999611083E+02 0.  0.
         12    1    1    2    0    0 -0.81412959028E+01  0.30368371594E+02  0.53118238547E+01  0.31886269222E+02  0.00000000000E+00 0. -1.
         11    1    3    3    0    0 -0.20685168333E+00 -0.18451625149E+02 -0.20044256975E+02  0.27244770070E+02  0.51100000000E-03 0. -1.
        -11    1    3    3    0    0  0.21336058866E+01 -0.18424145143E+02  0.13575617036E+02  0.22984750955E+02  0.51100000000E-03 0.  1.
         12    1    3    3    0    0  0.62145416995E+01  0.65073986975E+01  0.11568160843E+01  0.90722097527E+01  0.00000000000E+00 0. -1.
</event>
<event>
 7    1  0.4346085E-013  0.5930195E+02  0.7816164E-02  0.1266605E+00
        -11   -1    0    0    0    0  0.00000000000E+00  0.00000000000E+00  0.45593999997E+02  0.45594000000E+02  0.51100000000E-03 0.  1.
         11   -1    0    0    0    0 -0.00000000000E+00 -0.00000000000E+00 -0.45593999997E+02  0.45594000000E+02  0.51100000000E-03 0. -1.
    9900012    2    1    2    0    0  0.10324130634E+02 -0.28437076032E+02  0.10072986215E+02  0.59301952614E+02  0.50000015660E+02 0.  0.
         12    1    1    2    0    0 -0.10324130634E+02  0.28437076032E+02 -0.10072986215E+02  0.31886047386E+02  0.00000000000E+00 0. -1.
         11    1    3    3    0    0 -0.14853842929E+02 -0.37467944196E+01 -0.74329328222E+01  0.17027143295E+02  0.51100000000E-03 0. -1.
        -11    1    3    3    0    0  0.75595996352E+01 -0.20480133103E+01  0.98446825548E+01  0.12580130366E+02  0.51100000000E-03 0.  1.
         12    1    3    3    0    0  0.17618373928E+02 -0.22642268302E+02  0.76612364826E+01  0.29694678954E+02  0.00000000000E+00 0. -1.
</event>
<event>
 7    1  0.4346085E-013  0.5930199E+02  0.7816164E-02  0.1266605E+00
        -11   -1    0    0    0    0  0.00000000000E+00  0.00000000000E+00  0.45593999997E+02  0.45594000000E+02  0.51100000000E-03 0.  1.
         11   -1    0    0    0    0 -0.00000000000E+00 -0.00000000000E+00 -0.45593999997E+02  0.45594000000E+02  0.51100000000E-03 0. -1.
    9900012    2    1    2    0    0  0.67150922886E+01 -0.20934895702E+02 -0.23094484681E+02  0.59301991388E+02  0.50000086374E+02 0.  0.
         12    1    1    2    0    0 -0.67150922886E+01  0.20934895702E+02  0.23094484681E+02  0.31886008612E+02  0.00000000000E+00 0. -1.
         11    1    3    3    0    0 -0.89273076038E+01  0.13480268178E+01  0.49117451120E+00  0.90418609819E+01  0.51100000000E-03 0. -1.
        -11    1    3    3    0    0  0.22743334059E+02 -0.12811076684E+02 -0.26866256107E+01  0.26241205905E+02  0.51100000000E-03 0.  1.
        -12    1    3    3    0    0 -0.71009341663E+01 -0.94718458355E+01 -0.20899033581E+02  0.24018924501E+02  0.00000000000E+00 0.  1.
</event>
<event>
 7    1  0.4346085E-013  0.5930196E+02  0.7816164E-02  0.1266605E+00
        -11   -1    0    0    0    0  0.00000000000E+00  0.00000000000E+00  0.45593999997E+02  0.45594000000E+02  0.51100000000E-03 0.  1.
         11   -1    0    0    0    0 -0.00000000000E+00 -0.00000000000E+00 -0.45593999997E+02  0.45594000000E+02  0.51100000000E-03 0. -1.
    9900012    2    1    2    0    0  0.30505098311E+02  0.23248509914E+01 -0.89862836753E+01  0.59301964665E+02  0.50000037638E+02 0.  0.
         12    1    1    2    0    0 -0.30505098311E+02 -0.23248509914E+01  0.89862836753E+01  0.31886035335E+02  0.00000000000E+00 0. -1.
         11    1    3    3    0    0 -0.29736499727E+01 -0.54364442693E+01 -0.15743717388E+02  0.16919283611E+02  0.51100000000E-03 0. -1.
        -11    1    3    3    0    0  0.14219030213E+02 -0.62141411890E+01  0.98600971496E+01  0.18385262766E+02  0.51100000000E-03 0.  1.
         12    1    3    3    0    0  0.19259718071E+02  0.13975436450E+02 -0.31026634373E+01  0.23997418289E+02  0.00000000000E+00 0. -1.
</event>
<event>
 7    1  0.4346085E-013  0.5930193E+02  0.7816164E-02  0.1266605E+00
        -11   -1    0    0    0    0  0.00000000000E+00  0.00000000000E+00  0.45593999997E+02  0.45594000000E+02  0.51100000000E-03 0. -1.
         11   -1    0    0    0    0 -0.00000000000E+00 -0.00000000000E+00 -0.45593999997E+02  0.45594000000E+02  0.51100000000E-03 0.  1.
    9900012    2    1    2    0    0  0.28298480608E+02  0.14693170223E+02  0.16783371442E+00  0.59301930564E+02  0.49999975446E+02 0.  0.
         12    1    1    2    0    0 -0.28298480608E+02 -0.14693170223E+02 -0.16783371442E+00  0.31886069436E+02  0.00000000000E+00 0. -1.
         11    1    3    3    0    0  0.10183481471E+02 -0.74297042818E+01  0.57352651877E+01  0.13849081833E+02  0.51100000000E-03 0. -1.
        -11    1    3    3    0    0 -0.37584673881E+01  0.22887103543E+02 -0.36943239317E+01  0.23486030215E+02  0.51100000000E-03 0.  1.
        -12    1    3    3    0    0  0.21873466525E+02 -0.76422903869E+00 -0.18731075416E+01  0.21966818516E+02  0.00000000000E+00 0.  1.
</event>
<event>
 7    1  0.4346085E-013  0.5930192E+02  0.7816164E-02  0.1266605E+00
        -11   -1    0    0    0    0  0.00000000000E+00  0.00000000000E+00  0.45593999997E+02  0.45594000000E+02  0.51100000000E-03 0.  1.
         11   -1    0    0    0    0 -0.00000000000E+00 -0.00000000000E+00 -0.45593999997E+02  0.45594000000E+02  0.51100000000E-03 0. -1.
    9900012    2    1    2    0    0  0.25536810566E+02 -0.90518405506E+01  0.16812422942E+02  0.59301920335E+02  0.49999956789E+02 0.  0.
         12    1    1    2    0    0 -0.25536810566E+02  0.90518405506E+01 -0.16812422942E+02  0.31886079665E+02  0.00000000000E+00 0. -1.
         11    1    3    3    0    0  0.48275848459E+01 -0.92529711968E+01 -0.13609380556E+02  0.17150460367E+02  0.51100000000E-03 0. -1.
        -11    1    3    3    0    0  0.10376285022E+02 -0.89053317980E+01  0.22310585445E+02  0.26167431063E+02  0.51100000000E-03 0.  1.
         12    1    3    3    0    0  0.10332940698E+02  0.91064624441E+01  0.81112180538E+01  0.15984028905E+02  0.00000000000E+00 0. -1.
</event>
<event>
 7    1  0.4346085E-013  0.5930194E+02  0.7816164E-02  0.1266605E+00
        -11   -1    0    0    0    0  0.00000000000E+00  0.00000000000E+00  0.45593999997E+02  0.45594000000E+02  0.51100000000E-03 0.  1.
         11   -1    0    0    0    0 -0.00000000000E+00 -0.00000000000E+00 -0.45593999997E+02  0.45594000000E+02  0.51100000000E-03 0. -1.
    9900012    2    1    2    0    0 -0.56410408580E+00  0.27419876298E+02  0.16265079279E+02  0.59301942960E+02  0.49999998053E+02 0.  0.
         12    1    1    2    0    0  0.56410408580E+00 -0.27419876298E+02 -0.16265079279E+02  0.31886057040E+02  0.00000000000E+00 0. -1.
         11    1    3    3    0    0 -0.12103563483E+02  0.51547607951E+01  0.23035607247E+01  0.13355680443E+02  0.51100000000E-03 0. -1.
        -11    1    3    3    0    0  0.66955834855E+01  0.32098112289E+02  0.11109808426E+02  0.34620044689E+02  0.51100000000E-03 0.  1.
        -12    1    3    3    0    0  0.48438759113E+01 -0.98329967860E+01  0.28517101279E+01  0.11326217828E+02  0.00000000000E+00 0.  1.
</event>
<event>
 7    1  0.4346085E-013  0.5930196E+02  0.7816164E-02  0.1266605E+00
        -11   -1    0    0    0    0  0.00000000000E+00  0.00000000000E+00  0.45593999997E+02  0.45594000000E+02  0.51100000000E-03 0. -1.
         11   -1    0    0    0    0 -0.00000000000E+00 -0.00000000000E+00 -0.45593999997E+02  0.45594000000E+02  0.51100000000E-03 0.  1.
    9900012    2    1    2    0    0  0.14826986731E+01 -0.24913592060E+02 -0.19845259516E+02  0.59301956189E+02  0.50000022179E+02 0.  0.
         12    1    1    2    0    0 -0.14826986731E+01  0.24913592060E+02  0.19845259516E+02  0.31886043811E+02  0.00000000000E+00 0. -1.
         11    1    3    3    0    0  0.13175176146E+02 -0.60356171601E+01 -0.18927491063E+02  0.23838285576E+02  0.51100000000E-03 0. -1.
        -11    1    3    3    0    0 -0.12361323310E+02  0.30149400603E+01 -0.40161626953E+01  0.13342478803E+02  0.51100000000E-03 0.  1.
         12    1    3    3    0    0  0.66884583686E+00 -0.21892914960E+02  0.30983942426E+01  0.22121191810E+02  0.00000000000E+00 0. -1.
</event>
<event>
 7    1  0.4346085E-013  0.5930193E+02  0.7816164E-02  0.1266605E+00
        -11   -1    0    0    0    0  0.00000000000E+00  0.00000000000E+00  0.45593999997E+02  0.45594000000E+02  0.51100000000E-03 0. -1.
         11   -1    0    0    0    0 -0.00000000000E+00 -0.00000000000E+00 -0.45593999997E+02  0.45594000000E+02  0.51100000000E-03 0.  1.
    9900012    2    1    2    0    0  0.52557497691E+01  0.22939690527E+02  0.21514387170E+02  0.59301934667E+02  0.49999982928E+02 0.  0.
         12    1    1    2    0    0 -0.52557497691E+01 -0.22939690527E+02 -0.21514387170E+02  0.31886065333E+02  0.00000000000E+00 0. -1.
         11    1    3    3    0    0 -0.20221456777E+02  0.96858071016E+01  0.20518810059E+02  0.30393152846E+02  0.51100000000E-03 0. -1.
        -11    1    3    3    0    0  0.46904558624E+01  0.38777358237E+01  0.61691788292E-01  0.60861332103E+01  0.51100000000E-03 0.  1.
         12    1    3    3    0    0  0.20786750683E+02  0.93761476017E+01  0.93388532276E+00  0.22822648611E+02  0.00000000000E+00 0. -1.
</event>
<event>
 7    1  0.4346085E-013  0.5930194E+02  0.7816164E-02  0.1266605E+00
        -11   -1    0    0    0    0  0.00000000000E+00  0.00000000000E+00  0.45593999997E+02  0.45594000000E+02  0.51100000000E-03 0.  1.
         11   -1    0    0    0    0 -0.00000000000E+00 -0.00000000000E+00 -0.45593999997E+02  0.45594000000E+02  0.51100000000E-03 0. -1.
    9900012    2    1    2    0    0  0.13153072864E+02 -0.98580481321E+01  0.27322812707E+02  0.59301944538E+02  0.50000000930E+02 0.  0.
         12    1    1    2    0    0 -0.13153072864E+02  0.98580481321E+01 -0.27322812707E+02  0.31886055462E+02  0.00000000000E+00 0. -1.
         11    1    3    3    0    0  0.16737634548E+02  0.41784569353E+01 -0.39367562180E+01  0.17694800434E+02  0.51100000000E-03 0.  1.
        -11    1    3    3    0    0 -0.90243598304E+01  0.17249761788E+01  0.18343810754E+02  0.20516091402E+02  0.51100000000E-03 0. -1.
        -12    1    3    3    0    0  0.54397981467E+01 -0.15761481246E+02  0.12915758171E+02  0.21091052702E+02  0.00000000000E+00 0.  1.
</event>
<event>
 7    1  0.4346085E-013  0.5930195E+02  0.7816164E-02  0.1266605E+00
        -11   -1    0    0    0    0  0.00000000000E+00  0.00000000000E+00  0.45593999997E+02  0.45594000000E+02  0.51100000000E-03 0. -1.
         11   -1    0    0    0    0 -0.00000000000E+00 -0.00000000000E+00 -0.45593999997E+02  0.45594000000E+02  0.51100000000E-03 0.  1.
    9900012    2    1    2    0    0  0.20770192787E+02  0.28519166771E+00 -0.24191686398E+02  0.59301953938E+02  0.50000018074E+02 0.  0.
         12    1    1    2    0    0 -0.20770192787E+02 -0.28519166771E+00  0.24191686398E+02  0.31886046062E+02  0.00000000000E+00 0. -1.
         11    1    3    3    0    0  0.24839044827E+02 -0.15353723201E+01 -0.57462767306E+00  0.24893085653E+02  0.51100000000E-03 0. -1.
        -11    1    3    3    0    0  0.42852502029E+01 -0.92046362615E+01 -0.14994711401E+02  0.18108839506E+02  0.51100000000E-03 0.  1.
         12    1    3    3    0    0 -0.83541022433E+01  0.11025200249E+02 -0.86223473236E+01  0.16300028779E+02  0.00000000000E+00 0. -1.
</event>
<event>
 7    1  0.4346085E-013  0.5930195E+02  0.7816164E-02  0.1266605E+00
        -11   -1    0    0    0    0  0.00000000000E+00  0.00000000000E+00  0.45593999997E+02  0.45594000000E+02  0.51100000000E-03 0.  1.
         11   -1    0    0    0    0 -0.00000000000E+00 -0.00000000000E+00 -0.45593999997E+02  0.45594000000E+02  0.51100000000E-03 0. -1.
    9900012    2    1    2    0    0  0.14892766990E+02 -0.20158569808E+02  0.19711863537E+02  0.59301952747E+02  0.50000015902E+02 0.  0.
         12    1    1    2    0    0 -0.14892766990E+02  0.20158569808E+02 -0.19711863537E+02  0.31886047253E+02  0.00000000000E+00 0. -1.
         11    1    3    3    0    0 -0.11072333934E+02 -0.17553272377E+02  0.99831746409E+01  0.23029931091E+02  0.51100000000E-03 0. -1.
        -11    1    3    3    0    0  0.21240698273E+02 -0.98237427519E+01  0.17971008950E+00  0.23403108357E+02  0.51100000000E-03 0.  1.
        -12    1    3    3    0    0  0.47244026508E+01  0.72184453211E+01  0.95489788067E+01  0.12868913300E+02  0.00000000000E+00 0.  1.
</event>
<event>
 7    1  0.4346085E-013  0.5930194E+02  0.7816164E-02  0.1266605E+00
        -11   -1    0    0    0    0  0.00000000000E+00  0.00000000000E+00  0.45593999997E+02  0.45594000000E+02  0.51100000000E-03 0. -1.
         11   -1    0    0    0    0 -0.00000000000E+00 -0.00000000000E+00 -0.45593999997E+02  0.45594000000E+02  0.51100000000E-03 0.  1.
    9900012    2    1    2    0    0 -0.28458841367E+02  0.12404983090E+02 -0.72754183401E+01  0.59301937693E+02  0.49999988448E+02 0.  0.
         12    1    1    2    0    0  0.28458841367E+02 -0.12404983090E+02  0.72754183401E+01  0.31886062307E+02  0.00000000000E+00 0. -1.
         11    1    3    3    0    0 -0.19419098998E+02 -0.69290515076E+01  0.92937304999E+00  0.20639207718E+02  0.51100000000E-03 0. -1.
        -11    1    3    3    0    0  0.98091380797E+00  0.25566719216E+02 -0.29852174502E+01  0.25759092509E+02  0.51100000000E-03 0.  1.
        -12    1    3    3    0    0 -0.10020656177E+02 -0.62326846186E+01 -0.52195739400E+01  0.12903637467E+02  0.00000000000E+00 0.  1.
</event>
<event>
 7    1  0.4346085E-013  0.5930200E+02  0.7816164E-02  0.1266605E+00
        -11   -1    0    0    0    0  0.00000000000E+00  0.00000000000E+00  0.45593999997E+02  0.45594000000E+02  0.51100000000E-03 0.  1.
         11   -1    0    0    0    0 -0.00000000000E+00 -0.00000000000E+00 -0.45593999997E+02  0.45594000000E+02  0.51100000000E-03 0. -1.
    9900012    2    1    2    0    0  0.49050234101E+00 -0.63281081990E+01  0.31247908153E+02  0.59301995079E+02  0.50000093104E+02 0.  0.
         12    1    1    2    0    0 -0.49050234101E+00  0.63281081990E+01 -0.31247908153E+02  0.31886004921E+02  0.00000000000E+00 0. -1.
         11    1    3    3    0    0  0.17063524447E+02  0.21185591460E+00  0.15326990950E+02  0.22937423598E+02  0.51100000000E-03 0. -1.
        -11    1    3    3    0    0 -0.21121693103E+02 -0.12983606436E+02  0.12523857913E+02  0.27776734382E+02  0.51100000000E-03 0.  1.
        -12    1    3    3    0    0  0.45486709971E+01  0.64436423226E+01  0.33970592904E+01  0.85878370993E+01  0.00000000000E+00 0.  1.
</event>
<event>
 7    1  0.4346085E-013  0.5930195E+02  0.7816164E-02  0.1266605E+00
        -11   -1    0    0    0    0  0.00000000000E+00  0.00000000000E+00  0.45593999997E+02  0.45594000000E+02  0.51100000000E-03 0.  1.
         11   -1    0    0    0    0 -0.00000000000E+00 -0.00000000000E+00 -0.45593999997E+02  0.45594000000E+02  0.51100000000E-03 0. -1.
    9900012    2    1    2    0    0 -0.30646779118E+02  0.85081716234E+01  0.22597033777E+01  0.59301947970E+02  0.50000007190E+02 0.  0.
         12    1    1    2    0    0  0.30646779118E+02 -0.85081716234E+01 -0.22597033777E+01  0.31886052030E+02  0.00000000000E+00 0. -1.
         11    1    3    3    0    0  0.74178810983E+01 -0.57883288641E+01 -0.80620742575E+01  0.12390591294E+02  0.51100000000E-03 0. -1.
        -11    1    3    3    0    0 -0.14503920794E+02  0.54074068796E+01  0.14705545485E+02  0.21350804103E+02  0.51100000000E-03 0.  1.
        -12    1    3    3    0    0 -0.23560739422E+02  0.88890936079E+01 -0.43837678498E+01  0.25560552573E+02  0.00000000000E+00 0.  1.
</event>
<event>
 7    1  0.4346085E-013  0.5930193E+02  0.7816164E-02  0.1266605E+00
        -11   -1    0    0    0    0  0.00000000000E+00  0.00000000000E+00  0.45593999997E+02  0.45594000000E+02  0.51100000000E-03 0. -1.
         11   -1    0    0    0    0 -0.00000000000E+00 -0.00000000000E+00 -0.45593999997E+02  0.45594000000E+02  0.51100000000E-03 0.  1.
    9900012    2    1    2    0    0 -0.25081066320E+02  0.14882039995E+02  0.12891320499E+02  0.59301934919E+02  0.49999983387E+02 0.  0.
         12    1    1    2    0    0  0.25081066320E+02 -0.14882039995E+02 -0.12891320499E+02  0.31886065081E+02  0.00000000000E+00 0. -1.
         11    1    3    3    0    0 -0.56372135216E+01  0.34936067599E+01  0.67941338313E+01  0.94944046290E+01  0.51100000000E-03 0. -1.
        -11    1    3    3    0    0 -0.18014504437E+02  0.15766897105E+02 -0.14975096685E+02  0.28237757266E+02  0.51100000000E-03 0.  1.
        -12    1    3    3    0    0 -0.14293483611E+01 -0.43784638693E+01  0.21072283353E+02  0.21569773024E+02  0.00000000000E+00 0.  1.
</event>
<event>
 7    1  0.4346085E-013  0.5930194E+02  0.7816164E-02  0.1266605E+00
        -11   -1    0    0    0    0  0.00000000000E+00  0.00000000000E+00  0.45593999997E+02  0.45594000000E+02  0.51100000000E-03 0. -1.
         11   -1    0    0    0    0 -0.00000000000E+00 -0.00000000000E+00 -0.45593999997E+02  0.45594000000E+02  0.51100000000E-03 0.  1.
    9900012    2    1    2    0    0 -0.20459913828E+02  0.15658762358E+02  0.18786049038E+02  0.59301944256E+02  0.50000000417E+02 0.  0.
         12    1    1    2    0    0  0.20459913828E+02 -0.15658762358E+02 -0.18786049038E+02  0.31886055744E+02  0.00000000000E+00 0. -1.
         11    1    3    3    0    0 -0.95686991708E+00  0.58007386955E+01  0.84689188049E+01  0.10309546810E+02  0.51100000000E-03 0. -1.
        -11    1    3    3    0    0 -0.25864993094E+02 -0.52154747285E+01 -0.46804923331E+01  0.26797500875E+02  0.51100000000E-03 0.  1.
        -12    1    3    3    0    0  0.63619491832E+01  0.15073498391E+02  0.14997622566E+02  0.22194896571E+02  0.00000000000E+00 0.  1.
</event>
<event>
 7    1  0.4346085E-013  0.5930198E+02  0.7816164E-02  0.1266605E+00
        -11   -1    0    0    0    0  0.00000000000E+00  0.00000000000E+00  0.45593999997E+02  0.45594000000E+02  0.51100000000E-03 0. -1.
         11   -1    0    0    0    0 -0.00000000000E+00 -0.00000000000E+00 -0.45593999997E+02  0.45594000000E+02  0.51100000000E-03 0.  1.
    9900012    2    1    2    0    0  0.77855949846E+00 -0.16977160048E+02 -0.26979406247E+02  0.59301976735E+02  0.50000059650E+02 0.  0.
         12    1    1    2    0    0 -0.77855949846E+00  0.16977160048E+02  0.26979406247E+02  0.31886023265E+02  0.00000000000E+00 0. -1.
         11    1    3    3    0    0  0.50455723309E+01  0.96385447297E+01 -0.75973961822E+01  0.13269505404E+02  0.51100000000E-03 0. -1.
        -11    1    3    3    0    0 -0.18066355559E+02 -0.17560104229E+02 -0.10565043608E+02  0.27319784231E+02  0.51100000000E-03 0.  1.
        -12    1    3    3    0    0  0.13799342727E+02 -0.90556005489E+01 -0.88169664569E+01  0.18712687100E+02  0.00000000000E+00 0.  1.
</event>
<event>
 7    1  0.4346085E-013  0.5930195E+02  0.7816164E-02  0.1266605E+00
        -11   -1    0    0    0    0  0.00000000000E+00  0.00000000000E+00  0.45593999997E+02  0.45594000000E+02  0.51100000000E-03 0. -1.
         11   -1    0    0    0    0 -0.00000000000E+00 -0.00000000000E+00 -0.45593999997E+02  0.45594000000E+02  0.51100000000E-03 0.  1.
    9900012    2    1    2    0    0 -0.18193895339E+02  0.69070104161E+01 -0.25258574825E+02  0.59301949403E+02  0.50000009803E+02 0.  0.
         12    1    1    2    0    0  0.18193895339E+02 -0.69070104161E+01  0.25258574825E+02  0.31886050597E+02  0.00000000000E+00 0. -1.
         11    1    3    3    0    0 -0.87125775696E+01 -0.60524426413E+01  0.10130843174E+01  0.10656801111E+02  0.51100000000E-03 0. -1.
        -11    1    3    3    0    0  0.88219342329E+01  0.19508817719E+02 -0.15379744539E+02  0.26362037758E+02  0.51100000000E-03 0.  1.
        -12    1    3    3    0    0 -0.18303252002E+02 -0.65493646613E+01 -0.10891914603E+02  0.22283110534E+02  0.00000000000E+00 0.  1.
</event>
<event>
 7    1  0.4346085E-013  0.5930192E+02  0.7816164E-02  0.1266605E+00
        -11   -1    0    0    0    0  0.00000000000E+00  0.00000000000E+00  0.45593999997E+02  0.45594000000E+02  0.51100000000E-03 0.  1.
         11   -1    0    0    0    0 -0.00000000000E+00 -0.00000000000E+00 -0.45593999997E+02  0.45594000000E+02  0.51100000000E-03 0. -1.
    9900012    2    1    2    0    0  0.16185568604E+01 -0.28030961087E+02  0.15111829275E+02  0.59301923261E+02  0.49999962126E+02 0.  0.
         12    1    1    2    0    0 -0.16185568604E+01  0.28030961087E+02 -0.15111829275E+02  0.31886076739E+02  0.00000000000E+00 0. -1.
         11    1    3    3    0    0 -0.63446702491E+01 -0.19912667170E+02  0.25180747348E+01  0.21050174703E+02  0.51100000000E-03 0. -1.
        -11    1    3    3    0    0  0.20558516295E+02  0.74488766988E+00  0.54948023815E+01  0.21293198524E+02  0.51100000000E-03 0.  1.
        -12    1    3    3    0    0 -0.12595289186E+02 -0.88631815872E+01  0.70989521588E+01  0.16958550035E+02  0.00000000000E+00 0.  1.
</event>
<event>
 7    1  0.4346085E-013  0.5930195E+02  0.7816164E-02  0.1266605E+00
        -11   -1    0    0    0    0  0.00000000000E+00  0.00000000000E+00  0.45593999997E+02  0.45594000000E+02  0.51100000000E-03 0.  1.
         11   -1    0    0    0    0 -0.00000000000E+00 -0.00000000000E+00 -0.45593999997E+02  0.45594000000E+02  0.51100000000E-03 0. -1.
    9900012    2    1    2    0    0 -0.84987851055E+01  0.22651048296E+02  0.20770680099E+02  0.59301945228E+02  0.50000002188E+02 0.  0.
         12    1    1    2    0    0  0.84987851055E+01 -0.22651048296E+02 -0.20770680099E+02  0.31886054772E+02  0.00000000000E+00 0. -1.
         11    1    3    3    0    0  0.11690532848E+01 -0.89242594316E+00  0.20129483478E+02  0.20183141852E+02  0.51100000000E-03 0.  1.
        -11    1    3    3    0    0 -0.16178067586E+02  0.17339716898E+02 -0.95158626109E+01  0.25552833393E+02  0.51100000000E-03 0. -1.
         12    1    3    3    0    0  0.65102291961E+01  0.62037573414E+01  0.10157059232E+02  0.13565969983E+02  0.00000000000E+00 0. -1.
</event>
<event>
 7    1  0.4346085E-013  0.5930195E+02  0.7816164E-02  0.1266605E+00
        -11   -1    0    0    0    0  0.00000000000E+00  0.00000000000E+00  0.45593999997E+02  0.45594000000E+02  0.51100000000E-03 0. -1.
         11   -1    0    0    0    0 -0.00000000000E+00 -0.00000000000E+00 -0.45593999997E+02  0.45594000000E+02  0.51100000000E-03 0.  1.
    9900012    2    1    2    0    0  0.29437909401E+02  0.11209914868E+02  0.49464498829E+01  0.59301951833E+02  0.50000014235E+02 0.  0.
         12    1    1    2    0    0 -0.29437909401E+02 -0.11209914868E+02 -0.49464498829E+01  0.31886048167E+02  0.00000000000E+00 0. -1.
         11    1    3    3    0    0  0.27832602337E+02  0.81905671739E+01 -0.10278701421E+02  0.30779714857E+02  0.51100000000E-03 0.  1.
        -11    1    3    3    0    0  0.58139605613E+01  0.95566765003E+01  0.17184141638E+02  0.20504314845E+02  0.51100000000E-03 0. -1.
        -12    1    3    3    0    0 -0.42086534974E+01 -0.65373288061E+01 -0.19589903345E+01  0.80179221318E+01  0.00000000000E+00 0.  1.
</event>
<event>
 7    1  0.4346085E-013  0.5930195E+02  0.7816164E-02  0.1266605E+00
        -11   -1    0    0    0    0  0.00000000000E+00  0.00000000000E+00  0.45593999997E+02  0.45594000000E+02  0.51100000000E-03 0. -1.
         11   -1    0    0    0    0 -0.00000000000E+00 -0.00000000000E+00 -0.45593999997E+02  0.45594000000E+02  0.51100000000E-03 0.  1.
    9900012    2    1    2    0    0  0.96133392307E+01 -0.18600304723E+02 -0.24048542901E+02  0.59301952227E+02  0.50000014953E+02 0.  0.
         12    1    1    2    0    0 -0.96133392307E+01  0.18600304723E+02  0.24048542901E+02  0.31886047773E+02  0.00000000000E+00 0. -1.
         11    1    3    3    0    0 -0.28625906406E+00 -0.87593732284E+01 -0.84345582327E+01  0.12163483730E+02  0.51100000000E-03 0. -1.
        -11    1    3    3    0    0  0.10540743083E+02  0.13551981798E+02 -0.16373339257E+02  0.23724453926E+02  0.51100000000E-03 0.  1.
        -12    1    3    3    0    0 -0.64114478869E+00 -0.23392913292E+02  0.75935458891E+00  0.23414014571E+02  0.00000000000E+00 0.  1.
</event>
<event>
 7    1  0.4346085E-013  0.5930188E+02  0.7816164E-02  0.1266605E+00
        -11   -1    0    0    0    0  0.00000000000E+00  0.00000000000E+00  0.45593999997E+02  0.45594000000E+02  0.51100000000E-03 0.  1.
         11   -1    0    0    0    0 -0.00000000000E+00 -0.00000000000E+00 -0.45593999997E+02  0.45594000000E+02  0.51100000000E-03 0. -1.
    9900012    2    1    2    0    0 -0.28215566558E+01  0.19321824090E+00  0.31760445549E+02  0.59301883637E+02  0.49999889862E+02 0.  0.
         12    1    1    2    0    0  0.28215566558E+01 -0.19321824090E+00 -0.31760445549E+02  0.31886116363E+02  0.00000000000E+00 0. -1.
         11    1    3    3    0    0 -0.19611830669E+02  0.14185967116E+02  0.62495756252E+01  0.24998455172E+02  0.51100000000E-03 0. -1.
        -11    1    3    3    0    0  0.12186348695E+02 -0.68488226880E+01  0.12441892609E+02  0.18714009691E+02  0.51100000000E-03 0.  1.
        -12    1    3    3    0    0  0.46039253177E+01 -0.71439261875E+01  0.13068977314E+02  0.15589418775E+02  0.00000000000E+00 0.  1.
</event>
<event>
 7    1  0.4346085E-013  0.5930195E+02  0.7816164E-02  0.1266605E+00
        -11   -1    0    0    0    0  0.00000000000E+00  0.00000000000E+00  0.45593999997E+02  0.45594000000E+02  0.51100000000E-03 0.  1.
         11   -1    0    0    0    0 -0.00000000000E+00 -0.00000000000E+00 -0.45593999997E+02  0.45594000000E+02  0.51100000000E-03 0. -1.
    9900012    2    1    2    0    0  0.19072602439E+02  0.33056170902E+01  0.25338291791E+02  0.59301948206E+02  0.50000007621E+02 0.  0.
         12    1    1    2    0    0 -0.19072602439E+02 -0.33056170902E+01 -0.25338291791E+02  0.31886051794E+02  0.00000000000E+00 0. -1.
         11    1    3    3    0    0 -0.72330277346E+01 -0.11810151065E+02  0.17219433219E+02  0.22097629716E+02  0.51100000000E-03 0. -1.
        -11    1    3    3    0    0  0.21479915822E+02  0.53392199868E+01 -0.21363709856E+01  0.22236414617E+02  0.51100000000E-03 0.  1.
         12    1    3    3    0    0  0.48257143516E+01  0.97765481687E+01  0.10255229557E+02  0.14967903873E+02  0.00000000000E+00 0. -1.
</event>
<event>
 7    1  0.4346085E-013  0.5930198E+02  0.7816164E-02  0.1266605E+00
        -11   -1    0    0    0    0  0.00000000000E+00  0.00000000000E+00  0.45593999997E+02  0.45594000000E+02  0.51100000000E-03 0.  1.
         11   -1    0    0    0    0 -0.00000000000E+00 -0.00000000000E+00 -0.45593999997E+02  0.45594000000E+02  0.51100000000E-03 0. -1.
    9900012    2    1    2    0    0 -0.20459995906E+01  0.21668010159E+02  0.23302995939E+02  0.59301978010E+02  0.50000061976E+02 0.  0.
         12    1    1    2    0    0  0.20459995906E+01 -0.21668010159E+02 -0.23302995939E+02  0.31886021990E+02  0.00000000000E+00 0. -1.
         11    1    3    3    0    0  0.17367357664E+02  0.20394433704E+01  0.98832376819E+01  0.20086384165E+02  0.51100000000E-03 0. -1.
        -11    1    3    3    0    0 -0.47518127440E+01  0.18142072705E+02  0.15503172850E+02  0.24332342572E+02  0.51100000000E-03 0.  1.
        -12    1    3    3    0    0 -0.14661544510E+02  0.14864940843E+01 -0.20834145931E+01  0.14883251273E+02  0.00000000000E+00 0.  1.
</event>
<event>
 7    1  0.4346085E-013  0.5930190E+02  0.7816164E-02  0.1266605E+00
        -11   -1    0    0    0    0  0.00000000000E+00  0.00000000000E+00  0.45593999997E+02  0.45594000000E+02  0.51100000000E-03 0. -1.
         11   -1    0    0    0    0 -0.00000000000E+00 -0.00000000000E+00 -0.45593999997E+02  0.45594000000E+02  0.51100000000E-03 0.  1.
    9900012    2    1    2    0    0 -0.55388168231E+01 -0.30743524925E+02 -0.63937951416E+01  0.59301899063E+02  0.49999917996E+02 0.  0.
         12    1    1    2    0    0  0.55388168231E+01  0.30743524925E+02  0.63937951416E+01  0.31886100937E+02  0.00000000000E+00 0. -1.
         11    1    3    3    0    0 -0.14959763914E+02 -0.30800719458E+02 -0.47168942624E+01  0.34564836861E+02  0.51100000000E-03 0. -1.
        -11    1    3    3    0    0  0.70313797075E+01  0.46571794644E+01 -0.11124946343E+02  0.13960446001E+02  0.51100000000E-03 0.  1.
         12    1    3    3    0    0  0.23895673830E+01 -0.45999849311E+01  0.94480454642E+01  0.10776616201E+02  0.00000000000E+00 0. -1.
</event>
<event>
 7    1  0.4346085E-013  0.5930194E+02  0.7816164E-02  0.1266605E+00
        -11   -1    0    0    0    0  0.00000000000E+00  0.00000000000E+00  0.45593999997E+02  0.45594000000E+02  0.51100000000E-03 0. -1.
         11   -1    0    0    0    0 -0.00000000000E+00 -0.00000000000E+00 -0.45593999997E+02  0.45594000000E+02  0.51100000000E-03 0.  1.
    9900012    2    1    2    0    0 -0.16723662124E+02  0.26749017640E+02 -0.46400306638E+01  0.59301941853E+02  0.49999996034E+02 0.  0.
         12    1    1    2    0    0  0.16723662124E+02 -0.26749017640E+02  0.46400306638E+01  0.31886058147E+02  0.00000000000E+00 0. -1.
         11    1    3    3    0    0 -0.13994502282E+02  0.19499687971E+01 -0.91644649147E+00  0.14159390766E+02  0.51100000000E-03 0. -1.
        -11    1    3    3    0    0  0.52524980346E+00  0.18071908515E+02  0.15942407077E+02  0.24104566132E+02  0.51100000000E-03 0.  1.
        -12    1    3    3    0    0 -0.32544096457E+01  0.67271403281E+01 -0.19665991250E+02  0.21037984955E+02  0.00000000000E+00 0.  1.
</event>
<event>
 7    1  0.4346085E-013  0.5930195E+02  0.7816164E-02  0.1266605E+00
        -11   -1    0    0    0    0  0.00000000000E+00  0.00000000000E+00  0.45593999997E+02  0.45594000000E+02  0.51100000000E-03 0. -1.
         11   -1    0    0    0    0 -0.00000000000E+00 -0.00000000000E+00 -0.45593999997E+02  0.45594000000E+02  0.51100000000E-03 0.  1.
    9900012    2    1    2    0    0 -0.21335096539E+02 -0.14917396792E+02 -0.18412087961E+02  0.59301952041E+02  0.50000014614E+02 0.  0.
         12    1    1    2    0    0  0.21335096539E+02  0.14917396792E+02  0.18412087961E+02  0.31886047959E+02  0.00000000000E+00 0. -1.
         11    1    3    3    0    0  0.67622277102E+00  0.33971359489E+01  0.86564272114E+01  0.93237086087E+01  0.51100000000E-03 0. -1.
        -11    1    3    3    0    0 -0.14855320053E+02 -0.64228418394E+01 -0.31495551200E+02  0.35410495292E+02  0.51100000000E-03 0.  1.
         12    1    3    3    0    0 -0.71559992575E+01 -0.11891690902E+02  0.44270360284E+01  0.14567748140E+02  0.00000000000E+00 0. -1.
</event>
<event>
 7    1  0.4346085E-013  0.5930192E+02  0.7816164E-02  0.1266605E+00
        -11   -1    0    0    0    0  0.00000000000E+00  0.00000000000E+00  0.45593999997E+02  0.45594000000E+02  0.51100000000E-03 0. -1.
         11   -1    0    0    0    0 -0.00000000000E+00 -0.00000000000E+00 -0.45593999997E+02  0.45594000000E+02  0.51100000000E-03 0.  1.
    9900012    2    1    2    0    0 -0.23739029602E+02  0.63600809078E+01 -0.20315759407E+02  0.59301917834E+02  0.49999952230E+02 0.  0.
         12    1    1    2    0    0  0.23739029602E+02 -0.63600809078E+01  0.20315759407E+02  0.31886082166E+02  0.00000000000E+00 0. -1.
         11    1    3    3    0    0 -0.17331744432E+02  0.18439604198E+02 -0.16747213083E+00  0.25306845224E+02  0.51100000000E-03 0.  1.
        -11    1    3    3    0    0 -0.50088892326E+00 -0.74555924153E+01 -0.24299116747E+02  0.25422112873E+02  0.51100000000E-03 0. -1.
         12    1    3    3    0    0 -0.59063962466E+01 -0.46239308748E+01  0.41508294711E+01  0.85729597372E+01  0.00000000000E+00 0. -1.
</event>
<event>
 7    1  0.4346085E-013  0.5930194E+02  0.7816164E-02  0.1266605E+00
        -11   -1    0    0    0    0  0.00000000000E+00  0.00000000000E+00  0.45593999997E+02  0.45594000000E+02  0.51100000000E-03 0.  1.
         11   -1    0    0    0    0 -0.00000000000E+00 -0.00000000000E+00 -0.45593999997E+02  0.45594000000E+02  0.51100000000E-03 0. -1.
    9900012    2    1    2    0    0  0.27759827015E+02  0.55433697064E+01 -0.14675955879E+02  0.59301943101E+02  0.49999998309E+02 0.  0.
         12    1    1    2    0    0 -0.27759827015E+02 -0.55433697064E+01  0.14675955879E+02  0.31886056899E+02  0.00000000000E+00 0. -1.
         11    1    3    3    0    0 -0.59909767881E+01  0.25093855023E+01 -0.70529107762E+00  0.65334718367E+01  0.51100000000E-03 0. -1.
        -11    1    3    3    0    0  0.21551944865E+02  0.80259264776E+01 -0.26148622375E+02  0.34823157175E+02  0.51100000000E-03 0.  1.
        -12    1    3    3    0    0  0.12198858939E+02 -0.49919422736E+01  0.12177957574E+02  0.17945314089E+02  0.00000000000E+00 0.  1.
</event>
<event>
 7    1  0.4346085E-013  0.5930194E+02  0.7816164E-02  0.1266605E+00
        -11   -1    0    0    0    0  0.00000000000E+00  0.00000000000E+00  0.45593999997E+02  0.45594000000E+02  0.51100000000E-03 0.  1.
         11   -1    0    0    0    0 -0.00000000000E+00 -0.00000000000E+00 -0.45593999997E+02  0.45594000000E+02  0.51100000000E-03 0. -1.
    9900012    2    1    2    0    0  0.33908018962E+01 -0.23076330617E+02  0.21741808166E+02  0.59301940435E+02  0.49999993448E+02 0.  0.
         12    1    1    2    0    0 -0.33908018962E+01  0.23076330617E+02 -0.21741808166E+02  0.31886059565E+02  0.00000000000E+00 0. -1.
         11    1    3    3    0    0 -0.28065991336E+01 -0.29750687335E+02 -0.50330553963E+01  0.30303663846E+02  0.51100000000E-03 0. -1.
        -11    1    3    3    0    0  0.48666364734E+01  0.58875133267E+00  0.12192532302E+02  0.13141104326E+02  0.51100000000E-03 0.  1.
         12    1    3    3    0    0  0.13307645564E+01  0.60856053853E+01  0.14582331260E+02  0.15857172264E+02  0.00000000000E+00 0. -1.
</event>
<event>
 7    1  0.4346085E-013  0.5930196E+02  0.7816164E-02  0.1266605E+00
        -11   -1    0    0    0    0  0.00000000000E+00  0.00000000000E+00  0.45593999997E+02  0.45594000000E+02  0.51100000000E-03 0. -1.
         11   -1    0    0    0    0 -0.00000000000E+00 -0.00000000000E+00 -0.45593999997E+02  0.45594000000E+02  0.51100000000E-03 0.  1.
    9900012    2    1    2    0    0  0.16390927610E+02 -0.95583491773E+01 -0.25626058024E+02  0.59301962354E+02  0.50000033422E+02 0.  0.
         12    1    1    2    0    0 -0.16390927610E+02  0.95583491773E+01  0.25626058024E+02  0.31886037646E+02  0.00000000000E+00 0. -1.
         11    1    3    3    0    0 -0.23703554599E+01  0.64336548213E+01  0.73688164825E+01  0.10065284694E+02  0.51100000000E-03 0. -1.
        -11    1    3    3    0    0  0.18090728885E+02 -0.56601825317E+01 -0.33904095862E+02  0.38843272962E+02  0.51100000000E-03 0.  1.
        -12    1    3    3    0    0  0.67055418455E+00 -0.10331821467E+02  0.90922135507E+00  0.10393404698E+02  0.00000000000E+00 0.  1.
</event>
<event>
 7    1  0.4346085E-013  0.5930197E+02  0.7816164E-02  0.1266605E+00
        -11   -1    0    0    0    0  0.00000000000E+00  0.00000000000E+00  0.45593999997E+02  0.45594000000E+02  0.51100000000E-03 0. -1.
         11   -1    0    0    0    0 -0.00000000000E+00 -0.00000000000E+00 -0.45593999997E+02  0.45594000000E+02  0.51100000000E-03 0.  1.
    9900012    2    1    2    0    0  0.78624043285E+01 -0.24043769046E+02 -0.19411302687E+02  0.59301970085E+02  0.50000047521E+02 0.  0.
         12    1    1    2    0    0 -0.78624043285E+01  0.24043769046E+02  0.19411302687E+02  0.31886029915E+02  0.00000000000E+00 0. -1.
         11    1    3    3    0    0  0.20964250493E+02 -0.17239101892E+02 -0.22088441856E+02  0.34994080880E+02  0.51100000000E-03 0. -1.
        -11    1    3    3    0    0 -0.65876726038E+01 -0.12622863092E+02  0.52929136787E+01  0.15190425881E+02  0.51100000000E-03 0.  1.
         12    1    3    3    0    0 -0.65141735607E+01  0.58181959384E+01 -0.26157745097E+01  0.91174633228E+01  0.00000000000E+00 0. -1.
</event>
<event>
 7    1  0.4346085E-013  0.5930198E+02  0.7816164E-02  0.1266605E+00
        -11   -1    0    0    0    0  0.00000000000E+00  0.00000000000E+00  0.45593999997E+02  0.45594000000E+02  0.51100000000E-03 0. -1.
         11   -1    0    0    0    0 -0.00000000000E+00 -0.00000000000E+00 -0.45593999997E+02  0.45594000000E+02  0.51100000000E-03 0.  1.
    9900012    2    1    2    0    0  0.12124427179E+02 -0.14893964407E+02 -0.25453617455E+02  0.59301975605E+02  0.50000057590E+02 0.  0.
         12    1    1    2    0    0 -0.12124427179E+02  0.14893964407E+02  0.25453617455E+02  0.31886024395E+02  0.00000000000E+00 0. -1.
         11    1    3    3    0    0  0.78390574373E+01  0.64771528314E+01  0.18435393595E+01  0.10334552140E+02  0.51100000000E-03 0. -1.
        -11    1    3    3    0    0  0.85270405975E+01 -0.23370507474E+02 -0.39927273523E+01  0.25195890794E+02  0.51100000000E-03 0.  1.
         12    1    3    3    0    0 -0.42416708562E+01  0.19993902360E+01 -0.23304429462E+02  0.23771532671E+02  0.00000000000E+00 0. -1.
</event>
<event>
 7    1  0.4346085E-013  0.5930195E+02  0.7816164E-02  0.1266605E+00
        -11   -1    0    0    0    0  0.00000000000E+00  0.00000000000E+00  0.45593999997E+02  0.45594000000E+02  0.51100000000E-03 0. -1.
         11   -1    0    0    0    0 -0.00000000000E+00 -0.00000000000E+00 -0.45593999997E+02  0.45594000000E+02  0.51100000000E-03 0.  1.
    9900012    2    1    2    0    0  0.33212674735E+01 -0.84143207773E+01 -0.30575948828E+02  0.59301948841E+02  0.50000008779E+02 0.  0.
         12    1    1    2    0    0 -0.33212674735E+01  0.84143207773E+01  0.30575948828E+02  0.31886051159E+02  0.00000000000E+00 0. -1.
         11    1    3    3    0    0 -0.65621768410E+01  0.30688645991E+00  0.11428075373E+02  0.13181701377E+02  0.51100000000E-03 0. -1.
        -11    1    3    3    0    0 -0.16772884532E+01  0.20344815645E+01 -0.11184357594E+02  0.11490964575E+02  0.51100000000E-03 0.  1.
         12    1    3    3    0    0  0.11560732768E+02 -0.10755688802E+02 -0.30819666607E+02  0.34629282890E+02  0.00000000000E+00 0. -1.
</event>
<event>
 7    1  0.4346085E-013  0.5930195E+02  0.7816164E-02  0.1266605E+00
        -11   -1    0    0    0    0  0.00000000000E+00  0.00000000000E+00  0.45593999997E+02  0.45594000000E+02  0.51100000000E-03 0.  1.
         11   -1    0    0    0    0 -0.00000000000E+00 -0.00000000000E+00 -0.45593999997E+02  0.45594000000E+02  0.51100000000E-03 0. -1.
    9900012    2    1    2    0    0  0.84984664828E+01 -0.23873630861E+02  0.19353198964E+02  0.59301945161E+02  0.50000002068E+02 0.  0.
         12    1    1    2    0    0 -0.84984664828E+01  0.23873630861E+02 -0.19353198964E+02  0.31886054839E+02  0.00000000000E+00 0. -1.
         11    1    3    3    0    0  0.32397096253E+01 -0.31033519259E+02  0.11652112200E+01  0.31223913167E+02  0.51100000000E-03 0. -1.
        -11    1    3    3    0    0  0.95561525456E+01 -0.32230957010E+01  0.74829096614E+01  0.12557959015E+02  0.51100000000E-03 0.  1.
         12    1    3    3    0    0 -0.42973956881E+01  0.10382984099E+02  0.10705078083E+02  0.15520072979E+02  0.00000000000E+00 0. -1.
</event>
<event>
 7    1  0.4346085E-013  0.5930193E+02  0.7816164E-02  0.1266605E+00
        -11   -1    0    0    0    0  0.00000000000E+00  0.00000000000E+00  0.45593999997E+02  0.45594000000E+02  0.51100000000E-03 0.  1.
         11   -1    0    0    0    0 -0.00000000000E+00 -0.00000000000E+00 -0.45593999997E+02  0.45594000000E+02  0.51100000000E-03 0. -1.
    9900012    2    1    2    0    0 -0.95640451596E+01 -0.81123163145E+01  0.29316216792E+02  0.59301934034E+02  0.49999981774E+02 0.  0.
         12    1    1    2    0    0  0.95640451596E+01  0.81123163145E+01 -0.29316216792E+02  0.31886065966E+02  0.00000000000E+00 0. -1.
         11    1    3    3    0    0 -0.83901506340E+01  0.12584004157E+02 -0.47621234351E+00  0.15132037759E+02  0.51100000000E-03 0. -1.
        -11    1    3    3    0    0 -0.12450146215E+02 -0.16082892295E+02  0.17046996112E+02  0.26538003732E+02  0.51100000000E-03 0.  1.
        -12    1    3    3    0    0  0.11276251690E+02 -0.46134281759E+01  0.12745433023E+02  0.17631892543E+02  0.00000000000E+00 0.  1.
</event>
<event>
 7    1  0.4346085E-013  0.5930194E+02  0.7816164E-02  0.1266605E+00
        -11   -1    0    0    0    0  0.00000000000E+00  0.00000000000E+00  0.45593999997E+02  0.45594000000E+02  0.51100000000E-03 0.  1.
         11   -1    0    0    0    0 -0.00000000000E+00 -0.00000000000E+00 -0.45593999997E+02  0.45594000000E+02  0.51100000000E-03 0. -1.
    9900012    2    1    2    0    0 -0.30792609719E+02 -0.30679808902E+01  0.76891662974E+01  0.59301943511E+02  0.49999999058E+02 0.  0.
         12    1    1    2    0    0  0.30792609719E+02  0.30679808902E+01 -0.76891662974E+01  0.31886056489E+02  0.00000000000E+00 0. -1.
         11    1    3    3    0    0 -0.39139174199E+02  0.23934471049E+01 -0.47076946588E+01  0.39493872123E+02  0.51100000000E-03 0. -1.
        -11    1    3    3    0    0  0.59730828128E+01  0.19623013890E+01  0.97027609809E+01  0.11561657145E+02  0.51100000000E-03 0.  1.
         12    1    3    3    0    0  0.23734816672E+01 -0.74237293841E+01  0.26940999753E+01  0.82464142431E+01  0.00000000000E+00 0. -1.
</event>
<event>
 7    1  0.4346085E-013  0.5930201E+02  0.7816164E-02  0.1266605E+00
        -11   -1    0    0    0    0  0.00000000000E+00  0.00000000000E+00  0.45593999997E+02  0.45594000000E+02  0.51100000000E-03 0.  1.
         11   -1    0    0    0    0 -0.00000000000E+00 -0.00000000000E+00 -0.45593999997E+02  0.45594000000E+02  0.51100000000E-03 0. -1.
    9900012    2    1    2    0    0 -0.28511030143E+02 -0.20179739590E+01  0.14133844217E+02  0.59302006036E+02  0.50000113088E+02 0.  0.
         12    1    1    2    0    0  0.28511030143E+02  0.20179739590E+01 -0.14133844217E+02  0.31885993964E+02  0.00000000000E+00 0. -1.
         11    1    3    3    0    0  0.27164916836E+01 -0.73374149585E+01  0.19578101795E+02  0.21083620550E+02  0.51100000000E-03 0. -1.
        -11    1    3    3    0    0 -0.28753532996E+02  0.11478948009E+02 -0.60755163671E+01  0.31550654613E+02  0.51100000000E-03 0.  1.
        -12    1    3    3    0    0 -0.24739888309E+01 -0.61595070091E+01  0.63125878849E+00  0.66677308725E+01  0.00000000000E+00 0.  1.
</event>
<event>
 7    1  0.4346085E-013  0.5930197E+02  0.7816164E-02  0.1266605E+00
        -11   -1    0    0    0    0  0.00000000000E+00  0.00000000000E+00  0.45593999997E+02  0.45594000000E+02  0.51100000000E-03 0.  1.
         11   -1    0    0    0    0 -0.00000000000E+00 -0.00000000000E+00 -0.45593999997E+02  0.45594000000E+02  0.51100000000E-03 0. -1.
    9900012    2    1    2    0    0  0.24266540840E+02 -0.20683546798E+02  0.21152223700E+00  0.59301970862E+02  0.50000048940E+02 0.  0.
         12    1    1    2    0    0 -0.24266540840E+02  0.20683546798E+02 -0.21152223700E+00  0.31886029138E+02  0.00000000000E+00 0. -1.
         11    1    3    3    0    0 -0.86543012904E+01 -0.50749575418E+01  0.88154204646E+01  0.13355289705E+02  0.51100000000E-03 0. -1.
        -11    1    3    3    0    0  0.30733491112E+02 -0.21471726755E+01 -0.96078906411E+01  0.32271804865E+02  0.51100000000E-03 0.  1.
        -12    1    3    3    0    0  0.21873510191E+01 -0.13461416581E+02  0.10039924135E+01  0.13674876292E+02  0.00000000000E+00 0.  1.
</event>
<event>
 7    1  0.4346085E-013  0.5930190E+02  0.7816164E-02  0.1266605E+00
        -11   -1    0    0    0    0  0.00000000000E+00  0.00000000000E+00  0.45593999997E+02  0.45594000000E+02  0.51100000000E-03 0.  1.
         11   -1    0    0    0    0 -0.00000000000E+00 -0.00000000000E+00 -0.45593999997E+02  0.45594000000E+02  0.51100000000E-03 0. -1.
    9900012    2    1    2    0    0  0.55672076338E+01  0.12317460131E+02  0.28879226573E+02  0.59301900327E+02  0.49999920300E+02 0.  0.
         12    1    1    2    0    0 -0.55672076338E+01 -0.12317460131E+02 -0.28879226573E+02  0.31886099673E+02  0.00000000000E+00 0. -1.
         11    1    3    3    0    0 -0.78848233328E+01  0.79671328046E+01 -0.15930268590E-01  0.11209188113E+02  0.51100000000E-03 0. -1.
        -11    1    3    3    0    0  0.11461146932E+02  0.43748203487E+00  0.37075338226E+02  0.38808890533E+02  0.51100000000E-03 0.  1.
        -12    1    3    3    0    0  0.19908840341E+01  0.39128452914E+01 -0.81801813851E+01  0.92838216810E+01  0.00000000000E+00 0.  1.
</event>
<event>
 7    1  0.4346085E-013  0.5930198E+02  0.7816164E-02  0.1266605E+00
        -11   -1    0    0    0    0  0.00000000000E+00  0.00000000000E+00  0.45593999997E+02  0.45594000000E+02  0.51100000000E-03 0. -1.
         11   -1    0    0    0    0 -0.00000000000E+00 -0.00000000000E+00 -0.45593999997E+02  0.45594000000E+02  0.51100000000E-03 0.  1.
    9900012    2    1    2    0    0  0.95454013527E+01 -0.10843464093E+02 -0.28425737978E+02  0.59301984569E+02  0.50000073937E+02 0.  0.
         12    1    1    2    0    0 -0.95454013527E+01  0.10843464093E+02  0.28425737978E+02  0.31886015431E+02  0.00000000000E+00 0. -1.
         11    1    3    3    0    0  0.28362119456E+01  0.82581426174E+01 -0.12160309902E+01  0.88158805187E+01  0.51100000000E-03 0. -1.
        -11    1    3    3    0    0 -0.22683339259E+01 -0.13853176546E+02  0.63097764163E+01  0.15390552878E+02  0.51100000000E-03 0.  1.
        -12    1    3    3    0    0  0.89775233329E+01 -0.52484301645E+01 -0.33519483404E+02  0.35095551172E+02  0.00000000000E+00 0.  1.
</event>
<event>
 7    1  0.4346085E-013  0.5930194E+02  0.7816164E-02  0.1266605E+00
        -11   -1    0    0    0    0  0.00000000000E+00  0.00000000000E+00  0.45593999997E+02  0.45594000000E+02  0.51100000000E-03 0.  1.
         11   -1    0    0    0    0 -0.00000000000E+00 -0.00000000000E+00 -0.45593999997E+02  0.45594000000E+02  0.51100000000E-03 0. -1.
    9900012    2    1    2    0    0 -0.27811026716E+02 -0.14612161733E+02 -0.54545570201E+01  0.59301942392E+02  0.49999997017E+02 0.  0.
         12    1    1    2    0    0  0.27811026716E+02  0.14612161733E+02  0.54545570201E+01  0.31886057608E+02  0.00000000000E+00 0. -1.
         11    1    3    3    0    0  0.52481501475E+01  0.99307408579E+01 -0.64366516545E+01  0.12945778414E+02  0.51100000000E-03 0. -1.
        -11    1    3    3    0    0 -0.69455707610E+01 -0.20989622940E+01  0.84341601082E+01  0.11125720332E+02  0.51100000000E-03 0.  1.
         12    1    3    3    0    0 -0.26113606102E+02 -0.22443940297E+02 -0.74520654738E+01  0.35230443647E+02  0.00000000000E+00 0. -1.
</event>
<event>
 7    1  0.4346085E-013  0.5930194E+02  0.7816164E-02  0.1266605E+00
        -11   -1    0    0    0    0  0.00000000000E+00  0.00000000000E+00  0.45593999997E+02  0.45594000000E+02  0.51100000000E-03 0.  1.
         11   -1    0    0    0    0 -0.00000000000E+00 -0.00000000000E+00 -0.45593999997E+02  0.45594000000E+02  0.51100000000E-03 0. -1.
    9900012    2    1    2    0    0 -0.16546445582E+02  0.11786771801E+02  0.24576568151E+02  0.59301944223E+02  0.50000000357E+02 0.  0.
         12    1    1    2    0    0  0.16546445582E+02 -0.11786771801E+02 -0.24576568151E+02  0.31886055777E+02  0.00000000000E+00 0. -1.
         11    1    3    3    0    0 -0.26953195833E+02 -0.23063869367E+01  0.11595239551E+02  0.29432019415E+02  0.51100000000E-03 0. -1.
        -11    1    3    3    0    0  0.86949261702E+01  0.13777304527E+01  0.14486648590E+02  0.16951780730E+02  0.51100000000E-03 0.  1.
        -12    1    3    3    0    0  0.17118240804E+01  0.12715428285E+02 -0.15053199902E+01  0.12918144078E+02  0.00000000000E+00 0.  1.
</event>
<event>
 7    1  0.4346085E-013  0.5930192E+02  0.7816164E-02  0.1266605E+00
        -11   -1    0    0    0    0  0.00000000000E+00  0.00000000000E+00  0.45593999997E+02  0.45594000000E+02  0.51100000000E-03 0. -1.
         11   -1    0    0    0    0 -0.00000000000E+00 -0.00000000000E+00 -0.45593999997E+02  0.45594000000E+02  0.51100000000E-03 0.  1.
    9900012    2    1    2    0    0 -0.71946605060E+01  0.78666551549E+01 -0.30051203140E+02  0.59301918188E+02  0.49999952875E+02 0.  0.
         12    1    1    2    0    0  0.71946605060E+01 -0.78666551549E+01  0.30051203140E+02  0.31886081812E+02  0.00000000000E+00 0. -1.
         11    1    3    3    0    0 -0.70338286729E+01 -0.16644721596E+02 -0.41336713654E+01  0.18536686382E+02  0.51100000000E-03 0.  1.
        -11    1    3    3    0    0 -0.21319298243E+01  0.25144640692E+02 -0.14382191914E+02  0.29045576682E+02  0.51100000000E-03 0. -1.
        -12    1    3    3    0    0  0.19710979913E+01 -0.63326394159E+00 -0.11535339861E+02  0.11719655124E+02  0.00000000000E+00 0.  1.
</event>
<event>
 7    1  0.4346085E-013  0.5930185E+02  0.7816164E-02  0.1266605E+00
        -11   -1    0    0    0    0  0.00000000000E+00  0.00000000000E+00  0.45593999997E+02  0.45594000000E+02  0.51100000000E-03 0.  1.
         11   -1    0    0    0    0 -0.00000000000E+00 -0.00000000000E+00 -0.45593999997E+02  0.45594000000E+02  0.51100000000E-03 0. -1.
    9900012    2    1    2    0    0 -0.16321244845E+02 -0.12202961366E+02  0.24524094974E+02  0.59301850441E+02  0.49999829320E+02 0.  0.
         12    1    1    2    0    0  0.16321244845E+02  0.12202961366E+02 -0.24524094974E+02  0.31886149559E+02  0.00000000000E+00 0. -1.
         11    1    3    3    0    0 -0.17155952799E+02 -0.55550539318E+01  0.12529981181E+02  0.21958728772E+02  0.51100000000E-03 0. -1.
        -11    1    3    3    0    0  0.48676574541E+01 -0.14664367211E+02 -0.65187534023E+01  0.16769970214E+02  0.51100000000E-03 0.  1.
        -12    1    3    3    0    0 -0.40329494998E+01  0.80164597762E+01  0.18512867195E+02  0.20573151455E+02  0.00000000000E+00 0.  1.
</event>
<event>
 7    1  0.4346085E-013  0.5930196E+02  0.7816164E-02  0.1266605E+00
        -11   -1    0    0    0    0  0.00000000000E+00  0.00000000000E+00  0.45593999997E+02  0.45594000000E+02  0.51100000000E-03 0.  1.
         11   -1    0    0    0    0 -0.00000000000E+00 -0.00000000000E+00 -0.45593999997E+02  0.45594000000E+02  0.51100000000E-03 0. -1.
    9900012    2    1    2    0    0  0.19634790056E+02 -0.14719988035E+02  0.20359684458E+02  0.59301956352E+02  0.50000022477E+02 0.  0.
         12    1    1    2    0    0 -0.19634790056E+02  0.14719988035E+02 -0.20359684458E+02  0.31886043648E+02  0.00000000000E+00 0. -1.
         11    1    3    3    0    0  0.17236020026E+02 -0.57570446344E+01 -0.19907436304E+01  0.18280782525E+02  0.51100000000E-03 0. -1.
        -11    1    3    3    0    0 -0.49905313670E+01 -0.15794482078E+02  0.25560387646E+02  0.30458241649E+02  0.51100000000E-03 0.  1.
         12    1    3    3    0    0  0.73893013970E+01  0.68315386778E+01 -0.32099595581E+01  0.10562932178E+02  0.00000000000E+00 0. -1.
</event>
<event>
 7    1  0.4346085E-013  0.5930195E+02  0.7816164E-02  0.1266605E+00
        -11   -1    0    0    0    0  0.00000000000E+00  0.00000000000E+00  0.45593999997E+02  0.45594000000E+02  0.51100000000E-03 0.  1.
         11   -1    0    0    0    0 -0.00000000000E+00 -0.00000000000E+00 -0.45593999997E+02  0.45594000000E+02  0.51100000000E-03 0. -1.
    9900012    2    1    2    0    0 -0.21094952577E+02 -0.38727748530E+01  0.23595013849E+02  0.59301951518E+02  0.50000013660E+02 0.  0.
         12    1    1    2    0    0  0.21094952577E+02  0.38727748530E+01 -0.23595013849E+02  0.31886048482E+02  0.00000000000E+00 0. -1.
         11    1    3    3    0    0 -0.10954619002E+02  0.11267308202E+02  0.22919777140E+02  0.27789784023E+02  0.51100000000E-03 0. -1.
        -11    1    3    3    0    0 -0.18717226200E+02 -0.85424173731E+01  0.16902438388E+01  0.20643749071E+02  0.51100000000E-03 0.  1.
         12    1    3    3    0    0  0.85768926262E+01 -0.65976656816E+01 -0.10150071301E+01  0.10868418424E+02  0.00000000000E+00 0. -1.
</event>
<event>
 7    1  0.4346085E-013  0.5930194E+02  0.7816164E-02  0.1266605E+00
        -11   -1    0    0    0    0  0.00000000000E+00  0.00000000000E+00  0.45593999997E+02  0.45594000000E+02  0.51100000000E-03 0. -1.
         11   -1    0    0    0    0 -0.00000000000E+00 -0.00000000000E+00 -0.45593999997E+02  0.45594000000E+02  0.51100000000E-03 0.  1.
    9900012    2    1    2    0    0  0.21057817697E+02  0.17801733554E+02 -0.16012105889E+02  0.59301938176E+02  0.49999989327E+02 0.  0.
         12    1    1    2    0    0 -0.21057817697E+02 -0.17801733554E+02  0.16012105889E+02  0.31886061824E+02  0.00000000000E+00 0. -1.
         11    1    3    3    0    0 -0.96930966997E+01  0.46439920089E+01 -0.11388973921E+02  0.15659869497E+02  0.51100000000E-03 0. -1.
        -11    1    3    3    0    0  0.20632451480E+02  0.85723748440E+01  0.10654261739E+02  0.24752716174E+02  0.51100000000E-03 0.  1.
         12    1    3    3    0    0  0.10118462916E+02  0.45853667011E+01 -0.15277393707E+02  0.18889352505E+02  0.00000000000E+00 0. -1.
</event>
<event>
 7    1  0.4346085E-013  0.5930197E+02  0.7816164E-02  0.1266605E+00
        -11   -1    0    0    0    0  0.00000000000E+00  0.00000000000E+00  0.45593999997E+02  0.45594000000E+02  0.51100000000E-03 0. -1.
         11   -1    0    0    0    0 -0.00000000000E+00 -0.00000000000E+00 -0.45593999997E+02  0.45594000000E+02  0.51100000000E-03 0.  1.
    9900012    2    1    2    0    0 -0.17580394665E+02 -0.11248497498E+02 -0.24106423706E+02  0.59301974276E+02  0.50000055166E+02 0.  0.
         12    1    1    2    0    0  0.17580394665E+02  0.11248497498E+02  0.24106423706E+02  0.31886025724E+02  0.00000000000E+00 0. -1.
         11    1    3    3    0    0 -0.10933420097E+02 -0.26130488126E+02 -0.32276144272E+01  0.28508938596E+02  0.51100000000E-03 0. -1.
        -11    1    3    3    0    0 -0.10940282033E+02  0.53495522048E+01 -0.11095114434E+02  0.16474496785E+02  0.51100000000E-03 0.  1.
         12    1    3    3    0    0  0.42933074651E+01  0.95324384226E+01 -0.97836948450E+01  0.14318538895E+02  0.00000000000E+00 0. -1.
</event>
<event>
 7    1  0.4346085E-013  0.5930193E+02  0.7816164E-02  0.1266605E+00
        -11   -1    0    0    0    0  0.00000000000E+00  0.00000000000E+00  0.45593999997E+02  0.45594000000E+02  0.51100000000E-03 0.  1.
         11   -1    0    0    0    0 -0.00000000000E+00 -0.00000000000E+00 -0.45593999997E+02  0.45594000000E+02  0.51100000000E-03 0. -1.
    9900012    2    1    2    0    0  0.31843837193E+02 -0.73618508955E+00 -0.14660428170E+01  0.59301933808E+02  0.49999981362E+02 0.  0.
         12    1    1    2    0    0 -0.31843837193E+02  0.73618508955E+00  0.14660428170E+01  0.31886066192E+02  0.00000000000E+00 0. -1.
         11    1    3    3    0    0  0.27925189099E+02  0.11203653443E+02 -0.17143397266E+02  0.34629959670E+02  0.51100000000E-03 0. -1.
        -11    1    3    3    0    0  0.61457053736E+01 -0.70322398946E+01  0.16749323171E+02  0.19177119685E+02  0.51100000000E-03 0.  1.
         12    1    3    3    0    0 -0.22270572801E+01 -0.49075986380E+01 -0.10719687214E+01  0.54948544531E+01  0.00000000000E+00 0. -1.
</event>
<event>
 7    1  0.4346085E-013  0.5930194E+02  0.7816164E-02  0.1266605E+00
        -11   -1    0    0    0    0  0.00000000000E+00  0.00000000000E+00  0.45593999997E+02  0.45594000000E+02  0.51100000000E-03 0. -1.
         11   -1    0    0    0    0 -0.00000000000E+00 -0.00000000000E+00 -0.45593999997E+02  0.45594000000E+02  0.51100000000E-03 0.  1.
    9900012    2    1    2    0    0 -0.19212724773E+02  0.22894467827E+02 -0.11110157522E+02  0.59301936423E+02  0.49999986130E+02 0.  0.
         12    1    1    2    0    0  0.19212724773E+02 -0.22894467827E+02  0.11110157522E+02  0.31886063577E+02  0.00000000000E+00 0. -1.
         11    1    3    3    0    0 -0.44197506965E+00  0.64994293982E+01  0.14203852592E+02  0.15626495230E+02  0.51100000000E-03 0. -1.
        -11    1    3    3    0    0 -0.21691239785E+02  0.47158188464E+01 -0.21851377715E+02  0.31148539919E+02  0.51100000000E-03 0.  1.
        -12    1    3    3    0    0  0.29204900817E+01  0.11679219583E+02 -0.34626323993E+01  0.12526901273E+02  0.00000000000E+00 0.  1.
</event>
<event>
 7    1  0.4346085E-013  0.5930193E+02  0.7816164E-02  0.1266605E+00
        -11   -1    0    0    0    0  0.00000000000E+00  0.00000000000E+00  0.45593999997E+02  0.45594000000E+02  0.51100000000E-03 0.  1.
         11   -1    0    0    0    0 -0.00000000000E+00 -0.00000000000E+00 -0.45593999997E+02  0.45594000000E+02  0.51100000000E-03 0. -1.
    9900012    2    1    2    0    0 -0.17142216888E+00 -0.22539327991E+00  0.31884817181E+02  0.59301925385E+02  0.49999966000E+02 0.  0.
         12    1    1    2    0    0  0.17142216888E+00  0.22539327991E+00 -0.31884817181E+02  0.31886074615E+02  0.00000000000E+00 0. -1.
         11    1    3    3    0    0  0.42528843995E+01  0.56172852731E+01 -0.10113266510E+02  0.12325545802E+02  0.51100000000E-03 0. -1.
        -11    1    3    3    0    0  0.57480568354E+01  0.37970367808E+01  0.16509009870E+02  0.17888685051E+02  0.51100000000E-03 0.  1.
         12    1    3    3    0    0 -0.10172363404E+02 -0.96397153337E+01  0.25489073821E+02  0.29087694532E+02  0.00000000000E+00 0. -1.
</event>
<event>
 7    1  0.4346085E-013  0.5930196E+02  0.7816164E-02  0.1266605E+00
        -11   -1    0    0    0    0  0.00000000000E+00  0.00000000000E+00  0.45593999997E+02  0.45594000000E+02  0.51100000000E-03 0.  1.
         11   -1    0    0    0    0 -0.00000000000E+00 -0.00000000000E+00 -0.45593999997E+02  0.45594000000E+02  0.51100000000E-03 0. -1.
    9900012    2    1    2    0    0  0.18988738451E+02  0.22354085835E+02  0.12507691432E+02  0.59301957812E+02  0.50000025140E+02 0.  0.
         12    1    1    2    0    0 -0.18988738451E+02 -0.22354085835E+02 -0.12507691432E+02  0.31886042188E+02  0.00000000000E+00 0. -1.
         11    1    3    3    0    0  0.27559582523E+02 -0.26811058434E+01  0.57951143158E+00  0.27695753305E+02  0.51100000000E-03 0. -1.
        -11    1    3    3    0    0 -0.63499518325E+01  0.57419890009E+01  0.81527949222E+01  0.11822029913E+02  0.51100000000E-03 0.  1.
         12    1    3    3    0    0 -0.22208922398E+01  0.19293202677E+02  0.37753850778E+01  0.19784174594E+02  0.00000000000E+00 0. -1.
</event>
<event>
 7    1  0.4346085E-013  0.5930210E+02  0.7816164E-02  0.1266604E+00
        -11   -1    0    0    0    0  0.00000000000E+00  0.00000000000E+00  0.45593999997E+02  0.45594000000E+02  0.51100000000E-03 0. -1.
         11   -1    0    0    0    0 -0.00000000000E+00 -0.00000000000E+00 -0.45593999997E+02  0.45594000000E+02  0.51100000000E-03 0.  1.
    9900012    2    1    2    0    0 -0.29480334187E+02  0.11710976770E+02 -0.32362569112E+01  0.59302102812E+02  0.50000289583E+02 0.  0.
         12    1    1    2    0    0  0.29480334187E+02 -0.11710976770E+02  0.32362569112E+01  0.31885897188E+02  0.00000000000E+00 0. -1.
         11    1    3    3    0    0 -0.13885775948E+02  0.17913909967E+02  0.18507870475E+01  0.22740896134E+02  0.51100000000E-03 0. -1.
        -11    1    3    3    0    0 -0.13810746927E+02 -0.18635194371E+02 -0.53183586680E+00  0.23201078630E+02  0.51100000000E-03 0.  1.
        -12    1    3    3    0    0 -0.17838113117E+01  0.12432261174E+02 -0.45552080920E+01  0.13360128048E+02  0.00000000000E+00 0.  1.
</event>
<event>
 7    1  0.4346085E-013  0.5930194E+02  0.7816164E-02  0.1266605E+00
        -11   -1    0    0    0    0  0.00000000000E+00  0.00000000000E+00  0.45593999997E+02  0.45594000000E+02  0.51100000000E-03 0. -1.
         11   -1    0    0    0    0 -0.00000000000E+00 -0.00000000000E+00 -0.45593999997E+02  0.45594000000E+02  0.51100000000E-03 0.  1.
    9900012    2    1    2    0    0 -0.13004233270E+02 -0.25361917796E+02 -0.14296284388E+02  0.59301941847E+02  0.49999996023E+02 0.  0.
         12    1    1    2    0    0  0.13004233270E+02  0.25361917796E+02  0.14296284388E+02  0.31886058153E+02  0.00000000000E+00 0. -1.
         11    1    3    3    0    0 -0.18140012445E+02 -0.10278520475E+01  0.55997280342E+01  0.19012456066E+02  0.51100000000E-03 0. -1.
        -11    1    3    3    0    0  0.89706632699E+01 -0.18949653200E+02 -0.18222624699E+01  0.21044780747E+02  0.51100000000E-03 0.  1.
         12    1    3    3    0    0 -0.38348840948E+01 -0.53844125484E+01 -0.18073749952E+02  0.19244705034E+02  0.00000000000E+00 0. -1.
</event>
<event>
 7    1  0.4346085E-013  0.5930196E+02  0.7816164E-02  0.1266605E+00
        -11   -1    0    0    0    0  0.00000000000E+00  0.00000000000E+00  0.45593999997E+02  0.45594000000E+02  0.51100000000E-03 0.  1.
         11   -1    0    0    0    0 -0.00000000000E+00 -0.00000000000E+00 -0.45593999997E+02  0.45594000000E+02  0.51100000000E-03 0. -1.
    9900012    2    1    2    0    0  0.15442938077E+02  0.22734757429E+02  0.16166823697E+02  0.59301957281E+02  0.50000024171E+02 0.  0.
         12    1    1    2    0    0 -0.15442938077E+02 -0.22734757429E+02 -0.16166823697E+02  0.31886042719E+02  0.00000000000E+00 0. -1.
         11    1    3    3    0    0  0.25487768043E+02 -0.39344415345E+01  0.10556991108E+02  0.27866758181E+02  0.51100000000E-03 0. -1.
        -11    1    3    3    0    0 -0.46430834404E+01  0.21158534878E+02  0.83942912275E+01  0.23231572213E+02  0.51100000000E-03 0.  1.
         12    1    3    3    0    0 -0.54017465254E+01  0.55106640858E+01 -0.27844586382E+01  0.82036268869E+01  0.00000000000E+00 0. -1.
</event>
<event>
 7    1  0.4619145E-013  0.5930194E+02  0.7816164E-02  0.1266605E+00
        -11   -1    0    0    0    0  0.00000000000E+00  0.00000000000E+00  0.45593999997E+02  0.45594000000E+02  0.51100000000E-03 0. -1.
         11   -1    0    0    0    0 -0.00000000000E+00 -0.00000000000E+00 -0.45593999997E+02  0.45594000000E+02  0.51100000000E-03 0.  1.
    9900012    2    1    2    0    0  0.10617875879E+02 -0.28236842296E+02 -0.10327748455E+02  0.59301938168E+02  0.49999989313E+02 0.  0.
         12    1    1    2    0    0 -0.10617875879E+02  0.28236842296E+02  0.10327748455E+02  0.31886061832E+02  0.00000000000E+00 0. -1.
         11    1    3    3    0    0 -0.14917323989E+02 -0.90701242224E+01  0.27923294675E+01  0.17680237909E+02  0.51100000000E-03 0. -1.
        -11    1    3    3    0    0  0.12674701387E+02  0.11184702848E+00 -0.13400654091E+02  0.18445544051E+02  0.51100000000E-03 0.  1.
         12    1    3    3    0    0  0.12860498481E+02 -0.19278565102E+02  0.28057616826E+00  0.23176156207E+02  0.00000000000E+00 0. -1.
</event>
<event>
 7    1  0.4346085E-013  0.5930199E+02  0.7816164E-02  0.1266605E+00
        -11   -1    0    0    0    0  0.00000000000E+00  0.00000000000E+00  0.45593999997E+02  0.45594000000E+02  0.51100000000E-03 0. -1.
         11   -1    0    0    0    0 -0.00000000000E+00 -0.00000000000E+00 -0.45593999997E+02  0.45594000000E+02  0.51100000000E-03 0.  1.
    9900012    2    1    2    0    0  0.25811768134E+02  0.18710608349E+02  0.61895935353E+00  0.59301994454E+02  0.50000091965E+02 0.  0.
         12    1    1    2    0    0 -0.25811768134E+02 -0.18710608349E+02 -0.61895935353E+00  0.31886005546E+02  0.00000000000E+00 0. -1.
         11    1    3    3    0    0  0.45779549264E+01 -0.54300623361E+01  0.51975351587E+01  0.88010010947E+01  0.51100000000E-03 0. -1.
        -11    1    3    3    0    0  0.15078530908E+02  0.20297398400E+02 -0.20793041155E+02  0.32736784156E+02  0.51100000000E-03 0.  1.
        -12    1    3    3    0    0  0.61552822999E+01  0.38432722850E+01  0.16214465349E+02  0.17764209203E+02  0.00000000000E+00 0.  1.
</event>
<event>
 7    1  0.4346085E-013  0.5930194E+02  0.7816164E-02  0.1266605E+00
        -11   -1    0    0    0    0  0.00000000000E+00  0.00000000000E+00  0.45593999997E+02  0.45594000000E+02  0.51100000000E-03 0.  1.
         11   -1    0    0    0    0 -0.00000000000E+00 -0.00000000000E+00 -0.45593999997E+02  0.45594000000E+02  0.51100000000E-03 0. -1.
    9900012    2    1    2    0    0  0.14662797346E+01 -0.20157779518E+02  0.24662411649E+02  0.59301943491E+02  0.49999999022E+02 0.  0.
         12    1    1    2    0    0 -0.14662797346E+01  0.20157779518E+02 -0.24662411649E+02  0.31886056509E+02  0.00000000000E+00 0. -1.
         11    1    3    3    0    0 -0.14559346743E+02 -0.35177169856E+01  0.70789751861E+01  0.16566858493E+02  0.51100000000E-03 0. -1.
        -11    1    3    3    0    0  0.11911475110E+02 -0.19101920881E+02  0.25165128534E+02  0.33764631126E+02  0.51100000000E-03 0.  1.
         12    1    3    3    0    0  0.41141513684E+01  0.24618583490E+01 -0.75816920715E+01  0.89704538726E+01  0.00000000000E+00 0. -1.
</event>
<event>
 7    1  0.4346085E-013  0.5930195E+02  0.7816164E-02  0.1266605E+00
        -11   -1    0    0    0    0  0.00000000000E+00  0.00000000000E+00  0.45593999997E+02  0.45594000000E+02  0.51100000000E-03 0.  1.
         11   -1    0    0    0    0 -0.00000000000E+00 -0.00000000000E+00 -0.45593999997E+02  0.45594000000E+02  0.51100000000E-03 0. -1.
    9900012    2    1    2    0    0 -0.12169409975E+02  0.14048787378E+02  0.25908637901E+02  0.59301945308E+02  0.50000002335E+02 0.  0.
         12    1    1    2    0    0  0.12169409975E+02 -0.14048787378E+02 -0.25908637901E+02  0.31886054692E+02  0.00000000000E+00 0. -1.
         11    1    3    3    0    0 -0.68891929407E-03  0.37575009082E+01 -0.80180054668E+01  0.88547854562E+01  0.51100000000E-03 0. -1.
        -11    1    3    3    0    0 -0.19401888268E+02  0.50883808671E+00  0.32950782209E+02  0.38241943374E+02  0.51100000000E-03 0.  1.
        -12    1    3    3    0    0  0.72331672117E+01  0.97824483829E+01  0.97586115846E+00  0.12205216478E+02  0.00000000000E+00 0.  1.
</event>
<event>
 7    1  0.4346085E-013  0.5930197E+02  0.7816164E-02  0.1266605E+00
        -11   -1    0    0    0    0  0.00000000000E+00  0.00000000000E+00  0.45593999997E+02  0.45594000000E+02  0.51100000000E-03 0.  1.
         11   -1    0    0    0    0 -0.00000000000E+00 -0.00000000000E+00 -0.45593999997E+02  0.45594000000E+02  0.51100000000E-03 0. -1.
    9900012    2    1    2    0    0 -0.15648728951E+02 -0.12227525092E+02  0.24946422905E+02  0.59301966954E+02  0.50000041812E+02 0.  0.
         12    1    1    2    0    0  0.15648728951E+02  0.12227525092E+02 -0.24946422905E+02  0.31886033046E+02  0.00000000000E+00 0. -1.
         11    1    3    3    0    0  0.11171786895E+02  0.80987946744E+01 -0.85968404147E+00  0.13825279546E+02  0.51100000000E-03 0. -1.
        -11    1    3    3    0    0 -0.19529722399E+02 -0.18405182126E+02  0.11279373785E+02  0.29109879068E+02  0.51100000000E-03 0.  1.
         12    1    3    3    0    0 -0.72907934478E+01 -0.19211376396E+01  0.14526733161E+02  0.16366808341E+02  0.00000000000E+00 0. -1.
</event>
<event>
 7    1  0.4346085E-013  0.5930195E+02  0.7816164E-02  0.1266605E+00
        -11   -1    0    0    0    0  0.00000000000E+00  0.00000000000E+00  0.45593999997E+02  0.45594000000E+02  0.51100000000E-03 0. -1.
         11   -1    0    0    0    0 -0.00000000000E+00 -0.00000000000E+00 -0.45593999997E+02  0.45594000000E+02  0.51100000000E-03 0.  1.
    9900012    2    1    2    0    0 -0.29159442693E+02  0.12883940225E+02 -0.67180784174E+00  0.59301947569E+02  0.50000006458E+02 0.  0.
         12    1    1    2    0    0  0.29159442693E+02 -0.12883940225E+02  0.67180784174E+00  0.31886052431E+02  0.00000000000E+00 0. -1.
         11    1    3    3    0    0 -0.51377431031E+01 -0.34470921088E+01  0.14471913951E+02  0.15738968895E+02  0.51100000000E-03 0. -1.
        -11    1    3    3    0    0  0.46929069739E+01  0.70178757754E+01 -0.97510497480E+01  0.12897942771E+02  0.51100000000E-03 0.  1.
         12    1    3    3    0    0 -0.28714606564E+02  0.93131565581E+01 -0.53926720449E+01  0.30665035903E+02  0.00000000000E+00 0. -1.
</event>
<event>
 7    1  0.4346085E-013  0.5930199E+02  0.7816164E-02  0.1266605E+00
        -11   -1    0    0    0    0  0.00000000000E+00  0.00000000000E+00  0.45593999997E+02  0.45594000000E+02  0.51100000000E-03 0. -1.
         11   -1    0    0    0    0 -0.00000000000E+00 -0.00000000000E+00 -0.45593999997E+02  0.45594000000E+02  0.51100000000E-03 0.  1.
    9900012    2    1    2    0    0  0.28489469557E+02 -0.11291512262E+02 -0.88073463601E+01  0.59301992493E+02  0.50000088389E+02 0.  0.
         12    1    1    2    0    0 -0.28489469557E+02  0.11291512262E+02  0.88073463601E+01  0.31886007507E+02  0.00000000000E+00 0. -1.
         11    1    3    3    0    0 -0.16090298175E+01  0.22283426714E+01  0.49737010112E+01  0.56826217562E+01  0.51100000000E-03 0. -1.
        -11    1    3    3    0    0  0.27603602185E+02  0.14208084792E+01 -0.22938676043E+02  0.35918803003E+02  0.51100000000E-03 0.  1.
        -12    1    3    3    0    0  0.24948971903E+01 -0.14940663413E+02  0.91576286721E+01  0.17700567734E+02  0.00000000000E+00 0.  1.
</event>
<event>
 7    1  0.4346085E-013  0.5930191E+02  0.7816164E-02  0.1266605E+00
        -11   -1    0    0    0    0  0.00000000000E+00  0.00000000000E+00  0.45593999997E+02  0.45594000000E+02  0.51100000000E-03 0.  1.
         11   -1    0    0    0    0 -0.00000000000E+00 -0.00000000000E+00 -0.45593999997E+02  0.45594000000E+02  0.51100000000E-03 0. -1.
    9900012    2    1    2    0    0 -0.12288821366E+02  0.29078195084E+02 -0.44906990563E+01  0.59301906826E+02  0.49999932153E+02 0.  0.
         12    1    1    2    0    0  0.12288821366E+02 -0.29078195084E+02  0.44906990563E+01  0.31886093174E+02  0.00000000000E+00 0. -1.
         11    1    3    3    0    0 -0.12168267729E+02 -0.95322262701E+01  0.24993303592E+01  0.15658120248E+02  0.51100000000E-03 0. -1.
        -11    1    3    3    0    0  0.58449388708E+00  0.39873834520E+02 -0.36996572285E+01  0.40049366740E+02  0.51100000000E-03 0.  1.
         12    1    3    3    0    0 -0.70504752414E+00 -0.12634131664E+01 -0.32903721871E+01  0.35944198377E+01  0.00000000000E+00 0. -1.
</event>
<event>
 7    1  0.4346085E-013  0.5930194E+02  0.7816164E-02  0.1266605E+00
        -11   -1    0    0    0    0  0.00000000000E+00  0.00000000000E+00  0.45593999997E+02  0.45594000000E+02  0.51100000000E-03 0. -1.
         11   -1    0    0    0    0 -0.00000000000E+00 -0.00000000000E+00 -0.45593999997E+02  0.45594000000E+02  0.51100000000E-03 0.  1.
    9900012    2    1    2    0    0 -0.12435832745E+02 -0.12732494384E+02 -0.26456652965E+02  0.59301939794E+02  0.49999992280E+02 0.  0.
         12    1    1    2    0    0  0.12435832745E+02  0.12732494384E+02  0.26456652965E+02  0.31886060206E+02  0.00000000000E+00 0. -1.
         11    1    3    3    0    0  0.44043034630E+01 -0.88948377944E+01  0.11376185591E+02  0.15097470889E+02  0.51100000000E-03 0. -1.
        -11    1    3    3    0    0 -0.26743827552E+01  0.41698772429E+01 -0.30868109454E+01  0.58368314535E+01  0.51100000000E-03 0.  1.
         12    1    3    3    0    0 -0.14165753453E+02 -0.80075338330E+01 -0.34746027610E+02  0.38367637452E+02  0.00000000000E+00 0. -1.
</event>
<event>
 7    1  0.4346085E-013  0.5930195E+02  0.7816164E-02  0.1266605E+00
        -11   -1    0    0    0    0  0.00000000000E+00  0.00000000000E+00  0.45593999997E+02  0.45594000000E+02  0.51100000000E-03 0.  1.
         11   -1    0    0    0    0 -0.00000000000E+00 -0.00000000000E+00 -0.45593999997E+02  0.45594000000E+02  0.51100000000E-03 0. -1.
    9900012    2    1    2    0    0 -0.28580356684E+02 -0.13405135782E+02  0.44928498427E+01  0.59301950492E+02  0.50000011789E+02 0.  0.
         12    1    1    2    0    0  0.28580356684E+02  0.13405135782E+02 -0.44928498427E+01  0.31886049508E+02  0.00000000000E+00 0. -1.
         11    1    3    3    0    0 -0.16057818731E+02 -0.77853872421E+01 -0.40599391219E+01  0.18301609297E+02  0.51100000000E-03 0. -1.
        -11    1    3    3    0    0 -0.81518691595E+01  0.75461027750E+01 -0.11904990481E+02  0.16282672891E+02  0.51100000000E-03 0.  1.
        -12    1    3    3    0    0 -0.43706687932E+01 -0.13165851315E+02  0.20457779445E+02  0.24717668304E+02  0.00000000000E+00 0.  1.
</event>
<event>
 7    1  0.4346085E-013  0.5930192E+02  0.7816164E-02  0.1266605E+00
        -11   -1    0    0    0    0  0.00000000000E+00  0.00000000000E+00  0.45593999997E+02  0.45594000000E+02  0.51100000000E-03 0.  1.
         11   -1    0    0    0    0 -0.00000000000E+00 -0.00000000000E+00 -0.45593999997E+02  0.45594000000E+02  0.51100000000E-03 0. -1.
    9900012    2    1    2    0    0  0.25154076922E+02 -0.11889909411E+02  0.15576408460E+02  0.59301921030E+02  0.49999958057E+02 0.  0.
         12    1    1    2    0    0 -0.25154076922E+02  0.11889909411E+02 -0.15576408460E+02  0.31886078970E+02  0.00000000000E+00 0. -1.
         11    1    3    3    0    0  0.61007586228E+01 -0.28790956488E+02  0.13403081165E+02  0.32338537633E+02  0.51100000000E-03 0. -1.
        -11    1    3    3    0    0  0.10550070875E+02  0.10651313913E+02 -0.28751567400E+01  0.15265025715E+02  0.51100000000E-03 0.  1.
         12    1    3    3    0    0  0.85032474240E+01  0.62497331650E+01  0.50484840351E+01  0.11698357681E+02  0.00000000000E+00 0. -1.
</event>
<event>
 7    1  0.4346085E-013  0.5930200E+02  0.7816164E-02  0.1266605E+00
        -11   -1    0    0    0    0  0.00000000000E+00  0.00000000000E+00  0.45593999997E+02  0.45594000000E+02  0.51100000000E-03 0. -1.
         11   -1    0    0    0    0 -0.00000000000E+00 -0.00000000000E+00 -0.45593999997E+02  0.45594000000E+02  0.51100000000E-03 0.  1.
    9900012    2    1    2    0    0  0.84994263247E+00  0.12833583837E+02 -0.29176935705E+02  0.59302002231E+02  0.50000106150E+02 0.  0.
         12    1    1    2    0    0 -0.84994263247E+00 -0.12833583837E+02  0.29176935705E+02  0.31885997769E+02  0.00000000000E+00 0. -1.
         11    1    3    3    0    0 -0.74363990830E+01  0.18330926392E+02 -0.17227766898E+02  0.26232019485E+02  0.51100000000E-03 0. -1.
        -11    1    3    3    0    0 -0.44092768801E+01 -0.53133989269E+01  0.72758718047E+01  0.10030565365E+02  0.51100000000E-03 0.  1.
         12    1    3    3    0    0  0.12695618596E+02 -0.18394362772E+00 -0.19225040611E+02  0.23039417382E+02  0.00000000000E+00 0. -1.
</event>
<event>
 7    1  0.4346085E-013  0.5930197E+02  0.7816164E-02  0.1266605E+00
        -11   -1    0    0    0    0  0.00000000000E+00  0.00000000000E+00  0.45593999997E+02  0.45594000000E+02  0.51100000000E-03 0.  1.
         11   -1    0    0    0    0 -0.00000000000E+00 -0.00000000000E+00 -0.45593999997E+02  0.45594000000E+02  0.51100000000E-03 0. -1.
    9900012    2    1    2    0    0  0.11429977259E+02 -0.25100048650E+02  0.16001938114E+02  0.59301970994E+02  0.50000049179E+02 0.  0.
         12    1    1    2    0    0 -0.11429977259E+02  0.25100048650E+02 -0.16001938114E+02  0.31886029006E+02  0.00000000000E+00 0. -1.
         11    1    3    3    0    0 -0.43104016614E+01  0.13038047331E+01 -0.90041480901E+01  0.10067479941E+02  0.51100000000E-03 0. -1.
        -11    1    3    3    0    0  0.15486601300E+02 -0.32591497528E+02  0.22678285447E+02  0.42618601127E+02  0.51100000000E-03 0.  1.
        -12    1    3    3    0    0  0.25377762133E+00  0.61876441453E+01  0.23278007579E+01  0.66158899264E+01  0.00000000000E+00 0.  1.
</event>
<event>
 7    1  0.4346085E-013  0.5930194E+02  0.7816164E-02  0.1266605E+00
        -11   -1    0    0    0    0  0.00000000000E+00  0.00000000000E+00  0.45593999997E+02  0.45594000000E+02  0.51100000000E-03 0.  1.
         11   -1    0    0    0    0 -0.00000000000E+00 -0.00000000000E+00 -0.45593999997E+02  0.45594000000E+02  0.51100000000E-03 0. -1.
    9900012    2    1    2    0    0  0.51105347858E+01 -0.66825191590E+01  0.30756254113E+02  0.59301940426E+02  0.49999993432E+02 0.  0.
         12    1    1    2    0    0 -0.51105347858E+01  0.66825191590E+01 -0.30756254113E+02  0.31886059574E+02  0.00000000000E+00 0. -1.
         11    1    3    3    0    0 -0.18776151747E+02 -0.88517989267E+01  0.90683384510E+01  0.22652438747E+02  0.51100000000E-03 0. -1.
        -11    1    3    3    0    0  0.12304981061E+02  0.93024264130E+01  0.14904501451E+02  0.21449751976E+02  0.51100000000E-03 0.  1.
         12    1    3    3    0    0  0.11581705472E+02 -0.71331466453E+01  0.67834142109E+01  0.15199749704E+02  0.00000000000E+00 0. -1.
</event>
<event>
 7    1  0.4346085E-013  0.5930194E+02  0.7816164E-02  0.1266605E+00
        -11   -1    0    0    0    0  0.00000000000E+00  0.00000000000E+00  0.45593999997E+02  0.45594000000E+02  0.51100000000E-03 0. -1.
         11   -1    0    0    0    0 -0.00000000000E+00 -0.00000000000E+00 -0.45593999997E+02  0.45594000000E+02  0.51100000000E-03 0.  1.
    9900012    2    1    2    0    0 -0.14669449663E+02  0.28048958622E+02  0.38449819734E+01  0.59301941612E+02  0.49999995594E+02 0.  0.
         12    1    1    2    0    0  0.14669449663E+02 -0.28048958622E+02 -0.38449819734E+01  0.31886058388E+02  0.00000000000E+00 0. -1.
         11    1    3    3    0    0 -0.14688326893E+02 -0.34360473477E+01 -0.13557718477E+02  0.20282137433E+02  0.51100000000E-03 0. -1.
        -11    1    3    3    0    0 -0.74100547008E+01  0.14415017648E+02  0.66347081774E+01  0.17513451896E+02  0.51100000000E-03 0.  1.
         12    1    3    3    0    0  0.74289319309E+01  0.17069988321E+02  0.10767992273E+02  0.21506352282E+02  0.00000000000E+00 0. -1.
</event>
<event>
 7    1  0.4346085E-013  0.5930195E+02  0.7816164E-02  0.1266605E+00
        -11   -1    0    0    0    0  0.00000000000E+00  0.00000000000E+00  0.45593999997E+02  0.45594000000E+02  0.51100000000E-03 0.  1.
         11   -1    0    0    0    0 -0.00000000000E+00 -0.00000000000E+00 -0.45593999997E+02  0.45594000000E+02  0.51100000000E-03 0. -1.
    9900012    2    1    2    0    0 -0.15427952954E+02  0.89945274498E+01  0.26415846749E+02  0.59301949510E+02  0.50000009999E+02 0.  0.
         12    1    1    2    0    0  0.15427952954E+02 -0.89945274498E+01 -0.26415846749E+02  0.31886050490E+02  0.00000000000E+00 0. -1.
         11    1    3    3    0    0 -0.89584880268E+01 -0.25165229881E+00 -0.61731535787E+01  0.10882355534E+02  0.51100000000E-03 0. -1.
        -11    1    3    3    0    0  0.65428659375E+01 -0.84122686853E+01  0.21144968823E+02  0.23678789367E+02  0.51100000000E-03 0.  1.
        -12    1    3    3    0    0 -0.13012330864E+02  0.17658448434E+02  0.11444031504E+02  0.24740804609E+02  0.00000000000E+00 0.  1.
</event>
<event>
 7    1  0.4346085E-013  0.5930193E+02  0.7816164E-02  0.1266605E+00
        -11   -1    0    0    0    0  0.00000000000E+00  0.00000000000E+00  0.45593999997E+02  0.45594000000E+02  0.51100000000E-03 0. -1.
         11   -1    0    0    0    0 -0.00000000000E+00 -0.00000000000E+00 -0.45593999997E+02  0.45594000000E+02  0.51100000000E-03 0.  1.
    9900012    2    1    2    0    0  0.29986559942E+02  0.82526999389E+01  0.70299863881E+01  0.59301928714E+02  0.49999972071E+02 0.  0.
         12    1    1    2    0    0 -0.29986559942E+02 -0.82526999389E+01 -0.70299863881E+01  0.31886071286E+02  0.00000000000E+00 0. -1.
         11    1    3    3    0    0  0.34838291346E+01 -0.12189720190E+02 -0.12807361468E+02  0.18020955906E+02  0.51100000000E-03 0.  1.
        -11    1    3    3    0    0  0.19853288127E+02  0.71273007300E+01  0.13874224908E+02  0.25247684690E+02  0.51100000000E-03 0. -1.
        -12    1    3    3    0    0  0.66494426808E+01  0.13315119399E+02  0.59631229482E+01  0.16033288118E+02  0.00000000000E+00 0.  1.
</event>
<event>
 7    1  0.4346085E-013  0.5930197E+02  0.7816164E-02  0.1266605E+00
        -11   -1    0    0    0    0  0.00000000000E+00  0.00000000000E+00  0.45593999997E+02  0.45594000000E+02  0.51100000000E-03 0. -1.
         11   -1    0    0    0    0 -0.00000000000E+00 -0.00000000000E+00 -0.45593999997E+02  0.45594000000E+02  0.51100000000E-03 0.  1.
    9900012    2    1    2    0    0  0.84419855089E+01  0.33489080240E+00 -0.30746377606E+02  0.59301968464E+02  0.50000044566E+02 0.  0.
         12    1    1    2    0    0 -0.84419855089E+01 -0.33489080240E+00  0.30746377606E+02  0.31886031536E+02  0.00000000000E+00 0. -1.
         11    1    3    3    0    0  0.69092566981E+01 -0.14235372512E+02  0.48786409455E+01  0.16558526396E+02  0.51100000000E-03 0. -1.
        -11    1    3    3    0    0  0.25970142299E+01  0.34966727765E+01 -0.29931053719E+02  0.30246308542E+02  0.51100000000E-03 0.  1.
         12    1    3    3    0    0 -0.10642854191E+01  0.11073590538E+02 -0.56939648327E+01  0.12497133526E+02  0.00000000000E+00 0. -1.
</event>
<event>
 7    1  0.4346085E-013  0.5930197E+02  0.7816164E-02  0.1266605E+00
        -11   -1    0    0    0    0  0.00000000000E+00  0.00000000000E+00  0.45593999997E+02  0.45594000000E+02  0.51100000000E-03 0.  1.
         11   -1    0    0    0    0 -0.00000000000E+00 -0.00000000000E+00 -0.45593999997E+02  0.45594000000E+02  0.51100000000E-03 0. -1.
    9900012    2    1    2    0    0 -0.14818347053E+01  0.29874143619E+02  0.11048024319E+02  0.59301966499E+02  0.50000040982E+02 0.  0.
         12    1    1    2    0    0  0.14818347053E+01 -0.29874143619E+02 -0.11048024319E+02  0.31886033501E+02  0.00000000000E+00 0. -1.
         11    1    3    3    0    0  0.75568611842E+01 -0.62778235566E+01 -0.51614468931E+01  0.11097646321E+02  0.51100000000E-03 0. -1.
        -11    1    3    3    0    0 -0.16513293261E+02  0.31850981753E+02  0.90627452497E+01  0.37004151722E+02  0.51100000000E-03 0.  1.
        -12    1    3    3    0    0  0.74745973710E+01  0.43009854230E+01  0.71467259628E+01  0.11200168457E+02  0.00000000000E+00 0.  1.
</event>
<event>
 7    1  0.4346085E-013  0.5930196E+02  0.7816164E-02  0.1266605E+00
        -11   -1    0    0    0    0  0.00000000000E+00  0.00000000000E+00  0.45593999997E+02  0.45594000000E+02  0.51100000000E-03 0.  1.
         11   -1    0    0    0    0 -0.00000000000E+00 -0.00000000000E+00 -0.45593999997E+02  0.45594000000E+02  0.51100000000E-03 0. -1.
    9900012    2    1    2    0    0 -0.31578198865E+02  0.44193051619E+01  0.83303457686E-01  0.59301955386E+02  0.50000020715E+02 0.  0.
         12    1    1    2    0    0  0.31578198865E+02 -0.44193051619E+01 -0.83303457686E-01  0.31886044614E+02  0.00000000000E+00 0. -1.
         11    1    3    3    0    0 -0.82370957998E+01 -0.87973004920E+01 -0.20195361811E+02  0.23517969345E+02  0.51100000000E-03 0. -1.
        -11    1    3    3    0    0 -0.24638634091E+02  0.13340697984E+02  0.20067312912E+02  0.34463510563E+02  0.51100000000E-03 0.  1.
        -12    1    3    3    0    0  0.12975310261E+01 -0.12409232974E+00  0.21135235729E+00  0.13204754783E+01  0.00000000000E+00 0.  1.
</event>
<event>
 7    1  0.4346085E-013  0.5930195E+02  0.7816164E-02  0.1266605E+00
        -11   -1    0    0    0    0  0.00000000000E+00  0.00000000000E+00  0.45593999997E+02  0.45594000000E+02  0.51100000000E-03 0.  1.
         11   -1    0    0    0    0 -0.00000000000E+00 -0.00000000000E+00 -0.45593999997E+02  0.45594000000E+02  0.51100000000E-03 0. -1.
    9900012    2    1    2    0    0 -0.24561792573E+02 -0.17996585512E+02  0.94636946200E+01  0.59301948812E+02  0.50000008726E+02 0.  0.
         12    1    1    2    0    0  0.24561792573E+02  0.17996585512E+02 -0.94636946200E+01  0.31886051188E+02  0.00000000000E+00 0. -1.
         11    1    3    3    0    0 -0.45011082605E+01 -0.23125471751E+02  0.98178660227E+01  0.25523281779E+02  0.51100000000E-03 0. -1.
        -11    1    3    3    0    0 -0.81797273775E+01  0.67398469457E+01 -0.12718480883E+02  0.16555761325E+02  0.51100000000E-03 0.  1.
        -12    1    3    3    0    0 -0.11880956935E+02 -0.16109607069E+01  0.12364309480E+02  0.17222905708E+02  0.00000000000E+00 0.  1.
</event>
<event>
 7    1  0.4346085E-013  0.5930196E+02  0.7816164E-02  0.1266605E+00
        -11   -1    0    0    0    0  0.00000000000E+00  0.00000000000E+00  0.45593999997E+02  0.45594000000E+02  0.51100000000E-03 0.  1.
         11   -1    0    0    0    0 -0.00000000000E+00 -0.00000000000E+00 -0.45593999997E+02  0.45594000000E+02  0.51100000000E-03 0. -1.
    9900012    2    1    2    0    0  0.17135420582E+02  0.26143459750E+02  0.62941523839E+01  0.59301961041E+02  0.50000031028E+02 0.  0.
         12    1    1    2    0    0 -0.17135420582E+02 -0.26143459750E+02 -0.62941523839E+01  0.31886038959E+02  0.00000000000E+00 0. -1.
         11    1    3    3    0    0 -0.69126787086E+01  0.20499152303E+01 -0.14777790296E+02  0.16442942731E+02  0.51100000000E-03 0. -1.
        -11    1    3    3    0    0  0.24146033355E+02  0.15687354708E+02  0.17710587079E+02  0.33805161136E+02  0.51100000000E-03 0.  1.
         12    1    3    3    0    0 -0.97934064139E-01  0.84061898124E+01  0.33613556007E+01  0.90538571735E+01  0.00000000000E+00 0. -1.
</event>
<event>
 7    1  0.4346085E-013  0.5930199E+02  0.7816164E-02  0.1266605E+00
        -11   -1    0    0    0    0  0.00000000000E+00  0.00000000000E+00  0.45593999997E+02  0.45594000000E+02  0.51100000000E-03 0. -1.
         11   -1    0    0    0    0 -0.00000000000E+00 -0.00000000000E+00 -0.45593999997E+02  0.45594000000E+02  0.51100000000E-03 0.  1.
    9900012    2    1    2    0    0  0.17777479269E+01 -0.14248359737E+02 -0.28470006371E+02  0.59301993576E+02  0.50000090365E+02 0.  0.
         12    1    1    2    0    0 -0.17777479269E+01  0.14248359737E+02  0.28470006371E+02  0.31886006424E+02  0.00000000000E+00 0. -1.
         11    1    3    3    0    0 -0.89211763611E+01  0.49714812122E+01  0.33201882920E+00  0.10218280182E+02  0.51100000000E-03 0. -1.
        -11    1    3    3    0    0  0.13811875615E+02 -0.18002922763E+02 -0.35191635812E+02  0.41872716265E+02  0.51100000000E-03 0.  1.
        -12    1    3    3    0    0 -0.31129513273E+01 -0.12169181854E+01  0.63896106114E+01  0.72109971295E+01  0.00000000000E+00 0.  1.
</event>
<event>
 7    1  0.4346085E-013  0.5930196E+02  0.7816164E-02  0.1266605E+00
        -11   -1    0    0    0    0  0.00000000000E+00  0.00000000000E+00  0.45593999997E+02  0.45594000000E+02  0.51100000000E-03 0.  1.
         11   -1    0    0    0    0 -0.00000000000E+00 -0.00000000000E+00 -0.45593999997E+02  0.45594000000E+02  0.51100000000E-03 0. -1.
    9900012    2    1    2    0    0 -0.16594287060E+02  0.21897336265E+02  0.16181965836E+02  0.59301957335E+02  0.50000024269E+02 0.  0.
         12    1    1    2    0    0  0.16594287060E+02 -0.21897336265E+02 -0.16181965836E+02  0.31886042665E+02  0.00000000000E+00 0. -1.
         11    1    3    3    0    0  0.14694449283E+01 -0.37584164848E+01  0.33566638349E+01  0.52490146916E+01  0.51100000000E-03 0. -1.
        -11    1    3    3    0    0 -0.28789862738E+02  0.29332176066E+02  0.11194858616E+02  0.42597624452E+02  0.51100000000E-03 0.  1.
        -12    1    3    3    0    0  0.10726130749E+02 -0.36764233168E+01  0.16304433842E+01  0.11455318192E+02  0.00000000000E+00 0.  1.
</event>
<event>
 7    1  0.4346085E-013  0.5930200E+02  0.7816164E-02  0.1266605E+00
        -11   -1    0    0    0    0  0.00000000000E+00  0.00000000000E+00  0.45593999997E+02  0.45594000000E+02  0.51100000000E-03 0. -1.
         11   -1    0    0    0    0 -0.00000000000E+00 -0.00000000000E+00 -0.45593999997E+02  0.45594000000E+02  0.51100000000E-03 0.  1.
    9900012    2    1    2    0    0  0.17056753350E+02  0.89964902330E+01 -0.25393838482E+02  0.59302004575E+02  0.50000110424E+02 0.  0.
         12    1    1    2    0    0 -0.17056753350E+02 -0.89964902330E+01  0.25393838482E+02  0.31885995425E+02  0.00000000000E+00 0. -1.
         11    1    3    3    0    0  0.30131450632E+02 -0.40222515291E+01 -0.16877042573E+02  0.34769489366E+02  0.51100000000E-03 0. -1.
        -11    1    3    3    0    0 -0.93157671011E+01  0.15738841135E+02 -0.59657955475E+01  0.19237602599E+02  0.51100000000E-03 0.  1.
         12    1    3    3    0    0 -0.37589301809E+01 -0.27200993733E+01 -0.25510003618E+01  0.52949126104E+01  0.00000000000E+00 0. -1.
</event>
<event>
 7    1  0.4346085E-013  0.5930193E+02  0.7816164E-02  0.1266605E+00
        -11   -1    0    0    0    0  0.00000000000E+00  0.00000000000E+00  0.45593999997E+02  0.45594000000E+02  0.51100000000E-03 0.  1.
         11   -1    0    0    0    0 -0.00000000000E+00 -0.00000000000E+00 -0.45593999997E+02  0.45594000000E+02  0.51100000000E-03 0. -1.
    9900012    2    1    2    0    0 -0.47398018789E+01  0.31211129941E+02  0.44856371387E+01  0.59301932594E+02  0.49999979148E+02 0.  0.
         12    1    1    2    0    0  0.47398018789E+01 -0.31211129941E+02 -0.44856371387E+01  0.31886067406E+02  0.00000000000E+00 0. -1.
         11    1    3    3    0    0  0.17345226327E+02  0.20789221502E+02  0.12576022244E+02  0.29853055836E+02  0.51100000000E-03 0. -1.
        -11    1    3    3    0    0 -0.37683598165E+01 -0.18811238290E+01  0.25800608492E+01  0.49392182391E+01  0.51100000000E-03 0.  1.
         12    1    3    3    0    0 -0.18316668389E+02  0.12303032268E+02 -0.10670445954E+02  0.24509658519E+02  0.00000000000E+00 0. -1.
</event>
<event>
 7    1  0.4346085E-013  0.5930193E+02  0.7816164E-02  0.1266605E+00
        -11   -1    0    0    0    0  0.00000000000E+00  0.00000000000E+00  0.45593999997E+02  0.45594000000E+02  0.51100000000E-03 0. -1.
         11   -1    0    0    0    0 -0.00000000000E+00 -0.00000000000E+00 -0.45593999997E+02  0.45594000000E+02  0.51100000000E-03 0.  1.
    9900012    2    1    2    0    0 -0.63326193642E+01  0.21773674961E+02 -0.22417098469E+02  0.59301932618E+02  0.49999979191E+02 0.  0.
         12    1    1    2    0    0  0.63326193642E+01 -0.21773674961E+02  0.22417098469E+02  0.31886067382E+02  0.00000000000E+00 0. -1.
         11    1    3    3    0    0 -0.43195324863E+01 -0.59987116943E+01 -0.11174429849E+01  0.74760672801E+01  0.51100000000E-03 0. -1.
        -11    1    3    3    0    0 -0.13108633141E+02  0.29258712293E+02 -0.56041165701E+01  0.32547114015E+02  0.51100000000E-03 0.  1.
        -12    1    3    3    0    0  0.11095546263E+02 -0.14863256379E+01 -0.15695538914E+02  0.19278751323E+02  0.00000000000E+00 0.  1.
</event>
<event>
 7    1  0.4346085E-013  0.5930192E+02  0.7816164E-02  0.1266605E+00
        -11   -1    0    0    0    0  0.00000000000E+00  0.00000000000E+00  0.45593999997E+02  0.45594000000E+02  0.51100000000E-03 0. -1.
         11   -1    0    0    0    0 -0.00000000000E+00 -0.00000000000E+00 -0.45593999997E+02  0.45594000000E+02  0.51100000000E-03 0.  1.
    9900012    2    1    2    0    0  0.44753639136E+01 -0.84778603300E+01 -0.30410840486E+02  0.59301918130E+02  0.49999952769E+02 0.  0.
         12    1    1    2    0    0 -0.44753639136E+01  0.84778603300E+01  0.30410840486E+02  0.31886081870E+02  0.00000000000E+00 0. -1.
         11    1    3    3    0    0 -0.80511435342E+01 -0.14800527883E+02  0.72025441817E+00  0.16864023972E+02  0.51100000000E-03 0. -1.
        -11    1    3    3    0    0 -0.38964937469E+01 -0.17363712318E+01 -0.21194734271E+02  0.21619768954E+02  0.51100000000E-03 0.  1.
         12    1    3    3    0    0  0.16423001195E+02  0.80590387851E+01 -0.99363606333E+01  0.20818125204E+02  0.00000000000E+00 0. -1.
</event>
<event>
 7    1  0.4346085E-013  0.5930194E+02  0.7816164E-02  0.1266605E+00
        -11   -1    0    0    0    0  0.00000000000E+00  0.00000000000E+00  0.45593999997E+02  0.45594000000E+02  0.51100000000E-03 0.  1.
         11   -1    0    0    0    0 -0.00000000000E+00 -0.00000000000E+00 -0.45593999997E+02  0.45594000000E+02  0.51100000000E-03 0. -1.
    9900012    2    1    2    0    0  0.11524884778E+02  0.13952441522E+02  0.26253134338E+02  0.59301942606E+02  0.49999997407E+02 0.  0.
         12    1    1    2    0    0 -0.11524884778E+02 -0.13952441522E+02 -0.26253134338E+02  0.31886057394E+02  0.00000000000E+00 0. -1.
         11    1    3    3    0    0  0.12772592058E+02  0.18709206392E+02 -0.50555802645E+01  0.23210609724E+02  0.51100000000E-03 0. -1.
        -11    1    3    3    0    0  0.24403483920E+00  0.54791740821E+01  0.20117845135E+02  0.20852064520E+02  0.51100000000E-03 0.  1.
         12    1    3    3    0    0 -0.14917421190E+01 -0.10235938952E+02  0.11190869467E+02  0.15239268362E+02  0.00000000000E+00 0. -1.
</event>
<event>
 7    1  0.4346085E-013  0.5930190E+02  0.7816164E-02  0.1266605E+00
        -11   -1    0    0    0    0  0.00000000000E+00  0.00000000000E+00  0.45593999997E+02  0.45594000000E+02  0.51100000000E-03 0. -1.
         11   -1    0    0    0    0 -0.00000000000E+00 -0.00000000000E+00 -0.45593999997E+02  0.45594000000E+02  0.51100000000E-03 0.  1.
    9900012    2    1    2    0    0 -0.25684384316E+02 -0.54689948387E+01 -0.18086613513E+02  0.59301904432E+02  0.49999927786E+02 0.  0.
         12    1    1    2    0    0  0.25684384316E+02  0.54689948387E+01  0.18086613513E+02  0.31886095568E+02  0.00000000000E+00 0. -1.
         11    1    3    3    0    0 -0.11643913824E+02  0.68020803244E+01  0.11817719803E+02  0.17930630984E+02  0.51100000000E-03 0. -1.
        -11    1    3    3    0    0 -0.16660098293E+02 -0.83799069185E+00 -0.15254899762E+02  0.22604713459E+02  0.51100000000E-03 0.  1.
         12    1    3    3    0    0  0.26196278019E+01 -0.11433084471E+02 -0.14649433554E+02  0.18766559989E+02  0.00000000000E+00 0. -1.
</event>
<event>
 7    1  0.4346085E-013  0.5930192E+02  0.7816164E-02  0.1266605E+00
        -11   -1    0    0    0    0  0.00000000000E+00  0.00000000000E+00  0.45593999997E+02  0.45594000000E+02  0.51100000000E-03 0.  1.
         11   -1    0    0    0    0 -0.00000000000E+00 -0.00000000000E+00 -0.45593999997E+02  0.45594000000E+02  0.51100000000E-03 0. -1.
    9900012    2    1    2    0    0 -0.19569671663E+02 -0.12173784769E+02  0.22035183907E+02  0.59301915035E+02  0.49999947124E+02 0.  0.
         12    1    1    2    0    0  0.19569671663E+02  0.12173784769E+02 -0.22035183907E+02  0.31886084965E+02  0.00000000000E+00 0. -1.
         11    1    3    3    0    0 -0.24371314607E+02 -0.18440282099E+02  0.22723268381E+02  0.38083485998E+02  0.51100000000E-03 0. -1.
        -11    1    3    3    0    0 -0.33512231635E+01  0.10723237567E+02  0.22813266157E+01  0.11463985869E+02  0.51100000000E-03 0.  1.
         12    1    3    3    0    0  0.81528661069E+01 -0.44567402374E+01 -0.29694110901E+01  0.97544431682E+01  0.00000000000E+00 0. -1.
</event>
<event>
 7    1  0.4346085E-013  0.5930195E+02  0.7816164E-02  0.1266605E+00
        -11   -1    0    0    0    0  0.00000000000E+00  0.00000000000E+00  0.45593999997E+02  0.45594000000E+02  0.51100000000E-03 0.  1.
         11   -1    0    0    0    0 -0.00000000000E+00 -0.00000000000E+00 -0.45593999997E+02  0.45594000000E+02  0.51100000000E-03 0. -1.
    9900012    2    1    2    0    0  0.22512852689E+02 -0.40003473086E+01  0.22223608801E+02  0.59301951281E+02  0.50000013228E+02 0.  0.
         12    1    1    2    0    0 -0.22512852689E+02  0.40003473086E+01 -0.22223608801E+02  0.31886048719E+02  0.00000000000E+00 0. -1.
         11    1    3    3    0    0 -0.60788686887E+01 -0.12697080096E+02 -0.13604589407E+01  0.14142819249E+02  0.51100000000E-03 0. -1.
        -11    1    3    3    0    0  0.15708218087E+02 -0.57832238114E+01  0.18846300946E+02  0.25206682700E+02  0.51100000000E-03 0.  1.
         12    1    3    3    0    0  0.12883503290E+02  0.14479956599E+02  0.47377667955E+01  0.19952449332E+02  0.00000000000E+00 0. -1.
</event>
<event>
 7    1  0.4346085E-013  0.5930190E+02  0.7816164E-02  0.1266605E+00
        -11   -1    0    0    0    0  0.00000000000E+00  0.00000000000E+00  0.45593999997E+02  0.45594000000E+02  0.51100000000E-03 0. -1.
         11   -1    0    0    0    0 -0.00000000000E+00 -0.00000000000E+00 -0.45593999997E+02  0.45594000000E+02  0.51100000000E-03 0.  1.
    9900012    2    1    2    0    0  0.71003085374E+01 -0.19045305625E+02 -0.24567969715E+02  0.59301902974E+02  0.49999925127E+02 0.  0.
         12    1    1    2    0    0 -0.71003085374E+01  0.19045305625E+02  0.24567969715E+02  0.31886097026E+02  0.00000000000E+00 0. -1.
         11    1    3    3    0    0  0.16594769977E+02 -0.80086132699E+01  0.96066395454E+01  0.20780081826E+02  0.51100000000E-03 0. -1.
        -11    1    3    3    0    0 -0.77331704630E+00 -0.86671890987E+01 -0.18027379167E+02  0.20017606901E+02  0.51100000000E-03 0.  1.
         12    1    3    3    0    0 -0.87211443932E+01 -0.23695032563E+01 -0.16147230093E+02  0.18504214247E+02  0.00000000000E+00 0. -1.
</event>
<event>
 7    1  0.4346085E-013  0.5930188E+02  0.7816164E-02  0.1266605E+00
        -11   -1    0    0    0    0  0.00000000000E+00  0.00000000000E+00  0.45593999997E+02  0.45594000000E+02  0.51100000000E-03 0. -1.
         11   -1    0    0    0    0 -0.00000000000E+00 -0.00000000000E+00 -0.45593999997E+02  0.45594000000E+02  0.51100000000E-03 0.  1.
    9900012    2    1    2    0    0  0.20020294447E+02  0.18013095202E+02 -0.17071638758E+02  0.59301880161E+02  0.49999883522E+02 0.  0.
         12    1    1    2    0    0 -0.20020294447E+02 -0.18013095202E+02  0.17071638758E+02  0.31886119839E+02  0.00000000000E+00 0. -1.
         11    1    3    3    0    0 -0.10304891562E+02  0.16974956464E+02 -0.16761501284E+02  0.25986301442E+02  0.51100000000E-03 0. -1.
        -11    1    3    3    0    0  0.12312773341E+02  0.72161537201E+01 -0.86551204408E-01  0.14271816746E+02  0.51100000000E-03 0.  1.
         12    1    3    3    0    0  0.18012412668E+02 -0.61780149823E+01 -0.22358626973E+00  0.19043761973E+02  0.00000000000E+00 0. -1.
</event>
<event>
 7    1  0.4346085E-013  0.5930194E+02  0.7816164E-02  0.1266605E+00
        -11   -1    0    0    0    0  0.00000000000E+00  0.00000000000E+00  0.45593999997E+02  0.45594000000E+02  0.51100000000E-03 0.  1.
         11   -1    0    0    0    0 -0.00000000000E+00 -0.00000000000E+00 -0.45593999997E+02  0.45594000000E+02  0.51100000000E-03 0. -1.
    9900012    2    1    2    0    0  0.18068952924E+02 -0.24998313198E+02  0.80819804292E+01  0.59301935172E+02  0.49999983850E+02 0.  0.
         12    1    1    2    0    0 -0.18068952924E+02  0.24998313198E+02 -0.80819804292E+01  0.31886064828E+02  0.00000000000E+00 0. -1.
         11    1    3    3    0    0 -0.46859093356E+01 -0.13429575872E+02 -0.85997989874E+01  0.16621305523E+02  0.51100000000E-03 0. -1.
        -11    1    3    3    0    0  0.19263785453E+01 -0.33706736487E+01  0.19713780606E+02  0.20092424473E+02  0.51100000000E-03 0.  1.
         12    1    3    3    0    0  0.20828483715E+02 -0.81980636776E+01 -0.30320011893E+01  0.22588205177E+02  0.00000000000E+00 0. -1.
</event>
<event>
 7    1  0.4346085E-013  0.5930195E+02  0.7816164E-02  0.1266605E+00
        -11   -1    0    0    0    0  0.00000000000E+00  0.00000000000E+00  0.45593999997E+02  0.45594000000E+02  0.51100000000E-03 0.  1.
         11   -1    0    0    0    0 -0.00000000000E+00 -0.00000000000E+00 -0.45593999997E+02  0.45594000000E+02  0.51100000000E-03 0. -1.
    9900012    2    1    2    0    0  0.95497337092E+01 -0.29845001806E+02  0.58990142617E+01  0.59301954212E+02  0.50000018574E+02 0.  0.
         12    1    1    2    0    0 -0.95497337092E+01  0.29845001806E+02 -0.58990142617E+01  0.31886045788E+02  0.00000000000E+00 0. -1.
         11    1    3    3    0    0  0.63511710000E+01 -0.60385979482E+01 -0.81933282644E+01  0.11997194112E+02  0.51100000000E-03 0. -1.
        -11    1    3    3    0    0 -0.17442383160E+02 -0.13571042255E+02  0.75591856407E+01  0.23357037611E+02  0.51100000000E-03 0.  1.
        -12    1    3    3    0    0  0.20640945869E+02 -0.10235361603E+02  0.65331568854E+01  0.23947722489E+02  0.00000000000E+00 0.  1.
</event>
<event>
 7    1  0.4346085E-013  0.5930191E+02  0.7816164E-02  0.1266605E+00
        -11   -1    0    0    0    0  0.00000000000E+00  0.00000000000E+00  0.45593999997E+02  0.45594000000E+02  0.51100000000E-03 0.  1.
         11   -1    0    0    0    0 -0.00000000000E+00 -0.00000000000E+00 -0.45593999997E+02  0.45594000000E+02  0.51100000000E-03 0. -1.
    9900012    2    1    2    0    0 -0.13101816317E+02 -0.29068477899E+02 -0.29751448647E+00  0.59301913488E+02  0.49999944303E+02 0.  0.
         12    1    1    2    0    0  0.13101816317E+02  0.29068477899E+02  0.29751448647E+00  0.31886086512E+02  0.00000000000E+00 0. -1.
         11    1    3    3    0    0 -0.70603813727E+00  0.46920657983E+01  0.46673224964E+01  0.66556645689E+01  0.51100000000E-03 0. -1.
        -11    1    3    3    0    0 -0.20359999629E+02 -0.11458048336E+02 -0.14072260801E+02  0.27273521607E+02  0.51100000000E-03 0.  1.
        -12    1    3    3    0    0  0.79642214491E+01 -0.22302495362E+02  0.91074238179E+01  0.25372727312E+02  0.00000000000E+00 0.  1.
</event>
<event>
 7    1  0.4346085E-013  0.5930195E+02  0.7816164E-02  0.1266605E+00
        -11   -1    0    0    0    0  0.00000000000E+00  0.00000000000E+00  0.45593999997E+02  0.45594000000E+02  0.51100000000E-03 0.  1.
         11   -1    0    0    0    0 -0.00000000000E+00 -0.00000000000E+00 -0.45593999997E+02  0.45594000000E+02  0.51100000000E-03 0. -1.
    9900012    2    1    2    0    0  0.20053463921E+02 -0.10561172377E+02  0.22428563647E+02  0.59301949061E+02  0.50000009179E+02 0.  0.
         12    1    1    2    0    0 -0.20053463921E+02  0.10561172377E+02 -0.22428563647E+02  0.31886050939E+02  0.00000000000E+00 0. -1.
         11    1    3    3    0    0  0.12454576255E+02  0.51205589952E+01  0.59197381324E+01  0.14709857033E+02  0.51100000000E-03 0. -1.
        -11    1    3    3    0    0  0.72145516109E+01 -0.26914585299E+02  0.46442870194E+01  0.28249142623E+02  0.51100000000E-03 0.  1.
        -12    1    3    3    0    0  0.38433605551E+00  0.11232853927E+02  0.11864538495E+02  0.16342949405E+02  0.00000000000E+00 0.  1.
</event>
<event>
 7    1  0.4346085E-013  0.5930194E+02  0.7816164E-02  0.1266605E+00
        -11   -1    0    0    0    0  0.00000000000E+00  0.00000000000E+00  0.45593999997E+02  0.45594000000E+02  0.51100000000E-03 0. -1.
         11   -1    0    0    0    0 -0.00000000000E+00 -0.00000000000E+00 -0.45593999997E+02  0.45594000000E+02  0.51100000000E-03 0.  1.
    9900012    2    1    2    0    0 -0.17646688097E+02  0.19816416110E+02 -0.17681206296E+02  0.59301937147E+02  0.49999987451E+02 0.  0.
         12    1    1    2    0    0  0.17646688097E+02 -0.19816416110E+02  0.17681206296E+02  0.31886062853E+02  0.00000000000E+00 0. -1.
         11    1    3    3    0    0 -0.10217285148E+02  0.11581149441E+02  0.10096948857E+02  0.18451675118E+02  0.51100000000E-03 0. -1.
        -11    1    3    3    0    0 -0.67941280592E+01 -0.86469722715E+01 -0.18642333457E+02  0.21644096251E+02  0.51100000000E-03 0.  1.
        -12    1    3    3    0    0 -0.63527488972E+00  0.16882238940E+02 -0.91358216967E+01  0.19206165778E+02  0.00000000000E+00 0.  1.
</event>
<event>
 7    1  0.4346085E-013  0.5930195E+02  0.7816164E-02  0.1266605E+00
        -11   -1    0    0    0    0  0.00000000000E+00  0.00000000000E+00  0.45593999997E+02  0.45594000000E+02  0.51100000000E-03 0.  1.
         11   -1    0    0    0    0 -0.00000000000E+00 -0.00000000000E+00 -0.45593999997E+02  0.45594000000E+02  0.51100000000E-03 0. -1.
    9900012    2    1    2    0    0 -0.16308337057E+02 -0.26187878670E+02  0.80593555905E+01  0.59301951964E+02  0.50000014474E+02 0.  0.
         12    1    1    2    0    0  0.16308337057E+02  0.26187878670E+02 -0.80593555905E+01  0.31886048036E+02  0.00000000000E+00 0. -1.
         11    1    3    3    0    0  0.92302607154E+01  0.55711490801E+01 -0.67195654163E+01  0.12703856682E+02  0.51100000000E-03 0. -1.
        -11    1    3    3    0    0 -0.41916463611E+00 -0.52513805889E+01  0.78090504372E+01  0.94198708098E+01  0.51100000000E-03 0.  1.
         12    1    3    3    0    0 -0.25119433137E+02 -0.26507647162E+02  0.69698705696E+01  0.37178224472E+02  0.00000000000E+00 0. -1.
</event>
<event>
 7    1  0.4346085E-013  0.5930194E+02  0.7816164E-02  0.1266605E+00
        -11   -1    0    0    0    0  0.00000000000E+00  0.00000000000E+00  0.45593999997E+02  0.45594000000E+02  0.51100000000E-03 0.  1.
         11   -1    0    0    0    0 -0.00000000000E+00 -0.00000000000E+00 -0.45593999997E+02  0.45594000000E+02  0.51100000000E-03 0. -1.
    9900012    2    1    2    0    0  0.26308935884E+02 -0.17077213250E+02  0.57384176563E+01  0.59301941025E+02  0.49999994524E+02 0.  0.
         12    1    1    2    0    0 -0.26308935884E+02  0.17077213250E+02 -0.57384176563E+01  0.31886058975E+02  0.00000000000E+00 0. -1.
         11    1    3    3    0    0 -0.16887546490E+01  0.81837967481E+01  0.66061040598E+01  0.10652090527E+02  0.51100000000E-03 0. -1.
        -11    1    3    3    0    0  0.19471871163E+02 -0.14919790421E+02 -0.15334167913E+02  0.28929061835E+02  0.51100000000E-03 0.  1.
        -12    1    3    3    0    0  0.85258193698E+01 -0.10341219577E+02  0.14466481509E+02  0.19720788664E+02  0.00000000000E+00 0.  1.
</event>
<event>
 7    1  0.4346085E-013  0.5930196E+02  0.7816164E-02  0.1266605E+00
        -11   -1    0    0    0    0  0.00000000000E+00  0.00000000000E+00  0.45593999997E+02  0.45594000000E+02  0.51100000000E-03 0.  1.
         11   -1    0    0    0    0 -0.00000000000E+00 -0.00000000000E+00 -0.45593999997E+02  0.45594000000E+02  0.51100000000E-03 0. -1.
    9900012    2    1    2    0    0 -0.26272522129E+02 -0.83669920018E+01  0.16014607632E+02  0.59301958669E+02  0.50000026702E+02 0.  0.
         12    1    1    2    0    0  0.26272522129E+02  0.83669920018E+01 -0.16014607632E+02  0.31886041331E+02  0.00000000000E+00 0. -1.
         11    1    3    3    0    0 -0.98866677724E+01 -0.12954570540E+02 -0.11992503273E+02  0.20233319860E+02  0.51100000000E-03 0. -1.
        -11    1    3    3    0    0 -0.14043400903E+02 -0.64135037566E+01  0.19982735946E+02  0.25251928154E+02  0.51100000000E-03 0.  1.
         12    1    3    3    0    0 -0.23424534535E+01  0.11001082295E+02  0.80243749596E+01  0.13816710655E+02  0.00000000000E+00 0. -1.
</event>
<event>
 7    1  0.4346085E-013  0.5930196E+02  0.7816164E-02  0.1266605E+00
        -11   -1    0    0    0    0  0.00000000000E+00  0.00000000000E+00  0.45593999997E+02  0.45594000000E+02  0.51100000000E-03 0.  1.
         11   -1    0    0    0    0 -0.00000000000E+00 -0.00000000000E+00 -0.45593999997E+02  0.45594000000E+02  0.51100000000E-03 0. -1.
    9900012    2    1    2    0    0  0.25289977297E+02 -0.44398111852E+01 -0.18905676846E+02  0.59301960860E+02  0.50000030698E+02 0.  0.
         12    1    1    2    0    0 -0.25289977297E+02  0.44398111852E+01  0.18905676846E+02  0.31886039140E+02  0.00000000000E+00 0. -1.
         11    1    3    3    0    0  0.77899246690E+01  0.85147228263E+01 -0.15757828079E+02  0.19531834967E+02  0.51100000000E-03 0. -1.
        -11    1    3    3    0    0  0.65598685549E+01 -0.22956618022E+02 -0.61300160332E+01  0.24649853616E+02  0.51100000000E-03 0.  1.
        -12    1    3    3    0    0  0.10940184073E+02  0.10002084011E+02  0.29821672667E+01  0.15120272277E+02  0.00000000000E+00 0.  1.
</event>
<event>
 7    1  0.4346085E-013  0.5930193E+02  0.7816164E-02  0.1266605E+00
        -11   -1    0    0    0    0  0.00000000000E+00  0.00000000000E+00  0.45593999997E+02  0.45594000000E+02  0.51100000000E-03 0.  1.
         11   -1    0    0    0    0 -0.00000000000E+00 -0.00000000000E+00 -0.45593999997E+02  0.45594000000E+02  0.51100000000E-03 0. -1.
    9900012    2    1    2    0    0  0.28044195616E+02  0.15018929553E+02  0.21624780794E+01  0.59301929937E+02  0.49999974301E+02 0.  0.
         12    1    1    2    0    0 -0.28044195616E+02 -0.15018929553E+02 -0.21624780794E+01  0.31886070063E+02  0.00000000000E+00 0. -1.
         11    1    3    3    0    0 -0.67742079396E+01  0.67753025975E+01 -0.12655805411E+01  0.96641767815E+01  0.51100000000E-03 0. -1.
        -11    1    3    3    0    0  0.18176692056E+02 -0.12106263383E+02 -0.42549854119E+01  0.22249913445E+02  0.51100000000E-03 0.  1.
        -12    1    3    3    0    0  0.16641711499E+02  0.20349890338E+02  0.76830440325E+01  0.27387839710E+02  0.00000000000E+00 0.  1.
</event>
<event>
 7    1  0.4346085E-013  0.5930209E+02  0.7816164E-02  0.1266604E+00
        -11   -1    0    0    0    0  0.00000000000E+00  0.00000000000E+00  0.45593999997E+02  0.45594000000E+02  0.51100000000E-03 0.  1.
         11   -1    0    0    0    0 -0.00000000000E+00 -0.00000000000E+00 -0.45593999997E+02  0.45594000000E+02  0.51100000000E-03 0. -1.
    9900012    2    1    2    0    0 -0.14191310852E+02 -0.25824988551E+02  0.12181451480E+02  0.59302092493E+02  0.50000270764E+02 0.  0.
         12    1    1    2    0    0  0.14191310852E+02  0.25824988551E+02 -0.12181451480E+02  0.31885907507E+02  0.00000000000E+00 0. -1.
         11    1    3    3    0    0 -0.20586143991E+02 -0.68028252497E+01 -0.97622252210E+01  0.23777485092E+02  0.51100000000E-03 0. -1.
        -11    1    3    3    0    0  0.89484394269E+00 -0.21500167447E+02  0.14521783770E+02  0.25960357279E+02  0.51100000000E-03 0.  1.
         12    1    3    3    0    0  0.54999891960E+01  0.24780041457E+01  0.74218929311E+01  0.95642501213E+01  0.00000000000E+00 0. -1.
</event>
<event>
 7    1  0.4346085E-013  0.5930195E+02  0.7816164E-02  0.1266605E+00
        -11   -1    0    0    0    0  0.00000000000E+00  0.00000000000E+00  0.45593999997E+02  0.45594000000E+02  0.51100000000E-03 0. -1.
         11   -1    0    0    0    0 -0.00000000000E+00 -0.00000000000E+00 -0.45593999997E+02  0.45594000000E+02  0.51100000000E-03 0.  1.
    9900012    2    1    2    0    0  0.22785182729E+02 -0.21994588532E+02  0.37140155965E+01  0.59301946802E+02  0.50000005060E+02 0.  0.
         12    1    1    2    0    0 -0.22785182729E+02  0.21994588532E+02 -0.37140155965E+01  0.31886053198E+02  0.00000000000E+00 0. -1.
         11    1    3    3    0    0 -0.71041354640E+01  0.98021740743E+01 -0.29021183388E+01  0.12448841247E+02  0.51100000000E-03 0. -1.
        -11    1    3    3    0    0  0.23036474784E+02 -0.26172907887E+02 -0.14087591482E+01  0.34895341815E+02  0.51100000000E-03 0.  1.
        -12    1    3    3    0    0  0.68528434083E+01 -0.56238547194E+01  0.80248930835E+01  0.11957763741E+02  0.00000000000E+00 0.  1.
</event>
<event>
 7    1  0.4346085E-013  0.5930193E+02  0.7816164E-02  0.1266605E+00
        -11   -1    0    0    0    0  0.00000000000E+00  0.00000000000E+00  0.45593999997E+02  0.45594000000E+02  0.51100000000E-03 0. -1.
         11   -1    0    0    0    0 -0.00000000000E+00 -0.00000000000E+00 -0.45593999997E+02  0.45594000000E+02  0.51100000000E-03 0.  1.
    9900012    2    1    2    0    0  0.14391321938E+01 -0.28011590598E+02 -0.15165795636E+02  0.59301926761E+02  0.49999968510E+02 0.  0.
         12    1    1    2    0    0 -0.14391321938E+01  0.28011590598E+02  0.15165795636E+02  0.31886073239E+02  0.00000000000E+00 0. -1.
         11    1    3    3    0    0  0.16370298213E+01  0.10938965118E+02  0.11133308362E+01  0.11116669029E+02  0.51100000000E-03 0. -1.
        -11    1    3    3    0    0 -0.37828438739E+00 -0.37333019607E+02 -0.60433448829E+01  0.37820886686E+02  0.51100000000E-03 0.  1.
         12    1    3    3    0    0  0.18038675983E+00 -0.16175361085E+01 -0.10235781590E+02  0.10364371047E+02  0.00000000000E+00 0. -1.
</event>
<event>
 7    1  0.4346085E-013  0.5930194E+02  0.7816164E-02  0.1266605E+00
        -11   -1    0    0    0    0  0.00000000000E+00  0.00000000000E+00  0.45593999997E+02  0.45594000000E+02  0.51100000000E-03 0.  1.
         11   -1    0    0    0    0 -0.00000000000E+00 -0.00000000000E+00 -0.45593999997E+02  0.45594000000E+02  0.51100000000E-03 0. -1.
    9900012    2    1    2    0    0 -0.63957718696E+01 -0.28925296756E+02  0.11795838854E+02  0.59301944983E+02  0.50000001743E+02 0.  0.
         12    1    1    2    0    0  0.63957718696E+01  0.28925296756E+02 -0.11795838854E+02  0.31886055017E+02  0.00000000000E+00 0. -1.
         11    1    3    3    0    0  0.10134721195E+02 -0.33420729119E+01  0.16121914923E+02  0.19333860610E+02  0.51100000000E-03 0. -1.
        -11    1    3    3    0    0 -0.19886416596E+02 -0.73667757065E+01 -0.25633828213E+01  0.21361411027E+02  0.51100000000E-03 0.  1.
         12    1    3    3    0    0  0.33559235312E+01 -0.18216448138E+02 -0.17626932481E+01  0.18606673346E+02  0.00000000000E+00 0. -1.
</event>
<event>
 7    1  0.4346085E-013  0.5930191E+02  0.7816164E-02  0.1266605E+00
        -11   -1    0    0    0    0  0.00000000000E+00  0.00000000000E+00  0.45593999997E+02  0.45594000000E+02  0.51100000000E-03 0. -1.
         11   -1    0    0    0    0 -0.00000000000E+00 -0.00000000000E+00 -0.45593999997E+02  0.45594000000E+02  0.51100000000E-03 0.  1.
    9900012    2    1    2    0    0  0.24239663530E+02  0.10280579943E+02 -0.17985295101E+02  0.59301914447E+02  0.49999946053E+02 0.  0.
         12    1    1    2    0    0 -0.24239663530E+02 -0.10280579943E+02  0.17985295101E+02  0.31886085553E+02  0.00000000000E+00 0. -1.
         11    1    3    3    0    0 -0.22795999189E+01 -0.12956282824E+02  0.60484388462E+01  0.14479138550E+02  0.51100000000E-03 0. -1.
        -11    1    3    3    0    0  0.79602532309E+01  0.55391410253E+01 -0.14539724261E+02  0.17477165006E+02  0.51100000000E-03 0.  1.
         12    1    3    3    0    0  0.18559010218E+02  0.17697721742E+02 -0.94940096860E+01  0.27345610892E+02  0.00000000000E+00 0. -1.
</event>
<event>
 7    1  0.4346085E-013  0.5930200E+02  0.7816164E-02  0.1266605E+00
        -11   -1    0    0    0    0  0.00000000000E+00  0.00000000000E+00  0.45593999997E+02  0.45594000000E+02  0.51100000000E-03 0. -1.
         11   -1    0    0    0    0 -0.00000000000E+00 -0.00000000000E+00 -0.45593999997E+02  0.45594000000E+02  0.51100000000E-03 0.  1.
    9900012    2    1    2    0    0  0.99606011393E+01 -0.88995379686E+01 -0.28953441698E+02  0.59301997785E+02  0.50000098040E+02 0.  0.
         12    1    1    2    0    0 -0.99606011393E+01  0.88995379686E+01  0.28953441698E+02  0.31886002215E+02  0.00000000000E+00 0. -1.
         11    1    3    3    0    0 -0.30664145227E+01 -0.14313083835E+02  0.90534382940E+01  0.17211391928E+02  0.51100000000E-03 0. -1.
        -11    1    3    3    0    0  0.10468918882E+02  0.74325725156E+01 -0.19827332018E+02  0.23621272023E+02  0.51100000000E-03 0.  1.
         12    1    3    3    0    0  0.25580967800E+01 -0.20190266493E+01 -0.18179547974E+02  0.18469333834E+02  0.00000000000E+00 0. -1.
</event>
<event>
 7    1  0.4346085E-013  0.5930194E+02  0.7816164E-02  0.1266605E+00
        -11   -1    0    0    0    0  0.00000000000E+00  0.00000000000E+00  0.45593999997E+02  0.45594000000E+02  0.51100000000E-03 0. -1.
         11   -1    0    0    0    0 -0.00000000000E+00 -0.00000000000E+00 -0.45593999997E+02  0.45594000000E+02  0.51100000000E-03 0.  1.
    9900012    2    1    2    0    0 -0.16361893337E+02 -0.27336382501E+02 -0.13158523811E+01  0.59301939890E+02  0.49999992454E+02 0.  0.
         12    1    1    2    0    0  0.16361893337E+02  0.27336382501E+02  0.13158523811E+01  0.31886060110E+02  0.00000000000E+00 0. -1.
         11    1    3    3    0    0 -0.56131001509E+01  0.62406556254E-01 -0.78966057156E+01  0.96885071074E+01  0.51100000000E-03 0. -1.
        -11    1    3    3    0    0  0.61322896812E+01 -0.27098928731E+02 -0.61637926390E+01  0.28459607430E+02  0.51100000000E-03 0.  1.
        -12    1    3    3    0    0 -0.16881082867E+02 -0.29986032618E+00  0.12744545973E+02  0.21153825353E+02  0.00000000000E+00 0.  1.
</event>
<event>
 7    1  0.4346085E-013  0.5930197E+02  0.7816164E-02  0.1266605E+00
        -11   -1    0    0    0    0  0.00000000000E+00  0.00000000000E+00  0.45593999997E+02  0.45594000000E+02  0.51100000000E-03 0. -1.
         11   -1    0    0    0    0 -0.00000000000E+00 -0.00000000000E+00 -0.45593999997E+02  0.45594000000E+02  0.51100000000E-03 0.  1.
    9900012    2    1    2    0    0  0.30116953273E+02  0.27763829618E+01  0.10098513114E+02  0.59301966319E+02  0.50000040654E+02 0.  0.
         12    1    1    2    0    0 -0.30116953273E+02 -0.27763829618E+01 -0.10098513114E+02  0.31886033681E+02  0.00000000000E+00 0. -1.
         11    1    3    3    0    0 -0.21238929150E+01  0.89912699516E+01  0.86290958636E+01  0.12641801776E+02  0.51100000000E-03 0. -1.
        -11    1    3    3    0    0  0.25977642958E+02  0.11008297950E+02 -0.57612821273E+00  0.28219717954E+02  0.51100000000E-03 0.  1.
        -12    1    3    3    0    0  0.62632032302E+01 -0.17223184940E+02  0.20455454632E+01  0.18440446590E+02  0.00000000000E+00 0.  1.
</event>
<event>
 7    1  0.4346085E-013  0.5930192E+02  0.7816164E-02  0.1266605E+00
        -11   -1    0    0    0    0  0.00000000000E+00  0.00000000000E+00  0.45593999997E+02  0.45594000000E+02  0.51100000000E-03 0.  1.
         11   -1    0    0    0    0 -0.00000000000E+00 -0.00000000000E+00 -0.45593999997E+02  0.45594000000E+02  0.51100000000E-03 0. -1.
    9900012    2    1    2    0    0 -0.11917954806E+02  0.28548599346E+02 -0.77241047577E+01  0.59301922071E+02  0.49999959957E+02 0.  0.
         12    1    1    2    0    0  0.11917954806E+02 -0.28548599346E+02  0.77241047577E+01  0.31886077929E+02  0.00000000000E+00 0. -1.
         11    1    3    3    0    0 -0.16385598885E+02  0.24035103706E+02 -0.89440150563E+01  0.30433032490E+02  0.51100000000E-03 0. -1.
        -11    1    3    3    0    0 -0.22942069253E+01 -0.11314152195E+02  0.15898812824E+01  0.11653374965E+02  0.51100000000E-03 0.  1.
        -12    1    3    3    0    0  0.67618510038E+01  0.15827647835E+02 -0.36997098384E+00  0.17215514616E+02  0.00000000000E+00 0.  1.
</event>
<event>
 7    1  0.4346085E-013  0.5930189E+02  0.7816164E-02  0.1266605E+00
        -11   -1    0    0    0    0  0.00000000000E+00  0.00000000000E+00  0.45593999997E+02  0.45594000000E+02  0.51100000000E-03 0.  1.
         11   -1    0    0    0    0 -0.00000000000E+00 -0.00000000000E+00 -0.45593999997E+02  0.45594000000E+02  0.51100000000E-03 0. -1.
    9900012    2    1    2    0    0  0.23535427252E+02 -0.11010490158E+02  0.18481797837E+02  0.59301888905E+02  0.49999899469E+02 0.  0.
         12    1    1    2    0    0 -0.23535427252E+02  0.11010490158E+02 -0.18481797837E+02  0.31886111095E+02  0.00000000000E+00 0. -1.
         11    1    3    3    0    0  0.22625459355E+02 -0.17615121998E+01 -0.10918568330E+01  0.22720177989E+02  0.51100000000E-03 0. -1.
        -11    1    3    3    0    0  0.83087146729E+00  0.45956672551E+01  0.22030909313E+02  0.22520467809E+02  0.51100000000E-03 0.  1.
         12    1    3    3    0    0  0.79096430146E-01 -0.13844645214E+02 -0.24572546424E+01  0.14061243107E+02  0.00000000000E+00 0. -1.
</event>
<event>
 7    1  0.4346085E-013  0.5930165E+02  0.7816164E-02  0.1266606E+00
        -11   -1    0    0    0    0  0.00000000000E+00  0.00000000000E+00  0.45593999997E+02  0.45594000000E+02  0.51100000000E-03 0. -1.
         11   -1    0    0    0    0 -0.00000000000E+00 -0.00000000000E+00 -0.45593999997E+02  0.45594000000E+02  0.51100000000E-03 0.  1.
    9900012    2    1    2    0    0  0.56277531292E+01  0.73571590286E+01 -0.30511312593E+02  0.59301645703E+02  0.49999455924E+02 0.  0.
         12    1    1    2    0    0 -0.56277531292E+01 -0.73571590286E+01  0.30511312593E+02  0.31886354297E+02  0.00000000000E+00 0. -1.
         11    1    3    3    0    0  0.59775055395E+01 -0.12933996064E+02  0.23553679004E+01  0.14441834539E+02  0.51100000000E-03 0. -1.
        -11    1    3    3    0    0 -0.69369753882E+01 -0.13367457395E+01 -0.37567453309E+01  0.80013531637E+01  0.51100000000E-03 0.  1.
         12    1    3    3    0    0  0.65872229778E+01  0.21627900832E+02 -0.29109935162E+02  0.36858457999E+02  0.00000000000E+00 0. -1.
</event>
<event>
 7    1  0.4346085E-013  0.5930193E+02  0.7816164E-02  0.1266605E+00
        -11   -1    0    0    0    0  0.00000000000E+00  0.00000000000E+00  0.45593999997E+02  0.45594000000E+02  0.51100000000E-03 0.  1.
         11   -1    0    0    0    0 -0.00000000000E+00 -0.00000000000E+00 -0.45593999997E+02  0.45594000000E+02  0.51100000000E-03 0. -1.
    9900012    2    1    2    0    0 -0.93263669312E+01 -0.26514096318E+02  0.15057986952E+02  0.59301931024E+02  0.49999976285E+02 0.  0.
         12    1    1    2    0    0  0.93263669312E+01  0.26514096318E+02 -0.15057986952E+02  0.31886068976E+02  0.00000000000E+00 0. -1.
         11    1    3    3    0    0  0.34034689899E+01  0.93798626967E+01  0.13785654981E+02  0.17017923166E+02  0.51100000000E-03 0.  1.
        -11    1    3    3    0    0 -0.16674565692E+02 -0.21697182871E+02  0.26111930814E+01  0.27488674306E+02  0.51100000000E-03 0. -1.
        -12    1    3    3    0    0  0.39447297709E+01 -0.14196776144E+02 -0.13388611106E+01  0.14795333552E+02  0.00000000000E+00 0.  1.
</event>
<event>
 7    1  0.4346085E-013  0.5930193E+02  0.7816164E-02  0.1266605E+00
        -11   -1    0    0    0    0  0.00000000000E+00  0.00000000000E+00  0.45593999997E+02  0.45594000000E+02  0.51100000000E-03 0.  1.
         11   -1    0    0    0    0 -0.00000000000E+00 -0.00000000000E+00 -0.45593999997E+02  0.45594000000E+02  0.51100000000E-03 0. -1.
    9900012    2    1    2    0    0  0.26436898193E+02 -0.42578325442E+01 -0.17311353195E+02  0.59301926653E+02  0.49999968313E+02 0.  0.
         12    1    1    2    0    0 -0.26436898193E+02  0.42578325442E+01  0.17311353195E+02  0.31886073347E+02  0.00000000000E+00 0. -1.
         11    1    3    3    0    0  0.13947145135E+02  0.33497159234E+01  0.32305244098E+01  0.14703052146E+02  0.51100000000E-03 0. -1.
        -11    1    3    3    0    0 -0.11048857984E+02 -0.38279810352E+01  0.19130899254E+01  0.11848654560E+02  0.51100000000E-03 0.  1.
        -12    1    3    3    0    0  0.23538611042E+02 -0.37795674324E+01 -0.22454967531E+02  0.32750219947E+02  0.00000000000E+00 0.  1.
</event>
<event>
 7    1  0.4346085E-013  0.5930195E+02  0.7816164E-02  0.1266605E+00
        -11   -1    0    0    0    0  0.00000000000E+00  0.00000000000E+00  0.45593999997E+02  0.45594000000E+02  0.51100000000E-03 0.  1.
         11   -1    0    0    0    0 -0.00000000000E+00 -0.00000000000E+00 -0.45593999997E+02  0.45594000000E+02  0.51100000000E-03 0. -1.
    9900012    2    1    2    0    0 -0.31875594876E+02 -0.22850533484E+00 -0.78402904899E+00  0.59301945604E+02  0.50000002875E+02 0.  0.
         12    1    1    2    0    0  0.31875594876E+02  0.22850533484E+00  0.78402904899E+00  0.31886054396E+02  0.00000000000E+00 0. -1.
         11    1    3    3    0    0 -0.29140879551E+02 -0.13320590323E+02 -0.12194638080E+02  0.34283205593E+02  0.51100000000E-03 0. -1.
        -11    1    3    3    0    0 -0.94472551180E+01  0.11335190977E+02  0.10291707439E+02  0.17990453747E+02  0.51100000000E-03 0.  1.
        -12    1    3    3    0    0  0.67125397933E+01  0.17568940111E+01  0.11189015919E+01  0.70282862645E+01  0.00000000000E+00 0.  1.
</event>
<event>
 7    1  0.4346085E-013  0.5930196E+02  0.7816164E-02  0.1266605E+00
        -11   -1    0    0    0    0  0.00000000000E+00  0.00000000000E+00  0.45593999997E+02  0.45594000000E+02  0.51100000000E-03 0. -1.
         11   -1    0    0    0    0 -0.00000000000E+00 -0.00000000000E+00 -0.45593999997E+02  0.45594000000E+02  0.51100000000E-03 0.  1.
    9900012    2    1    2    0    0 -0.20815725305E+02 -0.20906050405E+02 -0.12098012947E+02  0.59301964173E+02  0.50000036741E+02 0.  0.
         12    1    1    2    0    0  0.20815725305E+02  0.20906050405E+02  0.12098012947E+02  0.31886035827E+02  0.00000000000E+00 0. -1.
         11    1    3    3    0    0  0.15126793063E+01  0.72140987296E+01 -0.12125156007E+02  0.14189814220E+02  0.51100000000E-03 0. -1.
        -11    1    3    3    0    0 -0.15788562672E+02 -0.78306652426E+01  0.11361729636E+02  0.20968713122E+02  0.51100000000E-03 0.  1.
        -12    1    3    3    0    0 -0.65398419386E+01 -0.20289483892E+02 -0.11334586576E+02  0.24143436831E+02  0.00000000000E+00 0.  1.
</event>
<event>
 7    1  0.4346085E-013  0.5930193E+02  0.7816164E-02  0.1266605E+00
        -11   -1    0    0    0    0  0.00000000000E+00  0.00000000000E+00  0.45593999997E+02  0.45594000000E+02  0.51100000000E-03 0.  1.
         11   -1    0    0    0    0 -0.00000000000E+00 -0.00000000000E+00 -0.45593999997E+02  0.45594000000E+02  0.51100000000E-03 0. -1.
    9900012    2    1    2    0    0  0.59980626221E+01 -0.22252456539E+02  0.22035721969E+02  0.59301927493E+02  0.49999969844E+02 0.  0.
         12    1    1    2    0    0 -0.59980626221E+01  0.22252456539E+02 -0.22035721969E+02  0.31886072507E+02  0.00000000000E+00 0. -1.
         11    1    3    3    0    0 -0.76667784916E+00  0.10162075774E+02  0.55646363718E+01  0.11611234094E+02  0.51100000000E-03 0. -1.
        -11    1    3    3    0    0 -0.52161952060E+01 -0.32340071389E+02  0.12636986448E+02  0.35111000223E+02  0.51100000000E-03 0.  1.
        -12    1    3    3    0    0  0.11980935677E+02 -0.74460924577E-01  0.38340991487E+01  0.12579693176E+02  0.00000000000E+00 0.  1.
</event>
<event>
 7    1  0.4346085E-013  0.5930193E+02  0.7816164E-02  0.1266605E+00
        -11   -1    0    0    0    0  0.00000000000E+00  0.00000000000E+00  0.45593999997E+02  0.45594000000E+02  0.51100000000E-03 0.  1.
         11   -1    0    0    0    0 -0.00000000000E+00 -0.00000000000E+00 -0.45593999997E+02  0.45594000000E+02  0.51100000000E-03 0. -1.
    9900012    2    1    2    0    0  0.30448506071E+01  0.38329451014E+01  0.31508073315E+02  0.59301933021E+02  0.49999979926E+02 0.  0.
         12    1    1    2    0    0 -0.30448506071E+01 -0.38329451014E+01 -0.31508073315E+02  0.31886066979E+02  0.00000000000E+00 0. -1.
         11    1    3    3    0    0  0.69055063029E+01  0.22041575032E+00  0.12080004609E+02  0.13916217590E+02  0.51100000000E-03 0. -1.
        -11    1    3    3    0    0 -0.19539105178E+02  0.12169379900E+02  0.90941835289E+01  0.24750244698E+02  0.51100000000E-03 0.  1.
        -12    1    3    3    0    0  0.15678449483E+02 -0.85568505489E+01  0.10333885178E+02  0.20635470733E+02  0.00000000000E+00 0.  1.
</event>
<event>
 7    1  0.4346085E-013  0.5930198E+02  0.7816164E-02  0.1266605E+00
        -11   -1    0    0    0    0  0.00000000000E+00  0.00000000000E+00  0.45593999997E+02  0.45594000000E+02  0.51100000000E-03 0.  1.
         11   -1    0    0    0    0 -0.00000000000E+00 -0.00000000000E+00 -0.45593999997E+02  0.45594000000E+02  0.51100000000E-03 0. -1.
    9900012    2    1    2    0    0  0.79188476285E+01 -0.19220511144E+02  0.24178134563E+02  0.59301978182E+02  0.50000062290E+02 0.  0.
         12    1    1    2    0    0 -0.79188476285E+01  0.19220511144E+02 -0.24178134563E+02  0.31886021818E+02  0.00000000000E+00 0. -1.
         11    1    3    3    0    0 -0.81877472391E+01  0.10577228037E+02  0.15429565226E+02  0.20420294834E+02  0.51100000000E-03 0. -1.
        -11    1    3    3    0    0  0.16621168761E+02 -0.15359076150E+02  0.14049179094E+01  0.22674617213E+02  0.51100000000E-03 0.  1.
        -12    1    3    3    0    0 -0.51457389331E+00 -0.14438663031E+02  0.73436514282E+01  0.16207066135E+02  0.00000000000E+00 0.  1.
</event>
<event>
 7    1  0.4346085E-013  0.5930193E+02  0.7816164E-02  0.1266605E+00
        -11   -1    0    0    0    0  0.00000000000E+00  0.00000000000E+00  0.45593999997E+02  0.45594000000E+02  0.51100000000E-03 0. -1.
         11   -1    0    0    0    0 -0.00000000000E+00 -0.00000000000E+00 -0.45593999997E+02  0.45594000000E+02  0.51100000000E-03 0.  1.
    9900012    2    1    2    0    0  0.16659127379E+02 -0.34336269044E+01 -0.26970451222E+02  0.59301928466E+02  0.49999971619E+02 0.  0.
         12    1    1    2    0    0 -0.16659127379E+02  0.34336269044E+01  0.26970451222E+02  0.31886071534E+02  0.00000000000E+00 0. -1.
         11    1    3    3    0    0 -0.57100289539E+01  0.87049755188E+01  0.59907376403E+01  0.12011243365E+02  0.51100000000E-03 0. -1.
        -11    1    3    3    0    0  0.21363101008E+02  0.10899762069E+00 -0.18046840999E+02  0.27965736812E+02  0.51100000000E-03 0.  1.
         12    1    3    3    0    0  0.10060553256E+01 -0.12247600044E+02 -0.14914347863E+02  0.19324948288E+02  0.00000000000E+00 0. -1.
</event>
<event>
 7    1  0.4346085E-013  0.5930192E+02  0.7816164E-02  0.1266605E+00
        -11   -1    0    0    0    0  0.00000000000E+00  0.00000000000E+00  0.45593999997E+02  0.45594000000E+02  0.51100000000E-03 0.  1.
         11   -1    0    0    0    0 -0.00000000000E+00 -0.00000000000E+00 -0.45593999997E+02  0.45594000000E+02  0.51100000000E-03 0. -1.
    9900012    2    1    2    0    0 -0.30848776005E+02 -0.53282905983E+01 -0.60567712065E+01  0.59301919351E+02  0.49999954995E+02 0.  0.
         12    1    1    2    0    0  0.30848776005E+02  0.53282905983E+01  0.60567712065E+01  0.31886080649E+02  0.00000000000E+00 0. -1.
         11    1    3    3    0    0 -0.30210180724E+01 -0.15184891484E+02  0.31355591541E+01  0.15796810154E+02  0.51100000000E-03 0. -1.
        -11    1    3    3    0    0 -0.72543798970E+01  0.18617572272E+02 -0.23393691162E+01  0.20117471837E+02  0.51100000000E-03 0.  1.
        -12    1    3    3    0    0 -0.20573378036E+02 -0.87609713868E+01 -0.68529612444E+01  0.23387637360E+02  0.00000000000E+00 0.  1.
</event>
<event>
 7    1  0.4346085E-013  0.5930192E+02  0.7816164E-02  0.1266605E+00
        -11   -1    0    0    0    0  0.00000000000E+00  0.00000000000E+00  0.45593999997E+02  0.45594000000E+02  0.51100000000E-03 0.  1.
         11   -1    0    0    0    0 -0.00000000000E+00 -0.00000000000E+00 -0.45593999997E+02  0.45594000000E+02  0.51100000000E-03 0. -1.
    9900012    2    1    2    0    0  0.12453481796E+02 -0.27585931675E+02  0.10032425796E+02  0.59301915220E+02  0.49999947462E+02 0.  0.
         12    1    1    2    0    0 -0.12453481796E+02  0.27585931675E+02 -0.10032425796E+02  0.31886084780E+02  0.00000000000E+00 0. -1.
         11    1    3    3    0    0 -0.23020331242E+01 -0.30204856854E+02 -0.65262151376E+01  0.30987484867E+02  0.51100000000E-03 0. -1.
        -11    1    3    3    0    0  0.18289796976E+01  0.66222216846E+01  0.12368248615E+02  0.14148235256E+02  0.51100000000E-03 0.  1.
        -12    1    3    3    0    0  0.12926535223E+02 -0.40032965051E+01  0.41903923185E+01  0.14166195098E+02  0.00000000000E+00 0.  1.
</event>
<event>
 7    1  0.4346085E-013  0.5930193E+02  0.7816164E-02  0.1266605E+00
        -11   -1    0    0    0    0  0.00000000000E+00  0.00000000000E+00  0.45593999997E+02  0.45594000000E+02  0.51100000000E-03 0. -1.
         11   -1    0    0    0    0 -0.00000000000E+00 -0.00000000000E+00 -0.45593999997E+02  0.45594000000E+02  0.51100000000E-03 0.  1.
    9900012    2    1    2    0    0  0.10832972019E+02  0.21373576392E+02 -0.21036596756E+02  0.59301930100E+02  0.49999974599E+02 0.  0.
         12    1    1    2    0    0 -0.10832972019E+02 -0.21373576392E+02  0.21036596756E+02  0.31886069900E+02  0.00000000000E+00 0. -1.
         11    1    3    3    0    0  0.21200967671E+02  0.16097407087E+02 -0.28572486236E+02  0.39051178152E+02  0.51100000000E-03 0. -1.
        -11    1    3    3    0    0 -0.54596280444E+01  0.99598741539E+01  0.20852093179E+01  0.11547931837E+02  0.51100000000E-03 0.  1.
         12    1    3    3    0    0 -0.49083676069E+01 -0.46837048485E+01  0.54506801614E+01  0.87028201116E+01  0.00000000000E+00 0. -1.
</event>
<event>
 7    1  0.4346085E-013  0.5930194E+02  0.7816164E-02  0.1266605E+00
        -11   -1    0    0    0    0  0.00000000000E+00  0.00000000000E+00  0.45593999997E+02  0.45594000000E+02  0.51100000000E-03 0.  1.
         11   -1    0    0    0    0 -0.00000000000E+00 -0.00000000000E+00 -0.45593999997E+02  0.45594000000E+02  0.51100000000E-03 0. -1.
    9900012    2    1    2    0    0 -0.58250840690E+01  0.40916665122E+01  0.31081300675E+02  0.59301943629E+02  0.49999999273E+02 0.  0.
         12    1    1    2    0    0  0.58250840690E+01 -0.40916665122E+01 -0.31081300675E+02  0.31886056371E+02  0.00000000000E+00 0. -1.
         11    1    3    3    0    0  0.13756256396E+02 -0.10274178375E+02  0.24698778213E+02  0.30080275544E+02  0.51100000000E-03 0.  1.
        -11    1    3    3    0    0 -0.14555960864E+02  0.15935293098E+01  0.47782984235E+01  0.15402839622E+02  0.51100000000E-03 0. -1.
        -12    1    3    3    0    0 -0.50253796008E+01  0.12772315577E+02  0.16042240384E+01  0.13818828463E+02  0.00000000000E+00 0.  1.
</event>
<event>
 7    1  0.4346085E-013  0.5930200E+02  0.7816164E-02  0.1266605E+00
        -11   -1    0    0    0    0  0.00000000000E+00  0.00000000000E+00  0.45593999997E+02  0.45594000000E+02  0.51100000000E-03 0. -1.
         11   -1    0    0    0    0 -0.00000000000E+00 -0.00000000000E+00 -0.45593999997E+02  0.45594000000E+02  0.51100000000E-03 0.  1.
    9900012    2    1    2    0    0  0.12959519836E+02  0.83942792569E+01 -0.27898102386E+02  0.59301996874E+02  0.50000096379E+02 0.  0.
         12    1    1    2    0    0 -0.12959519836E+02 -0.83942792569E+01  0.27898102386E+02  0.31886003126E+02  0.00000000000E+00 0. -1.
         11    1    3    3    0    0  0.15261312195E+02 -0.36805151860E+01 -0.93238602195E+01  0.18258921425E+02  0.51100000000E-03 0. -1.
        -11    1    3    3    0    0 -0.16024044573E+02  0.15155174451E+02 -0.14522071654E+02  0.26407193764E+02  0.51100000000E-03 0.  1.
        -12    1    3    3    0    0  0.13722252214E+02 -0.30803800085E+01 -0.40521705128E+01  0.14635881685E+02  0.00000000000E+00 0.  1.
</event>
<event>
 7    1  0.4346085E-013  0.5930196E+02  0.7816164E-02  0.1266605E+00
        -11   -1    0    0    0    0  0.00000000000E+00  0.00000000000E+00  0.45593999997E+02  0.45594000000E+02  0.51100000000E-03 0.  1.
         11   -1    0    0    0    0 -0.00000000000E+00 -0.00000000000E+00 -0.45593999997E+02  0.45594000000E+02  0.51100000000E-03 0. -1.
    9900012    2    1    2    0    0 -0.18841744870E+02  0.10041497952E+02  0.23682835298E+02  0.59301957307E+02  0.50000024218E+02 0.  0.
         12    1    1    2    0    0  0.18841744870E+02 -0.10041497952E+02 -0.23682835298E+02  0.31886042693E+02  0.00000000000E+00 0. -1.
         11    1    3    3    0    0 -0.78082282856E+01 -0.16859002607E+02  0.78913050174E+01  0.20185814153E+02  0.51100000000E-03 0. -1.
        -11    1    3    3    0    0 -0.10560847967E+02  0.10304402805E+02  0.16950504647E+02  0.22472913363E+02  0.51100000000E-03 0.  1.
         12    1    3    3    0    0 -0.47266861754E+00  0.16596097754E+02 -0.11589743667E+01  0.16643229791E+02  0.00000000000E+00 0. -1.
</event>
<event>
 7    1  0.4346085E-013  0.5930207E+02  0.7816164E-02  0.1266604E+00
        -11   -1    0    0    0    0  0.00000000000E+00  0.00000000000E+00  0.45593999997E+02  0.45594000000E+02  0.51100000000E-03 0.  1.
         11   -1    0    0    0    0 -0.00000000000E+00 -0.00000000000E+00 -0.45593999997E+02  0.45594000000E+02  0.51100000000E-03 0. -1.
    9900012    2    1    2    0    0 -0.43424981203E+01  0.82691506562E+01  0.30487311396E+02  0.59302073659E+02  0.50000236415E+02 0.  0.
         12    1    1    2    0    0  0.43424981203E+01 -0.82691506562E+01 -0.30487311396E+02  0.31885926341E+02  0.00000000000E+00 0. -1.
         11    1    3    3    0    0  0.15084390053E+02  0.18427337607E+02  0.13011237841E+02  0.27136652428E+02  0.51100000000E-03 0. -1.
        -11    1    3    3    0    0 -0.15767454250E+02 -0.33244186775E+01  0.18284070013E+02  0.24371532360E+02  0.51100000000E-03 0.  1.
         12    1    3    3    0    0 -0.36594339234E+01 -0.68337682736E+01 -0.80799645804E+00  0.77938888710E+01  0.00000000000E+00 0. -1.
</event>
<event>
 7    1  0.4346085E-013  0.5930198E+02  0.7816164E-02  0.1266605E+00
        -11   -1    0    0    0    0  0.00000000000E+00  0.00000000000E+00  0.45593999997E+02  0.45594000000E+02  0.51100000000E-03 0. -1.
         11   -1    0    0    0    0 -0.00000000000E+00 -0.00000000000E+00 -0.45593999997E+02  0.45594000000E+02  0.51100000000E-03 0.  1.
    9900012    2    1    2    0    0  0.13208307309E+02  0.21481204031E+02 -0.19514530321E+02  0.59301977949E+02  0.50000061864E+02 0.  0.
         12    1    1    2    0    0 -0.13208307309E+02 -0.21481204031E+02  0.19514530321E+02  0.31886022051E+02  0.00000000000E+00 0. -1.
         11    1    3    3    0    0  0.33551968091E+01  0.72910823520E+01  0.12580739214E+02  0.14922875960E+02  0.51100000000E-03 0. -1.
        -11    1    3    3    0    0 -0.40154564340E+00 -0.51043912073E+01 -0.17171630402E+02  0.17918731524E+02  0.51100000000E-03 0.  1.
        -12    1    3    3    0    0  0.10254656143E+02  0.19294512887E+02 -0.14923639133E+02  0.26460370464E+02  0.00000000000E+00 0.  1.
</event>
<event>
 7    1  0.4346085E-013  0.5930194E+02  0.7816164E-02  0.1266605E+00
        -11   -1    0    0    0    0  0.00000000000E+00  0.00000000000E+00  0.45593999997E+02  0.45594000000E+02  0.51100000000E-03 0.  1.
         11   -1    0    0    0    0 -0.00000000000E+00 -0.00000000000E+00 -0.45593999997E+02  0.45594000000E+02  0.51100000000E-03 0. -1.
    9900012    2    1    2    0    0 -0.28174908596E+02 -0.90837035677E+01  0.11848287455E+02  0.59301936265E+02  0.49999985843E+02 0.  0.
         12    1    1    2    0    0  0.28174908596E+02  0.90837035677E+01 -0.11848287455E+02  0.31886063735E+02  0.00000000000E+00 0. -1.
         11    1    3    3    0    0 -0.37992340025E+01  0.23705185091E+01 -0.18174417773E+02  0.18717985967E+02  0.51100000000E-03 0. -1.
        -11    1    3    3    0    0 -0.20824347505E+02 -0.84332658751E+01  0.26488172758E+02  0.34733222117E+02  0.51100000000E-03 0.  1.
         12    1    3    3    0    0 -0.35513270884E+01 -0.30209562017E+01  0.35345324701E+01  0.58507281806E+01  0.00000000000E+00 0. -1.
</event>
<event>
 7    1  0.4346085E-013  0.5930188E+02  0.7816164E-02  0.1266605E+00
        -11   -1    0    0    0    0  0.00000000000E+00  0.00000000000E+00  0.45593999997E+02  0.45594000000E+02  0.51100000000E-03 0. -1.
         11   -1    0    0    0    0 -0.00000000000E+00 -0.00000000000E+00 -0.45593999997E+02  0.45594000000E+02  0.51100000000E-03 0.  1.
    9900012    2    1    2    0    0 -0.16618351105E+02  0.14088065149E+02 -0.23282641600E+02  0.59301881187E+02  0.49999885393E+02 0.  0.
         12    1    1    2    0    0  0.16618351105E+02 -0.14088065149E+02  0.23282641600E+02  0.31886118813E+02  0.00000000000E+00 0. -1.
         11    1    3    3    0    0 -0.40844199958E+01  0.25232524024E+02  0.24998587502E+01  0.25682913569E+02  0.51100000000E-03 0. -1.
        -11    1    3    3    0    0 -0.56407864557E+01  0.24202601296E+01 -0.53430389828E+01  0.81378250637E+01  0.51100000000E-03 0.  1.
         12    1    3    3    0    0 -0.68931446540E+01 -0.13564719004E+02 -0.20439461367E+02  0.25481142554E+02  0.00000000000E+00 0. -1.
</event>
<event>
 7    1  0.4346085E-013  0.5930209E+02  0.7816164E-02  0.1266604E+00
        -11   -1    0    0    0    0  0.00000000000E+00  0.00000000000E+00  0.45593999997E+02  0.45594000000E+02  0.51100000000E-03 0. -1.
         11   -1    0    0    0    0 -0.00000000000E+00 -0.00000000000E+00 -0.45593999997E+02  0.45594000000E+02  0.51100000000E-03 0.  1.
    9900012    2    1    2    0    0 -0.28010293076E+02  0.10424993728E+02 -0.11111007099E+02  0.59302086320E+02  0.50000259507E+02 0.  0.
         12    1    1    2    0    0  0.28010293076E+02 -0.10424993728E+02  0.11111007099E+02  0.31885913680E+02  0.00000000000E+00 0. -1.
         11    1    3    3    0    0 -0.31718883914E+02 -0.83374217444E+00  0.66517059297E+01  0.32419560682E+02  0.51100000000E-03 0. -1.
        -11    1    3    3    0    0 -0.40138596990E+01  0.11622901982E+02 -0.92790824945E+01  0.15404684104E+02  0.51100000000E-03 0.  1.
         12    1    3    3    0    0  0.77224505375E+01 -0.36416607871E+00 -0.84836305343E+01  0.11477841534E+02  0.00000000000E+00 0. -1.
</event>
<event>
 7    1  0.4346085E-013  0.5930197E+02  0.7816164E-02  0.1266605E+00
        -11   -1    0    0    0    0  0.00000000000E+00  0.00000000000E+00  0.45593999997E+02  0.45594000000E+02  0.51100000000E-03 0.  1.
         11   -1    0    0    0    0 -0.00000000000E+00 -0.00000000000E+00 -0.45593999997E+02  0.45594000000E+02  0.51100000000E-03 0. -1.
    9900012    2    1    2    0    0 -0.13423037394E+02 -0.11079502616E+02  0.26716771827E+02  0.59301965314E+02  0.50000038822E+02 0.  0.
         12    1    1    2    0    0  0.13423037394E+02  0.11079502616E+02 -0.26716771827E+02  0.31886034686E+02  0.00000000000E+00 0. -1.
         11    1    3    3    0    0  0.76645486664E+01 -0.91980457205E+01  0.23385129022E+02  0.26271916774E+02  0.51100000000E-03 0.  1.
        -11    1    3    3    0    0 -0.16616451161E+02  0.10413419691E+02  0.35493176820E+00  0.19613050137E+02  0.51100000000E-03 0. -1.
        -12    1    3    3    0    0 -0.44711348998E+01 -0.12294876586E+02  0.29767110365E+01  0.13416998403E+02  0.00000000000E+00 0.  1.
</event>
<event>
 7    1  0.4346085E-013  0.5930198E+02  0.7816164E-02  0.1266605E+00
        -11   -1    0    0    0    0  0.00000000000E+00  0.00000000000E+00  0.45593999997E+02  0.45594000000E+02  0.51100000000E-03 0.  1.
         11   -1    0    0    0    0 -0.00000000000E+00 -0.00000000000E+00 -0.45593999997E+02  0.45594000000E+02  0.51100000000E-03 0. -1.
    9900012    2    1    2    0    0 -0.87309135280E+01  0.22780325840E+02  0.20531595150E+02  0.59301976482E+02  0.50000059188E+02 0.  0.
         12    1    1    2    0    0  0.87309135280E+01 -0.22780325840E+02 -0.20531595150E+02  0.31886023518E+02  0.00000000000E+00 0. -1.
         11    1    3    3    0    0  0.10168175605E+02  0.87590426819E+01  0.19834255276E+02  0.23948075214E+02  0.51100000000E-03 0. -1.
        -11    1    3    3    0    0 -0.16649313515E+02  0.19888784531E+02  0.65657602843E+01  0.26755795615E+02  0.51100000000E-03 0.  1.
        -12    1    3    3    0    0 -0.22497756183E+01 -0.58675013726E+01 -0.58684204108E+01  0.85981056523E+01  0.00000000000E+00 0.  1.
</event>
<event>
 7    1  0.4346085E-013  0.5930186E+02  0.7816164E-02  0.1266605E+00
        -11   -1    0    0    0    0  0.00000000000E+00  0.00000000000E+00  0.45593999997E+02  0.45594000000E+02  0.51100000000E-03 0. -1.
         11   -1    0    0    0    0 -0.00000000000E+00 -0.00000000000E+00 -0.45593999997E+02  0.45594000000E+02  0.51100000000E-03 0.  1.
    9900012    2    1    2    0    0  0.94079329551E+01  0.82628603828E+01 -0.29324765517E+02  0.59301859801E+02  0.49999846390E+02 0.  0.
         12    1    1    2    0    0 -0.94079329551E+01 -0.82628603828E+01  0.29324765517E+02  0.31886140199E+02  0.00000000000E+00 0. -1.
         11    1    3    3    0    0  0.10782082136E+02  0.35403914132E+01  0.42793534711E+01  0.12128500853E+02  0.51100000000E-03 0.  1.
        -11    1    3    3    0    0  0.89196441421E+01 -0.34007324210E+01 -0.32660032433E+02  0.34026500722E+02  0.51100000000E-03 0. -1.
        -12    1    3    3    0    0 -0.10293793323E+02  0.81232013905E+01 -0.94408655490E+00  0.13146858226E+02  0.00000000000E+00 0.  1.
</event>
<event>
 7    1  0.4346085E-013  0.5930196E+02  0.7816164E-02  0.1266605E+00
        -11   -1    0    0    0    0  0.00000000000E+00  0.00000000000E+00  0.45593999997E+02  0.45594000000E+02  0.51100000000E-03 0. -1.
         11   -1    0    0    0    0 -0.00000000000E+00 -0.00000000000E+00 -0.45593999997E+02  0.45594000000E+02  0.51100000000E-03 0.  1.
    9900012    2    1    2    0    0 -0.19518677628E+01  0.12516662463E+02 -0.29261631377E+02  0.59301957633E+02  0.50000024814E+02 0.  0.
         12    1    1    2    0    0  0.19518677628E+01 -0.12516662463E+02  0.29261631377E+02  0.31886042367E+02  0.00000000000E+00 0. -1.
         11    1    3    3    0    0 -0.13250878659E+02  0.58954569371E+01  0.41592424986E+00  0.14509141635E+02  0.51100000000E-03 0. -1.
        -11    1    3    3    0    0  0.89888618235E+00 -0.30220437938E+01 -0.30427194846E+02  0.30590111663E+02  0.51100000000E-03 0.  1.
         12    1    3    3    0    0  0.10400124714E+02  0.96432493193E+01  0.74963921948E+00  0.14202704336E+02  0.00000000000E+00 0. -1.
</event>
<event>
 7    1  0.4346085E-013  0.5930192E+02  0.7816164E-02  0.1266605E+00
        -11   -1    0    0    0    0  0.00000000000E+00  0.00000000000E+00  0.45593999997E+02  0.45594000000E+02  0.51100000000E-03 0. -1.
         11   -1    0    0    0    0 -0.00000000000E+00 -0.00000000000E+00 -0.45593999997E+02  0.45594000000E+02  0.51100000000E-03 0.  1.
    9900012    2    1    2    0    0 -0.10671496788E+02  0.26932909554E+02 -0.13321393358E+02  0.59301921819E+02  0.49999959497E+02 0.  0.
         12    1    1    2    0    0  0.10671496788E+02 -0.26932909554E+02  0.13321393358E+02  0.31886078181E+02  0.00000000000E+00 0. -1.
         11    1    3    3    0    0 -0.14405635910E+02  0.54439829577E+01  0.36405426383E+01  0.15824438296E+02  0.51100000000E-03 0. -1.
        -11    1    3    3    0    0 -0.29750607934E+00 -0.16089256882E+00 -0.21072426486E+02  0.21075140677E+02  0.51100000000E-03 0.  1.
        -12    1    3    3    0    0  0.40316452022E+01  0.21649819165E+02  0.41104904896E+01  0.22402342846E+02  0.00000000000E+00 0.  1.
</event>
<event>
 7    1  0.4346085E-013  0.5930196E+02  0.7816164E-02  0.1266605E+00
        -11   -1    0    0    0    0  0.00000000000E+00  0.00000000000E+00  0.45593999997E+02  0.45594000000E+02  0.51100000000E-03 0. -1.
         11   -1    0    0    0    0 -0.00000000000E+00 -0.00000000000E+00 -0.45593999997E+02  0.45594000000E+02  0.51100000000E-03 0.  1.
    9900012    2    1    2    0    0 -0.11784838289E+02  0.12828872076E+02 -0.26706869565E+02  0.59301964589E+02  0.50000037499E+02 0.  0.
         12    1    1    2    0    0  0.11784838289E+02 -0.12828872076E+02  0.26706869565E+02  0.31886035411E+02  0.00000000000E+00 0. -1.
         11    1    3    3    0    0 -0.56516171870E+01  0.18469136183E+02  0.53531285173E+01  0.20042598469E+02  0.51100000000E-03 0. -1.
        -11    1    3    3    0    0  0.31357725205E+01  0.16443338743E+01 -0.25546464239E+02  0.25790671542E+02  0.51100000000E-03 0.  1.
         12    1    3    3    0    0 -0.92689936227E+01 -0.72845979816E+01 -0.65135338434E+01  0.13468694579E+02  0.00000000000E+00 0. -1.
</event>
<event>
 7    1  0.4346085E-013  0.5930195E+02  0.7816164E-02  0.1266605E+00
        -11   -1    0    0    0    0  0.00000000000E+00  0.00000000000E+00  0.45593999997E+02  0.45594000000E+02  0.51100000000E-03 0.  1.
         11   -1    0    0    0    0 -0.00000000000E+00 -0.00000000000E+00 -0.45593999997E+02  0.45594000000E+02  0.51100000000E-03 0. -1.
    9900012    2    1    2    0    0  0.10480385113E+02 -0.12302953279E+02 -0.27486702690E+02  0.59301953580E+02  0.50000017421E+02 0.  0.
         12    1    1    2    0    0 -0.10480385113E+02  0.12302953279E+02  0.27486702690E+02  0.31886046420E+02  0.00000000000E+00 0. -1.
         11    1    3    3    0    0  0.29321182523E+02 -0.41617308762E+01 -0.13717128498E+02  0.32637575935E+02  0.51100000000E-03 0. -1.
        -11    1    3    3    0    0 -0.38013585285E+01 -0.14677153015E+01  0.13763478323E+01  0.43010287705E+01  0.51100000000E-03 0.  1.
         12    1    3    3    0    0 -0.15039438881E+02 -0.66735071013E+01 -0.15145922024E+02  0.22363348874E+02  0.00000000000E+00 0. -1.
</event>
<event>
 7    1  0.4346085E-013  0.5930196E+02  0.7816164E-02  0.1266605E+00
        -11   -1    0    0    0    0  0.00000000000E+00  0.00000000000E+00  0.45593999997E+02  0.45594000000E+02  0.51100000000E-03 0.  1.
         11   -1    0    0    0    0 -0.00000000000E+00 -0.00000000000E+00 -0.45593999997E+02  0.45594000000E+02  0.51100000000E-03 0. -1.
    9900012    2    1    2    0    0  0.86001148087E+01 -0.29804758631E+02  0.73779425214E+01  0.59301958420E+02  0.50000026249E+02 0.  0.
         12    1    1    2    0    0 -0.86001148087E+01  0.29804758631E+02 -0.73779425214E+01  0.31886041580E+02  0.00000000000E+00 0. -1.
         11    1    3    3    0    0 -0.30185162158E+01 -0.42348148441E+00 -0.47748288817E+01  0.56647831224E+01  0.51100000000E-03 0. -1.
        -11    1    3    3    0    0  0.96161472487E+01 -0.11492103817E+02  0.26616961651E+02  0.30545071383E+02  0.51100000000E-03 0.  1.
        -12    1    3    3    0    0  0.20024837758E+01 -0.17889173330E+02 -0.14464190247E+02  0.23092103915E+02  0.00000000000E+00 0.  1.
</event>
<event>
 7    1  0.4346085E-013  0.5930195E+02  0.7816164E-02  0.1266605E+00
        -11   -1    0    0    0    0  0.00000000000E+00  0.00000000000E+00  0.45593999997E+02  0.45594000000E+02  0.51100000000E-03 0. -1.
         11   -1    0    0    0    0 -0.00000000000E+00 -0.00000000000E+00 -0.45593999997E+02  0.45594000000E+02  0.51100000000E-03 0.  1.
    9900012    2    1    2    0    0  0.19088263512E+02  0.15914328609E+02 -0.19977295926E+02  0.59301952715E+02  0.50000015843E+02 0.  0.
         12    1    1    2    0    0 -0.19088263512E+02 -0.15914328609E+02  0.19977295926E+02  0.31886047285E+02  0.00000000000E+00 0. -1.
         11    1    3    3    0    0  0.32358886347E+01  0.19249578857E+02 -0.53706663291E+01  0.20245031946E+02  0.51100000000E-03 0. -1.
        -11    1    3    3    0    0  0.25023887885E+02 -0.72534737461E+01 -0.12343191204E+02  0.28829884072E+02  0.51100000000E-03 0.  1.
         12    1    3    3    0    0 -0.91715130074E+01  0.39182234982E+01 -0.22634383928E+01  0.10227036696E+02  0.00000000000E+00 0. -1.
</event>
<event>
 7    1  0.4346085E-013  0.5930198E+02  0.7816164E-02  0.1266605E+00
        -11   -1    0    0    0    0  0.00000000000E+00  0.00000000000E+00  0.45593999997E+02  0.45594000000E+02  0.51100000000E-03 0.  1.
         11   -1    0    0    0    0 -0.00000000000E+00 -0.00000000000E+00 -0.45593999997E+02  0.45594000000E+02  0.51100000000E-03 0. -1.
    9900012    2    1    2    0    0 -0.29493302559E+02  0.11564219949E+02 -0.36238465738E+01  0.59301978880E+02  0.50000063563E+02 0.  0.
         12    1    1    2    0    0  0.29493302559E+02 -0.11564219949E+02  0.36238465738E+01  0.31886021120E+02  0.00000000000E+00 0. -1.
         11    1    3    3    0    0 -0.34524085227E+01  0.14701352319E+02  0.38143698884E+01  0.15575567486E+02  0.51100000000E-03 0. -1.
        -11    1    3    3    0    0 -0.13249769800E+02 -0.18282053825E+02 -0.72993526379E-01  0.22578645224E+02  0.51100000000E-03 0.  1.
        -12    1    3    3    0    0 -0.12791124236E+02  0.15144921455E+02 -0.73652229358E+01  0.21147766171E+02  0.00000000000E+00 0.  1.
</event>
<event>
 7    1  0.4618571E-013  0.5930194E+02  0.7816164E-02  0.1266605E+00
        -11   -1    0    0    0    0  0.00000000000E+00  0.00000000000E+00  0.45593999997E+02  0.45594000000E+02  0.51100000000E-03 0. -1.
         11   -1    0    0    0    0 -0.00000000000E+00 -0.00000000000E+00 -0.45593999997E+02  0.45594000000E+02  0.51100000000E-03 0.  1.
    9900012    2    1    2    0    0  0.13083660213E+02  0.19426165007E+02 -0.21637074172E+02  0.59301936741E+02  0.49999986710E+02 0.  0.
         12    1    1    2    0    0 -0.13083660213E+02 -0.19426165007E+02  0.21637074172E+02  0.31886063259E+02  0.00000000000E+00 0. -1.
         11    1    3    3    0    0 -0.42201084489E+01 -0.82079108219E+01  0.50079811757E+01  0.10500428139E+02  0.51100000000E-03 0. -1.
        -11    1    3    3    0    0  0.80605296657E+01  0.21852408230E+02 -0.29446713856E+02  0.37544757838E+02  0.51100000000E-03 0.  1.
         12    1    3    3    0    0  0.92432389966E+01  0.57816675989E+01  0.28016585076E+01  0.11256750764E+02  0.00000000000E+00 0. -1.
</event>
<event>
 7    1  0.4346085E-013  0.5930195E+02  0.7816164E-02  0.1266605E+00
        -11   -1    0    0    0    0  0.00000000000E+00  0.00000000000E+00  0.45593999997E+02  0.45594000000E+02  0.51100000000E-03 0. -1.
         11   -1    0    0    0    0 -0.00000000000E+00 -0.00000000000E+00 -0.45593999997E+02  0.45594000000E+02  0.51100000000E-03 0.  1.
    9900012    2    1    2    0    0 -0.14389212194E+01  0.20931085471E+01 -0.31784725469E+02  0.59301947081E+02  0.50000005568E+02 0.  0.
         12    1    1    2    0    0  0.14389212194E+01 -0.20931085471E+01  0.31784725469E+02  0.31886052919E+02  0.00000000000E+00 0. -1.
         11    1    3    3    0    0 -0.71105657638E+00 -0.14854627282E+02 -0.30195223468E+02  0.33658833517E+02  0.51100000000E-03 0.  1.
        -11    1    3    3    0    0 -0.36149972692E+01  0.89993721834E+01 -0.98489136116E+01  0.13822373332E+02  0.51100000000E-03 0. -1.
         12    1    3    3    0    0  0.28871326262E+01  0.79483636457E+01  0.82594116116E+01  0.11820740231E+02  0.00000000000E+00 0. -1.
</event>
<event>
 7    1  0.4346085E-013  0.5930197E+02  0.7816164E-02  0.1266605E+00
        -11   -1    0    0    0    0  0.00000000000E+00  0.00000000000E+00  0.45593999997E+02  0.45594000000E+02  0.51100000000E-03 0. -1.
         11   -1    0    0    0    0 -0.00000000000E+00 -0.00000000000E+00 -0.45593999997E+02  0.45594000000E+02  0.51100000000E-03 0.  1.
    9900012    2    1    2    0    0  0.16603597788E+02  0.43611728315E+01 -0.26870427898E+02  0.59301965700E+02  0.50000039525E+02 0.  0.
         12    1    1    2    0    0 -0.16603597788E+02 -0.43611728315E+01  0.26870427898E+02  0.31886034300E+02  0.00000000000E+00 0. -1.
         11    1    3    3    0    0 -0.25377808725E+01 -0.11311122409E+02 -0.24322900158E+02  0.26944114279E+02  0.51100000000E-03 0. -1.
        -11    1    3    3    0    0  0.22149251788E+02  0.13820068819E+02  0.24676483784E+01  0.26223518942E+02  0.51100000000E-03 0.  1.
        -12    1    3    3    0    0 -0.30078731274E+01  0.18522264220E+01 -0.50151761179E+01  0.61343324790E+01  0.00000000000E+00 0.  1.
</event>
<event>
 7    1  0.4346085E-013  0.5930195E+02  0.7816164E-02  0.1266605E+00
        -11   -1    0    0    0    0  0.00000000000E+00  0.00000000000E+00  0.45593999997E+02  0.45594000000E+02  0.51100000000E-03 0.  1.
         11   -1    0    0    0    0 -0.00000000000E+00 -0.00000000000E+00 -0.45593999997E+02  0.45594000000E+02  0.51100000000E-03 0. -1.
    9900012    2    1    2    0    0  0.36462575838E+01  0.14762783058E+02  0.28026508453E+02  0.59301950793E+02  0.50000012337E+02 0.  0.
         12    1    1    2    0    0 -0.36462575838E+01 -0.14762783058E+02 -0.28026508453E+02  0.31886049207E+02  0.00000000000E+00 0. -1.
         11    1    3    3    0    0  0.13504335498E+02  0.12739903628E+02 -0.83870222398E+01  0.20371901335E+02  0.51100000000E-03 0. -1.
        -11    1    3    3    0    0 -0.96016673821E+01 -0.86096703912E+00  0.19303587322E+02  0.21576880324E+02  0.51100000000E-03 0.  1.
         12    1    3    3    0    0 -0.25641053208E+00  0.28838464691E+01  0.17109943371E+02  0.17353169133E+02  0.00000000000E+00 0. -1.
</event>
<event>
 7    1  0.4346085E-013  0.5930209E+02  0.7816164E-02  0.1266604E+00
        -11   -1    0    0    0    0  0.00000000000E+00  0.00000000000E+00  0.45593999997E+02  0.45594000000E+02  0.51100000000E-03 0.  1.
         11   -1    0    0    0    0 -0.00000000000E+00 -0.00000000000E+00 -0.45593999997E+02  0.45594000000E+02  0.51100000000E-03 0. -1.
    9900012    2    1    2    0    0 -0.26434054375E+02 -0.71472385417E+01  0.16336135144E+02  0.59302085227E+02  0.50000257513E+02 0.  0.
         12    1    1    2    0    0  0.26434054375E+02  0.71472385417E+01 -0.16336135144E+02  0.31885914773E+02  0.00000000000E+00 0. -1.
         11    1    3    3    0    0  0.12725132202E+02 -0.78902292252E+01  0.10422591974E+02  0.18243221495E+02  0.51100000000E-03 0. -1.
        -11    1    3    3    0    0 -0.13244238651E+02 -0.47144851251E+01  0.33483032993E+01  0.14451552259E+02  0.51100000000E-03 0.  1.
         12    1    3    3    0    0 -0.25914947926E+02  0.54574758086E+01  0.25652398701E+01  0.26607311473E+02  0.00000000000E+00 0. -1.
</event>
<event>
 7    1  0.4346085E-013  0.5930197E+02  0.7816164E-02  0.1266605E+00
        -11   -1    0    0    0    0  0.00000000000E+00  0.00000000000E+00  0.45593999997E+02  0.45594000000E+02  0.51100000000E-03 0.  1.
         11   -1    0    0    0    0 -0.00000000000E+00 -0.00000000000E+00 -0.45593999997E+02  0.45594000000E+02  0.51100000000E-03 0. -1.
    9900012    2    1    2    0    0 -0.82295954691E+01  0.30422363344E+02 -0.48448439009E+01  0.59301969431E+02  0.50000046330E+02 0.  0.
         12    1    1    2    0    0  0.82295954691E+01 -0.30422363344E+02  0.48448439009E+01  0.31886030569E+02  0.00000000000E+00 0. -1.
         11    1    3    3    0    0 -0.15692898581E+02  0.31380962502E+02 -0.85701913753E+01  0.36117586490E+02  0.51100000000E-03 0. -1.
        -11    1    3    3    0    0 -0.54106541819E+01 -0.16354905920E+01  0.78281155102E+01  0.96555373157E+01  0.51100000000E-03 0.  1.
         12    1    3    3    0    0  0.12873957293E+02  0.67689143425E+00 -0.41027680358E+01  0.13528845626E+02  0.00000000000E+00 0. -1.
</event>
<event>
 7    1  0.4346085E-013  0.5930196E+02  0.7816164E-02  0.1266605E+00
        -11   -1    0    0    0    0  0.00000000000E+00  0.00000000000E+00  0.45593999997E+02  0.45594000000E+02  0.51100000000E-03 0.  1.
         11   -1    0    0    0    0 -0.00000000000E+00 -0.00000000000E+00 -0.45593999997E+02  0.45594000000E+02  0.51100000000E-03 0. -1.
    9900012    2    1    2    0    0 -0.17518671589E+02 -0.26570248097E+02 -0.19589454627E+01  0.59301962217E+02  0.50000033172E+02 0.  0.
         12    1    1    2    0    0  0.17518671589E+02  0.26570248097E+02  0.19589454627E+01  0.31886037783E+02  0.00000000000E+00 0. -1.
         11    1    3    3    0    0  0.24501735024E+01 -0.13792749752E+02  0.17374321435E+02  0.22318385728E+02  0.51100000000E-03 0.  1.
        -11    1    3    3    0    0 -0.19407577758E+02 -0.27216751546E+01 -0.18378563706E+02  0.26866953572E+02  0.51100000000E-03 0. -1.
        -12    1    3    3    0    0 -0.56126733287E+00 -0.10055823191E+02 -0.95470319188E+00  0.10116622917E+02  0.00000000000E+00 0.  1.
</event>
<event>
 7    1  0.4346085E-013  0.5930204E+02  0.7816164E-02  0.1266604E+00
        -11   -1    0    0    0    0  0.00000000000E+00  0.00000000000E+00  0.45593999997E+02  0.45594000000E+02  0.51100000000E-03 0.  1.
         11   -1    0    0    0    0 -0.00000000000E+00 -0.00000000000E+00 -0.45593999997E+02  0.45594000000E+02  0.51100000000E-03 0. -1.
    9900012    2    1    2    0    0 -0.76205107036E+01  0.24334339979E+02  0.19143726483E+02  0.59302038367E+02  0.50000172051E+02 0.  0.
         12    1    1    2    0    0  0.76205107036E+01 -0.24334339979E+02 -0.19143726483E+02  0.31885961633E+02  0.00000000000E+00 0. -1.
         11    1    3    3    0    0 -0.13642321768E+02  0.34996906698E+02  0.16470125129E+02  0.41014161501E+02  0.51100000000E-03 0. -1.
        -11    1    3    3    0    0 -0.43712077584E+00 -0.36412668599E+01  0.69304629550E+01  0.78409958519E+01  0.51100000000E-03 0.  1.
         12    1    3    3    0    0  0.64589318407E+01 -0.70212998584E+01 -0.42568616002E+01  0.10446881013E+02  0.00000000000E+00 0. -1.
</event>
<event>
 7    1  0.4346085E-013  0.5930168E+02  0.7816164E-02  0.1266606E+00
        -11   -1    0    0    0    0  0.00000000000E+00  0.00000000000E+00  0.45593999997E+02  0.45594000000E+02  0.51100000000E-03 0. -1.
         11   -1    0    0    0    0 -0.00000000000E+00 -0.00000000000E+00 -0.45593999997E+02  0.45594000000E+02  0.51100000000E-03 0.  1.
    9900012    2    1    2    0    0  0.22606705737E+01 -0.24660985849E+02 -0.20086384322E+02  0.59301675508E+02  0.49999510282E+02 0.  0.
         12    1    1    2    0    0 -0.22606705737E+01  0.24660985849E+02  0.20086384322E+02  0.31886324492E+02  0.00000000000E+00 0. -1.
         11    1    3    3    0    0 -0.51524682865E+00  0.18760609967E+01 -0.11771690474E+02  0.11931378002E+02  0.51100000000E-03 0. -1.
        -11    1    3    3    0    0  0.49990079615E+01 -0.31273453828E+02  0.59070351212E+01  0.32216642580E+02  0.51100000000E-03 0.  1.
        -12    1    3    3    0    0 -0.22230905592E+01  0.47364069823E+01 -0.14221728969E+02  0.15153654926E+02  0.00000000000E+00 0.  1.
</event>
<event>
 7    1  0.4346085E-013  0.5930191E+02  0.7816164E-02  0.1266605E+00
        -11   -1    0    0    0    0  0.00000000000E+00  0.00000000000E+00  0.45593999997E+02  0.45594000000E+02  0.51100000000E-03 0.  1.
         11   -1    0    0    0    0 -0.00000000000E+00 -0.00000000000E+00 -0.45593999997E+02  0.45594000000E+02  0.51100000000E-03 0. -1.
    9900012    2    1    2    0    0 -0.18490696700E+01  0.30787832073E+02  0.80878361839E+01  0.59301909670E+02  0.49999937340E+02 0.  0.
         12    1    1    2    0    0  0.18490696700E+01 -0.30787832073E+02 -0.80878361839E+01  0.31886090330E+02  0.00000000000E+00 0. -1.
         11    1    3    3    0    0  0.12601753870E+02  0.11897411316E+02 -0.10981597944E+02  0.20517019527E+02  0.51100000000E-03 0.  1.
        -11    1    3    3    0    0 -0.16846624210E+02  0.80200878152E+01  0.25018991035E+01  0.18825250469E+02  0.51100000000E-03 0. -1.
        -12    1    3    3    0    0  0.23958006707E+01  0.10870332942E+02  0.16567535024E+02  0.19959639674E+02  0.00000000000E+00 0.  1.
</event>
<event>
 7    1  0.4346085E-013  0.5930195E+02  0.7816164E-02  0.1266605E+00
        -11   -1    0    0    0    0  0.00000000000E+00  0.00000000000E+00  0.45593999997E+02  0.45594000000E+02  0.51100000000E-03 0.  1.
         11   -1    0    0    0    0 -0.00000000000E+00 -0.00000000000E+00 -0.45593999997E+02  0.45594000000E+02  0.51100000000E-03 0. -1.
    9900012    2    1    2    0    0 -0.23593865609E+02  0.16040237361E+02  0.14239390519E+02  0.59301953658E+02  0.50000017564E+02 0.  0.
         12    1    1    2    0    0  0.23593865609E+02 -0.16040237361E+02 -0.14239390519E+02  0.31886046342E+02  0.00000000000E+00 0. -1.
         11    1    3    3    0    0 -0.47904260468E+01  0.11377836743E+01 -0.14798765958E+02  0.15596352379E+02  0.51100000000E-03 0. -1.
        -11    1    3    3    0    0 -0.20611880886E+02  0.83965804580E+01  0.29480609062E+02  0.36938577503E+02  0.51100000000E-03 0.  1.
         12    1    3    3    0    0  0.18084413243E+01  0.65058732286E+01 -0.44245258500E+00  0.67670237756E+01  0.00000000000E+00 0. -1.
</event>
<event>
 7    1  0.4346085E-013  0.5930198E+02  0.7816164E-02  0.1266605E+00
        -11   -1    0    0    0    0  0.00000000000E+00  0.00000000000E+00  0.45593999997E+02  0.45594000000E+02  0.51100000000E-03 0.  1.
         11   -1    0    0    0    0 -0.00000000000E+00 -0.00000000000E+00 -0.45593999997E+02  0.45594000000E+02  0.51100000000E-03 0. -1.
    9900012    2    1    2    0    0  0.69647352128E+01  0.30195139880E+02  0.75142745354E+01  0.59301979070E+02  0.50000063909E+02 0.  0.
         12    1    1    2    0    0 -0.69647352128E+01 -0.30195139880E+02 -0.75142745354E+01  0.31886020930E+02  0.00000000000E+00 0. -1.
         11    1    3    3    0    0 -0.10450655250E+02  0.33119386406E+01  0.16822335345E+02  0.20079245490E+02  0.51100000000E-03 0. -1.
        -11    1    3    3    0    0  0.39806130109E+01  0.23451378489E+02 -0.29522837057E+01  0.23969322317E+02  0.51100000000E-03 0.  1.
         12    1    3    3    0    0  0.13434777452E+02  0.34318227502E+01 -0.63557771039E+01  0.15253411263E+02  0.00000000000E+00 0. -1.
</event>
<event>
 7    1  0.4346085E-013  0.5930195E+02  0.7816164E-02  0.1266605E+00
        -11   -1    0    0    0    0  0.00000000000E+00  0.00000000000E+00  0.45593999997E+02  0.45594000000E+02  0.51100000000E-03 0. -1.
         11   -1    0    0    0    0 -0.00000000000E+00 -0.00000000000E+00 -0.45593999997E+02  0.45594000000E+02  0.51100000000E-03 0.  1.
    9900012    2    1    2    0    0  0.16451082711E+02  0.18060844507E+02 -0.20491170492E+02  0.59301948272E+02  0.50000007740E+02 0.  0.
         12    1    1    2    0    0 -0.16451082711E+02 -0.18060844507E+02  0.20491170492E+02  0.31886051728E+02  0.00000000000E+00 0. -1.
         11    1    3    3    0    0 -0.20952322886E+01  0.17148419656E+02 -0.23293321202E+02  0.29000639785E+02  0.51100000000E-03 0. -1.
        -11    1    3    3    0    0  0.14132113481E+02  0.93937541159E+00 -0.96178159188E+01  0.17120205633E+02  0.51100000000E-03 0.  1.
         12    1    3    3    0    0  0.44142015183E+01 -0.26950561177E-01  0.12419966629E+02  0.13181102854E+02  0.00000000000E+00 0. -1.
</event>
<event>
 7    1  0.4346085E-013  0.5930194E+02  0.7816164E-02  0.1266605E+00
        -11   -1    0    0    0    0  0.00000000000E+00  0.00000000000E+00  0.45593999997E+02  0.45594000000E+02  0.51100000000E-03 0.  1.
         11   -1    0    0    0    0 -0.00000000000E+00 -0.00000000000E+00 -0.45593999997E+02  0.45594000000E+02  0.51100000000E-03 0. -1.
    9900012    2    1    2    0    0 -0.40272955681E+01 -0.19970580506E+02  0.24529121203E+02  0.59301937491E+02  0.49999988078E+02 0.  0.
         12    1    1    2    0    0  0.40272955681E+01  0.19970580506E+02 -0.24529121203E+02  0.31886062509E+02  0.00000000000E+00 0. -1.
         11    1    3    3    0    0  0.11778624287E+02 -0.12212723794E+01  0.50341744250E+01  0.12867416552E+02  0.51100000000E-03 0. -1.
        -11    1    3    3    0    0 -0.19416349298E+02 -0.26756466140E+02  0.17587606461E+02  0.37446321604E+02  0.51100000000E-03 0.  1.
        -12    1    3    3    0    0  0.36104294433E+01  0.80071580129E+01  0.19073403171E+01  0.89881993355E+01  0.00000000000E+00 0.  1.
</event>
<event>
 7    1  0.4346085E-013  0.5930195E+02  0.7816164E-02  0.1266605E+00
        -11   -1    0    0    0    0  0.00000000000E+00  0.00000000000E+00  0.45593999997E+02  0.45594000000E+02  0.51100000000E-03 0.  1.
         11   -1    0    0    0    0 -0.00000000000E+00 -0.00000000000E+00 -0.45593999997E+02  0.45594000000E+02  0.51100000000E-03 0. -1.
    9900012    2    1    2    0    0 -0.87863434195E+01  0.49141594396E+00  0.30647656721E+02  0.59301950029E+02  0.50000010944E+02 0.  0.
         12    1    1    2    0    0  0.87863434195E+01 -0.49141594396E+00 -0.30647656721E+02  0.31886049971E+02  0.00000000000E+00 0. -1.
         11    1    3    3    0    0  0.10314717820E+02 -0.74256069919E+01 -0.79091952802E+01  0.14969582932E+02  0.51100000000E-03 0. -1.
        -11    1    3    3    0    0 -0.74071514974E+01  0.15009470959E+01  0.20752305613E+02  0.22085672369E+02  0.51100000000E-03 0.  1.
         12    1    3    3    0    0 -0.11693909742E+02  0.64160758400E+01  0.17804546388E+02  0.22246694728E+02  0.00000000000E+00 0. -1.
</event>
<event>
 7    1  0.4346085E-013  0.5930195E+02  0.7816164E-02  0.1266605E+00
        -11   -1    0    0    0    0  0.00000000000E+00  0.00000000000E+00  0.45593999997E+02  0.45594000000E+02  0.51100000000E-03 0.  1.
         11   -1    0    0    0    0 -0.00000000000E+00 -0.00000000000E+00 -0.45593999997E+02  0.45594000000E+02  0.51100000000E-03 0. -1.
    9900012    2    1    2    0    0  0.78957404347E+01 -0.11812620977E+02  0.28545397438E+02  0.59301945897E+02  0.50000003410E+02 0.  0.
         12    1    1    2    0    0 -0.78957404347E+01  0.11812620977E+02 -0.28545397438E+02  0.31886054103E+02  0.00000000000E+00 0. -1.
         11    1    3    3    0    0 -0.11748893496E+02 -0.10326904592E+02  0.77701883795E+00  0.15661584063E+02  0.51100000000E-03 0. -1.
        -11    1    3    3    0    0  0.10156708521E+02 -0.13641622819E+02  0.20371476886E+02  0.26537702837E+02  0.51100000000E-03 0.  1.
         12    1    3    3    0    0  0.94879254095E+01  0.12155906434E+02  0.73969017140E+01  0.17102658997E+02  0.00000000000E+00 0. -1.
</event>
<event>
 7    1  0.4346085E-013  0.5930198E+02  0.7816164E-02  0.1266605E+00
        -11   -1    0    0    0    0  0.00000000000E+00  0.00000000000E+00  0.45593999997E+02  0.45594000000E+02  0.51100000000E-03 0. -1.
         11   -1    0    0    0    0 -0.00000000000E+00 -0.00000000000E+00 -0.45593999997E+02  0.45594000000E+02  0.51100000000E-03 0.  1.
    9900012    2    1    2    0    0 -0.15677838901E+00  0.26071776063E+02 -0.18356369375E+02  0.59301978248E+02  0.50000062409E+02 0.  0.
         12    1    1    2    0    0  0.15677838901E+00 -0.26071776063E+02  0.18356369375E+02  0.31886021752E+02  0.00000000000E+00 0. -1.
         11    1    3    3    0    0  0.13979348897E+02  0.17684789778E+02  0.20916426799E+01  0.22639544043E+02  0.51100000000E-03 0. -1.
        -11    1    3    3    0    0 -0.53276150765E+01 -0.42425831390E+01 -0.20141166948E+02  0.21261458096E+02  0.51100000000E-03 0.  1.
        -12    1    3    3    0    0 -0.88085122100E+01  0.12629569424E+02 -0.30684510736E+00  0.15400976109E+02  0.00000000000E+00 0.  1.
</event>
<event>
 7    1  0.4346085E-013  0.5930194E+02  0.7816164E-02  0.1266605E+00
        -11   -1    0    0    0    0  0.00000000000E+00  0.00000000000E+00  0.45593999997E+02  0.45594000000E+02  0.51100000000E-03 0.  1.
         11   -1    0    0    0    0 -0.00000000000E+00 -0.00000000000E+00 -0.45593999997E+02  0.45594000000E+02  0.51100000000E-03 0. -1.
    9900012    2    1    2    0    0  0.26039277492E+02  0.54717939019E+01  0.17570888630E+02  0.59301943046E+02  0.49999998210E+02 0.  0.
         12    1    1    2    0    0 -0.26039277492E+02 -0.54717939019E+01 -0.17570888630E+02  0.31886056954E+02  0.00000000000E+00 0. -1.
         11    1    3    3    0    0 -0.65512850305E+01 -0.13683599312E+01  0.11724537018E+02  0.13500241220E+02  0.51100000000E-03 0. -1.
        -11    1    3    3    0    0  0.26389621263E+02  0.84712591553E+01 -0.93962517808E+01  0.29265404318E+02  0.51100000000E-03 0.  1.
        -12    1    3    3    0    0  0.62009412591E+01 -0.16311053222E+01  0.15242603393E+02  0.16536297508E+02  0.00000000000E+00 0.  1.
</event>
<event>
 7    1  0.4346085E-013  0.5930192E+02  0.7816164E-02  0.1266605E+00
        -11   -1    0    0    0    0  0.00000000000E+00  0.00000000000E+00  0.45593999997E+02  0.45594000000E+02  0.51100000000E-03 0. -1.
         11   -1    0    0    0    0 -0.00000000000E+00 -0.00000000000E+00 -0.45593999997E+02  0.45594000000E+02  0.51100000000E-03 0.  1.
    9900012    2    1    2    0    0  0.33374399354E+01 -0.23235474614E+02 -0.21579990821E+02  0.59301924831E+02  0.49999964989E+02 0.  0.
         12    1    1    2    0    0 -0.33374399354E+01  0.23235474614E+02  0.21579990821E+02  0.31886075169E+02  0.00000000000E+00 0. -1.
         11    1    3    3    0    0 -0.13890367938E+02 -0.15970414093E+02 -0.23547387972E+02  0.31661900264E+02  0.51100000000E-03 0. -1.
        -11    1    3    3    0    0  0.81649533575E+00  0.61576898397E+01 -0.78370091742E+00  0.62608303111E+01  0.51100000000E-03 0.  1.
         12    1    3    3    0    0  0.16411312537E+02 -0.13422750361E+02  0.27510980686E+01  0.21379194256E+02  0.00000000000E+00 0. -1.
</event>
<event>
 7    1  0.4346085E-013  0.5930194E+02  0.7816164E-02  0.1266605E+00
        -11   -1    0    0    0    0  0.00000000000E+00  0.00000000000E+00  0.45593999997E+02  0.45594000000E+02  0.51100000000E-03 0.  1.
         11   -1    0    0    0    0 -0.00000000000E+00 -0.00000000000E+00 -0.45593999997E+02  0.45594000000E+02  0.51100000000E-03 0. -1.
    9900012    2    1    2    0    0  0.19534641547E+02 -0.20784523366E+02  0.14252087357E+02  0.59301943079E+02  0.49999998270E+02 0.  0.
         12    1    1    2    0    0 -0.19534641547E+02  0.20784523366E+02 -0.14252087357E+02  0.31886056921E+02  0.00000000000E+00 0. -1.
         11    1    3    3    0    0 -0.62047139016E+01 -0.23761279920E+01 -0.17512677657E+00  0.66464372775E+01  0.51100000000E-03 0. -1.
        -11    1    3    3    0    0  0.31818923218E+02 -0.17685052277E+02 -0.62187597969E+00  0.36408675872E+02  0.51100000000E-03 0.  1.
        -12    1    3    3    0    0 -0.60795677692E+01 -0.72334309703E+00  0.15049090114E+02  0.16246829929E+02  0.00000000000E+00 0.  1.
</event>
<event>
 7    1  0.4346085E-013  0.5930196E+02  0.7816164E-02  0.1266605E+00
        -11   -1    0    0    0    0  0.00000000000E+00  0.00000000000E+00  0.45593999997E+02  0.45594000000E+02  0.51100000000E-03 0. -1.
         11   -1    0    0    0    0 -0.00000000000E+00 -0.00000000000E+00 -0.45593999997E+02  0.45594000000E+02  0.51100000000E-03 0.  1.
    9900012    2    1    2    0    0 -0.12832568546E+02  0.27518854511E+02  0.97343390966E+01  0.59301960315E+02  0.50000029705E+02 0.  0.
         12    1    1    2    0    0  0.12832568546E+02 -0.27518854511E+02 -0.97343390966E+01  0.31886039685E+02  0.00000000000E+00 0. -1.
         11    1    3    3    0    0 -0.14670825568E+01  0.39137164937E+02  0.14374847614E+02  0.41719375052E+02  0.51100000000E-03 0. -1.
        -11    1    3    3    0    0 -0.99628767081E+01 -0.71159249495E+01 -0.33137150523E+01  0.12683690626E+02  0.51100000000E-03 0.  1.
         12    1    3    3    0    0 -0.14026092815E+01 -0.45023854762E+01 -0.13267934647E+01  0.48988946376E+01  0.00000000000E+00 0. -1.
</event>
<event>
 7    1  0.4346085E-013  0.5930197E+02  0.7816164E-02  0.1266605E+00
        -11   -1    0    0    0    0  0.00000000000E+00  0.00000000000E+00  0.45593999997E+02  0.45594000000E+02  0.51100000000E-03 0.  1.
         11   -1    0    0    0    0 -0.00000000000E+00 -0.00000000000E+00 -0.45593999997E+02  0.45594000000E+02  0.51100000000E-03 0. -1.
    9900012    2    1    2    0    0 -0.11561005154E+02  0.25861314489E+02  0.14637443757E+02  0.59301965643E+02  0.50000039421E+02 0.  0.
         12    1    1    2    0    0  0.11561005154E+02 -0.25861314489E+02 -0.14637443757E+02  0.31886034357E+02  0.00000000000E+00 0. -1.
         11    1    3    3    0    0 -0.27294862185E+01 -0.93370162550E+01  0.26707797227E+01  0.10087766460E+02  0.51100000000E-03 0. -1.
        -11    1    3    3    0    0  0.13793402410E+01  0.11798249834E+02  0.19289758673E+02  0.22653831212E+02  0.51100000000E-03 0.  1.
         12    1    3    3    0    0 -0.10210859177E+02  0.23400080909E+02 -0.73230946385E+01  0.26560367972E+02  0.00000000000E+00 0. -1.
</event>
<event>
 7    1  0.4346085E-013  0.5930167E+02  0.7816164E-02  0.1266606E+00
        -11   -1    0    0    0    0  0.00000000000E+00  0.00000000000E+00  0.45593999997E+02  0.45594000000E+02  0.51100000000E-03 0. -1.
         11   -1    0    0    0    0 -0.00000000000E+00 -0.00000000000E+00 -0.45593999997E+02  0.45594000000E+02  0.51100000000E-03 0.  1.
    9900012    2    1    2    0    0  0.24601054733E+02  0.42258694568E+01  0.19841071190E+02  0.59301671070E+02  0.49999502188E+02 0.  0.
         12    1    1    2    0    0 -0.24601054733E+02 -0.42258694568E+01 -0.19841071190E+02  0.31886328930E+02  0.00000000000E+00 0. -1.
         11    1    3    3    0    0 -0.60961525555E+00  0.15717820761E+02 -0.13402578959E+01  0.15786633958E+02  0.51100000000E-03 0. -1.
        -11    1    3    3    0    0  0.25000381941E+02 -0.11534544519E+02  0.26486986916E+02  0.38205042738E+02  0.51100000000E-03 0.  1.
        -12    1    3    3    0    0  0.21028804791E+00  0.42593214385E-01 -0.53056578302E+01  0.53099943744E+01  0.00000000000E+00 0.  1.
</event>
<event>
 7    1  0.4346085E-013  0.5930195E+02  0.7816164E-02  0.1266605E+00
        -11   -1    0    0    0    0  0.00000000000E+00  0.00000000000E+00  0.45593999997E+02  0.45594000000E+02  0.51100000000E-03 0.  1.
         11   -1    0    0    0    0 -0.00000000000E+00 -0.00000000000E+00 -0.45593999997E+02  0.45594000000E+02  0.51100000000E-03 0. -1.
    9900012    2    1    2    0    0 -0.25656479036E+02  0.94011593489E+01  0.16434224019E+02  0.59301946109E+02  0.50000003796E+02 0.  0.
         12    1    1    2    0    0  0.25656479036E+02 -0.94011593489E+01 -0.16434224019E+02  0.31886053891E+02  0.00000000000E+00 0. -1.
         11    1    3    3    0    0  0.84271598700E+01  0.16035760573E+02  0.12057717528E+02  0.21761231419E+02  0.51100000000E-03 0. -1.
        -11    1    3    3    0    0 -0.19500012510E+02  0.25251064619E+01 -0.40739355160E+00  0.19667044016E+02  0.51100000000E-03 0.  1.
         12    1    3    3    0    0 -0.14583626396E+02 -0.91597076860E+01  0.47839000417E+01  0.17873670674E+02  0.00000000000E+00 0. -1.
</event>
<event>
 7    1  0.4346085E-013  0.5930193E+02  0.7816164E-02  0.1266605E+00
        -11   -1    0    0    0    0  0.00000000000E+00  0.00000000000E+00  0.45593999997E+02  0.45594000000E+02  0.51100000000E-03 0.  1.
         11   -1    0    0    0    0 -0.00000000000E+00 -0.00000000000E+00 -0.45593999997E+02  0.45594000000E+02  0.51100000000E-03 0. -1.
    9900012    2    1    2    0    0 -0.68297507059E+01 -0.63756644766E+01  0.30486502753E+02  0.59301930277E+02  0.49999974923E+02 0.  0.
         12    1    1    2    0    0  0.68297507059E+01  0.63756644766E+01 -0.30486502753E+02  0.31886069723E+02  0.00000000000E+00 0. -1.
         11    1    3    3    0    0 -0.12190536963E+02 -0.49716394293E+01 -0.66009717880E+01  0.14727498731E+02  0.51100000000E-03 0. -1.
        -11    1    3    3    0    0 -0.91142830440E+01  0.26687061845E+01  0.11716726621E+02  0.15082235613E+02  0.51100000000E-03 0.  1.
         12    1    3    3    0    0  0.14475069301E+02 -0.40727312318E+01  0.25370747920E+02  0.29492195934E+02  0.00000000000E+00 0. -1.
</event>
<event>
 7    1  0.4346085E-013  0.5930206E+02  0.7816164E-02  0.1266604E+00
        -11   -1    0    0    0    0  0.00000000000E+00  0.00000000000E+00  0.45593999997E+02  0.45594000000E+02  0.51100000000E-03 0.  1.
         11   -1    0    0    0    0 -0.00000000000E+00 -0.00000000000E+00 -0.45593999997E+02  0.45594000000E+02  0.51100000000E-03 0. -1.
    9900012    2    1    2    0    0 -0.10034198162E+02  0.44293753991E+01  0.29940080488E+02  0.59302063934E+02  0.50000218680E+02 0.  0.
         12    1    1    2    0    0  0.10034198162E+02 -0.44293753991E+01 -0.29940080488E+02  0.31885936066E+02  0.00000000000E+00 0. -1.
         11    1    3    3    0    0 -0.10426324910E+02 -0.10508996711E+01 -0.28504752659E+01  0.10859919463E+02  0.51100000000E-03 0. -1.
        -11    1    3    3    0    0  0.75576536103E+01  0.17285964159E+02  0.28122552061E+02  0.33864444771E+02  0.51100000000E-03 0.  1.
        -12    1    3    3    0    0 -0.71655268624E+01 -0.11805689088E+02  0.46680036928E+01  0.14577699700E+02  0.00000000000E+00 0.  1.
</event>
<event>
 7    1  0.4346085E-013  0.5930192E+02  0.7816164E-02  0.1266605E+00
        -11   -1    0    0    0    0  0.00000000000E+00  0.00000000000E+00  0.45593999997E+02  0.45594000000E+02  0.51100000000E-03 0. -1.
         11   -1    0    0    0    0 -0.00000000000E+00 -0.00000000000E+00 -0.45593999997E+02  0.45594000000E+02  0.51100000000E-03 0.  1.
    9900012    2    1    2    0    0 -0.11297662650E+02 -0.15986213229E+02 -0.25169944533E+02  0.59301916788E+02  0.49999950322E+02 0.  0.
         12    1    1    2    0    0  0.11297662650E+02  0.15986213229E+02  0.25169944533E+02  0.31886083212E+02  0.00000000000E+00 0. -1.
         11    1    3    3    0    0 -0.72335204085E+01 -0.62088421178E+01  0.64822598037E+01  0.11527932615E+02  0.51100000000E-03 0. -1.
        -11    1    3    3    0    0  0.76320533352E+01 -0.18609434405E+02 -0.23751504225E+02  0.31123837170E+02  0.51100000000E-03 0.  1.
        -12    1    3    3    0    0 -0.11696195577E+02  0.88320632930E+01 -0.79007001113E+01  0.16650147003E+02  0.00000000000E+00 0.  1.
</event>
<event>
 7    1  0.4346085E-013  0.5930201E+02  0.7816164E-02  0.1266605E+00
        -11   -1    0    0    0    0  0.00000000000E+00  0.00000000000E+00  0.45593999997E+02  0.45594000000E+02  0.51100000000E-03 0.  1.
         11   -1    0    0    0    0 -0.00000000000E+00 -0.00000000000E+00 -0.45593999997E+02  0.45594000000E+02  0.51100000000E-03 0. -1.
    9900012    2    1    2    0    0  0.89842907555E+01 -0.10231420153E+02  0.28832572511E+02  0.59302005013E+02  0.50000111222E+02 0.  0.
         12    1    1    2    0    0 -0.89842907555E+01  0.10231420153E+02 -0.28832572511E+02  0.31885994987E+02  0.00000000000E+00 0. -1.
         11    1    3    3    0    0 -0.20381111906E+01 -0.58496743308E+01  0.17051171364E+01  0.64249522731E+01  0.51100000000E-03 0. -1.
        -11    1    3    3    0    0  0.19562241503E+02  0.13783558341E+02  0.21139644578E+02  0.31930429786E+02  0.51100000000E-03 0.  1.
        -12    1    3    3    0    0 -0.85398395573E+01 -0.18165304164E+02  0.59878107967E+01  0.20946622954E+02  0.00000000000E+00 0.  1.
</event>
<event>
 7    1  0.4346085E-013  0.5930195E+02  0.7816164E-02  0.1266605E+00
        -11   -1    0    0    0    0  0.00000000000E+00  0.00000000000E+00  0.45593999997E+02  0.45594000000E+02  0.51100000000E-03 0. -1.
         11   -1    0    0    0    0 -0.00000000000E+00 -0.00000000000E+00 -0.45593999997E+02  0.45594000000E+02  0.51100000000E-03 0.  1.
    9900012    2    1    2    0    0  0.32614915991E+00 -0.10209147690E+02 -0.30205744814E+02  0.59301951489E+02  0.50000013608E+02 0.  0.
         12    1    1    2    0    0 -0.32614915991E+00  0.10209147690E+02  0.30205744814E+02  0.31886048511E+02  0.00000000000E+00 0. -1.
         11    1    3    3    0    0  0.11167179406E+02 -0.14023948372E+02 -0.18173712048E+02  0.25527648416E+02  0.51100000000E-03 0. -1.
        -11    1    3    3    0    0 -0.13356215740E+02  0.61363206681E+01  0.56627619276E+01  0.15751501615E+02  0.51100000000E-03 0.  1.
         12    1    3    3    0    0  0.25151854937E+01 -0.23215199862E+01 -0.17694794694E+02  0.18022801458E+02  0.00000000000E+00 0. -1.
</event>
<event>
 7    1  0.4346085E-013  0.5930194E+02  0.7816164E-02  0.1266605E+00
        -11   -1    0    0    0    0  0.00000000000E+00  0.00000000000E+00  0.45593999997E+02  0.45594000000E+02  0.51100000000E-03 0.  1.
         11   -1    0    0    0    0 -0.00000000000E+00 -0.00000000000E+00 -0.45593999997E+02  0.45594000000E+02  0.51100000000E-03 0. -1.
    9900012    2    1    2    0    0  0.14276556634E+02  0.18392243632E+00  0.28510816531E+02  0.59301944175E+02  0.50000000269E+02 0.  0.
         12    1    1    2    0    0 -0.14276556634E+02 -0.18392243632E+00 -0.28510816531E+02  0.31886055825E+02  0.00000000000E+00 0. -1.
         11    1    3    3    0    0 -0.83264363756E+01  0.53493522706E+01 -0.85914764004E+01  0.13105669744E+02  0.51100000000E-03 0. -1.
        -11    1    3    3    0    0  0.23736292950E+02 -0.74404077699E+01  0.34731352843E+02  0.42720465135E+02  0.51100000000E-03 0.  1.
         12    1    3    3    0    0 -0.11332999404E+01  0.22749779356E+01  0.23709400886E+01  0.34758092966E+01  0.00000000000E+00 0. -1.
</event>
<event>
 7    1  0.4346085E-013  0.5930195E+02  0.7816164E-02  0.1266605E+00
        -11   -1    0    0    0    0  0.00000000000E+00  0.00000000000E+00  0.45593999997E+02  0.45594000000E+02  0.51100000000E-03 0. -1.
         11   -1    0    0    0    0 -0.00000000000E+00 -0.00000000000E+00 -0.45593999997E+02  0.45594000000E+02  0.51100000000E-03 0.  1.
    9900012    2    1    2    0    0 -0.44059570984E+01  0.13471694226E+02 -0.28562583381E+02  0.59301950188E+02  0.50000011234E+02 0.  0.
         12    1    1    2    0    0  0.44059570984E+01 -0.13471694226E+02  0.28562583381E+02  0.31886049812E+02  0.00000000000E+00 0. -1.
         11    1    3    3    0    0  0.10311076101E+02  0.23075284559E+02 -0.17489749297E+01  0.25334679028E+02  0.51100000000E-03 0. -1.
        -11    1    3    3    0    0 -0.67145728749E+01 -0.98529322455E+01 -0.10907500186E+02  0.16159805794E+02  0.51100000000E-03 0.  1.
         12    1    3    3    0    0 -0.80024603246E+01  0.24934191151E+00 -0.15906108265E+02  0.17807465367E+02  0.00000000000E+00 0. -1.
</event>
<event>
 7    1  0.4346085E-013  0.5930191E+02  0.7816164E-02  0.1266605E+00
        -11   -1    0    0    0    0  0.00000000000E+00  0.00000000000E+00  0.45593999997E+02  0.45594000000E+02  0.51100000000E-03 0.  1.
         11   -1    0    0    0    0 -0.00000000000E+00 -0.00000000000E+00 -0.45593999997E+02  0.45594000000E+02  0.51100000000E-03 0. -1.
    9900012    2    1    2    0    0 -0.14201100300E+02  0.22693356845E+01  0.28458772904E+02  0.59301907587E+02  0.49999933541E+02 0.  0.
         12    1    1    2    0    0  0.14201100300E+02 -0.22693356845E+01 -0.28458772904E+02  0.31886092413E+02  0.00000000000E+00 0. -1.
         11    1    3    3    0    0  0.16592981783E+02  0.78205277134E+01  0.75333793971E+01  0.19830267360E+02  0.51100000000E-03 0. -1.
        -11    1    3    3    0    0 -0.97049562947E+01  0.36220590032E+01  0.50322637152E+01  0.11516473699E+02  0.51100000000E-03 0.  1.
         12    1    3    3    0    0 -0.21089125788E+02 -0.91732510321E+01  0.15893129792E+02  0.27955166528E+02  0.00000000000E+00 0. -1.
</event>
<event>
 7    1  0.4346085E-013  0.5930195E+02  0.7816164E-02  0.1266605E+00
        -11   -1    0    0    0    0  0.00000000000E+00  0.00000000000E+00  0.45593999997E+02  0.45594000000E+02  0.51100000000E-03 0. -1.
         11   -1    0    0    0    0 -0.00000000000E+00 -0.00000000000E+00 -0.45593999997E+02  0.45594000000E+02  0.51100000000E-03 0.  1.
    9900012    2    1    2    0    0 -0.28048208806E+02  0.12372431929E+02 -0.87715968658E+01  0.59301952885E+02  0.50000016153E+02 0.  0.
         12    1    1    2    0    0  0.28048208806E+02 -0.12372431929E+02  0.87715968658E+01  0.31886047115E+02  0.00000000000E+00 0. -1.
         11    1    3    3    0    0 -0.32163898088E+00  0.52498331698E+01  0.71869180792E+01  0.89059525983E+01  0.51100000000E-03 0. -1.
        -11    1    3    3    0    0 -0.12674163198E+02  0.13326420452E+02 -0.25564672885E+02  0.31492545067E+02  0.51100000000E-03 0.  1.
        -12    1    3    3    0    0 -0.15052406627E+02 -0.62038216923E+01  0.96061579399E+01  0.18903455219E+02  0.00000000000E+00 0.  1.
</event>
<event>
 7    1  0.4346085E-013  0.5930197E+02  0.7816164E-02  0.1266605E+00
        -11   -1    0    0    0    0  0.00000000000E+00  0.00000000000E+00  0.45593999997E+02  0.45594000000E+02  0.51100000000E-03 0.  1.
         11   -1    0    0    0    0 -0.00000000000E+00 -0.00000000000E+00 -0.45593999997E+02  0.45594000000E+02  0.51100000000E-03 0. -1.
    9900012    2    1    2    0    0  0.20819943267E+02 -0.93593537443E+01 -0.22263235654E+02  0.59301965409E+02  0.50000038994E+02 0.  0.
         12    1    1    2    0    0 -0.20819943267E+02  0.93593537443E+01  0.22263235654E+02  0.31886034591E+02  0.00000000000E+00 0. -1.
         11    1    3    3    0    0  0.14263596991E+02 -0.11558780129E+02 -0.26647028666E+02  0.32359229505E+02  0.51100000000E-03 0. -1.
        -11    1    3    3    0    0  0.11737653172E+02 -0.46729907646E+01  0.10464443435E+02  0.16404692053E+02  0.51100000000E-03 0.  1.
         12    1    3    3    0    0 -0.51813068961E+01  0.68724171494E+01 -0.60806504235E+01  0.10538043851E+02  0.00000000000E+00 0. -1.
</event>
<event>
 7    1  0.4346085E-013  0.5930197E+02  0.7816164E-02  0.1266605E+00
        -11   -1    0    0    0    0  0.00000000000E+00  0.00000000000E+00  0.45593999997E+02  0.45594000000E+02  0.51100000000E-03 0.  1.
         11   -1    0    0    0    0 -0.00000000000E+00 -0.00000000000E+00 -0.45593999997E+02  0.45594000000E+02  0.51100000000E-03 0. -1.
    9900012    2    1    2    0    0  0.17029796133E+02  0.13624261063E+02  0.23261228343E+02  0.59301965598E+02  0.50000039339E+02 0.  0.
         12    1    1    2    0    0 -0.17029796133E+02 -0.13624261063E+02 -0.23261228343E+02  0.31886034402E+02  0.00000000000E+00 0. -1.
         11    1    3    3    0    0  0.17346581995E+02 -0.29149014071E+00  0.82546805072E+01  0.19212720368E+02  0.51100000000E-03 0. -1.
        -11    1    3    3    0    0 -0.14478368002E+02  0.16042743206E+02  0.38828077784E+01  0.21956068548E+02  0.51100000000E-03 0.  1.
        -12    1    3    3    0    0  0.14161582141E+02 -0.21269920023E+01  0.11123740058E+02  0.18133176682E+02  0.00000000000E+00 0.  1.
</event>
<event>
 7    1  0.4346085E-013  0.5930221E+02  0.7816164E-02  0.1266604E+00
        -11   -1    0    0    0    0  0.00000000000E+00  0.00000000000E+00  0.45593999997E+02  0.45594000000E+02  0.51100000000E-03 0.  1.
         11   -1    0    0    0    0 -0.00000000000E+00 -0.00000000000E+00 -0.45593999997E+02  0.45594000000E+02  0.51100000000E-03 0. -1.
    9900012    2    1    2    0    0  0.23731315452E+02 -0.21056617559E+02 -0.31854768245E+01  0.59302207886E+02  0.50000481213E+02 0.  0.
         12    1    1    2    0    0 -0.23731315452E+02  0.21056617559E+02  0.31854768245E+01  0.31885792114E+02  0.00000000000E+00 0. -1.
         11    1    3    3    0    0  0.10340532279E+02  0.80390068623E+01  0.10806194071E+02  0.16980166951E+02  0.51100000000E-03 0.  1.
        -11    1    3    3    0    0  0.11375584694E+02 -0.25145320848E+02 -0.20547133849E+02  0.34407496238E+02  0.51100000000E-03 0. -1.
         12    1    3    3    0    0  0.20151984795E+01 -0.39503035729E+01  0.65554629536E+01  0.79145446973E+01  0.00000000000E+00 0. -1.
</event>
<event>
 7    1  0.4346085E-013  0.5930196E+02  0.7816164E-02  0.1266605E+00
        -11   -1    0    0    0    0  0.00000000000E+00  0.00000000000E+00  0.45593999997E+02  0.45594000000E+02  0.51100000000E-03 0.  1.
         11   -1    0    0    0    0 -0.00000000000E+00 -0.00000000000E+00 -0.45593999997E+02  0.45594000000E+02  0.51100000000E-03 0. -1.
    9900012    2    1    2    0    0  0.60950621713E+01  0.31277752345E+02  0.11279575047E+01  0.59301955047E+02  0.50000020097E+02 0.  0.
         12    1    1    2    0    0 -0.60950621713E+01 -0.31277752345E+02 -0.11279575047E+01  0.31886044953E+02  0.00000000000E+00 0. -1.
         11    1    3    3    0    0 -0.13228167452E+02  0.19010567372E+02 -0.12164524673E+02  0.26160308613E+02  0.51100000000E-03 0. -1.
        -11    1    3    3    0    0  0.56910831955E+01  0.11777225295E+02  0.14402414197E+02  0.19455616119E+02  0.51100000000E-03 0.  1.
         12    1    3    3    0    0  0.13632146428E+02  0.48995967729E+00 -0.11099320198E+01  0.13686030315E+02  0.00000000000E+00 0. -1.
</event>
<event>
 7    1  0.4346085E-013  0.5930196E+02  0.7816164E-02  0.1266605E+00
        -11   -1    0    0    0    0  0.00000000000E+00  0.00000000000E+00  0.45593999997E+02  0.45594000000E+02  0.51100000000E-03 0.  1.
         11   -1    0    0    0    0 -0.00000000000E+00 -0.00000000000E+00 -0.45593999997E+02  0.45594000000E+02  0.51100000000E-03 0. -1.
    9900012    2    1    2    0    0  0.12848896259E+02 -0.28307592656E+02  0.70926614969E+01  0.59301956279E+02  0.50000022344E+02 0.  0.
         12    1    1    2    0    0 -0.12848896259E+02  0.28307592656E+02 -0.70926614969E+01  0.31886043721E+02  0.00000000000E+00 0. -1.
         11    1    3    3    0    0 -0.15722690267E+02 -0.19818641554E+00 -0.63950367963E+01  0.16974650599E+02  0.51100000000E-03 0. -1.
        -11    1    3    3    0    0  0.19876425243E+02 -0.19932637081E+02  0.10282952920E+02  0.29968674019E+02  0.51100000000E-03 0.  1.
         12    1    3    3    0    0  0.86951612822E+01 -0.81767691595E+01  0.32047453734E+01  0.12358631661E+02  0.00000000000E+00 0. -1.
</event>
<event>
 7    1  0.4346085E-013  0.5930194E+02  0.7816164E-02  0.1266605E+00
        -11   -1    0    0    0    0  0.00000000000E+00  0.00000000000E+00  0.45593999997E+02  0.45594000000E+02  0.51100000000E-03 0.  1.
         11   -1    0    0    0    0 -0.00000000000E+00 -0.00000000000E+00 -0.45593999997E+02  0.45594000000E+02  0.51100000000E-03 0. -1.
    9900012    2    1    2    0    0  0.26948649238E+02 -0.12929022833E+02  0.11105471871E+02  0.59301939838E+02  0.49999992360E+02 0.  0.
         12    1    1    2    0    0 -0.26948649238E+02  0.12929022833E+02 -0.11105471871E+02  0.31886060162E+02  0.00000000000E+00 0. -1.
         11    1    3    3    0    0 -0.55087896638E+01 -0.18587197880E+02  0.18170739880E+01  0.19471323703E+02  0.51100000000E-03 0. -1.
        -11    1    3    3    0    0  0.16584448017E+02 -0.69969474803E+01  0.73326557837E+01  0.19436281310E+02  0.51100000000E-03 0.  1.
         12    1    3    3    0    0  0.15872990885E+02  0.12655122528E+02  0.19557420994E+01  0.20394334826E+02  0.00000000000E+00 0. -1.
</event>
<event>
 7    1  0.4439413E-013  0.5930195E+02  0.7816164E-02  0.1266605E+00
        -11   -1    0    0    0    0  0.00000000000E+00  0.00000000000E+00  0.45593999997E+02  0.45594000000E+02  0.51100000000E-03 0. -1.
         11   -1    0    0    0    0 -0.00000000000E+00 -0.00000000000E+00 -0.45593999997E+02  0.45594000000E+02  0.51100000000E-03 0.  1.
    9900012    2    1    2    0    0 -0.26912903338E+02  0.67863096901E+00 -0.17086705793E+02  0.59301946294E+02  0.50000004133E+02 0.  0.
         12    1    1    2    0    0  0.26912903338E+02 -0.67863096901E+00  0.17086705793E+02  0.31886053706E+02  0.00000000000E+00 0. -1.
         11    1    3    3    0    0 -0.53716746550E+00  0.88516280855E+00  0.11869248095E+02  0.11914323845E+02  0.51100000000E-03 0. -1.
        -11    1    3    3    0    0 -0.24501992969E+02  0.61430014843E+01 -0.97568052224E+01  0.27079131727E+02  0.51100000000E-03 0.  1.
         12    1    3    3    0    0 -0.18737429038E+01 -0.63495333239E+01 -0.19199148665E+02  0.20308490721E+02  0.00000000000E+00 0. -1.
</event>
<event>
 7    1  0.4346085E-013  0.5930194E+02  0.7816164E-02  0.1266605E+00
        -11   -1    0    0    0    0  0.00000000000E+00  0.00000000000E+00  0.45593999997E+02  0.45594000000E+02  0.51100000000E-03 0.  1.
         11   -1    0    0    0    0 -0.00000000000E+00 -0.00000000000E+00 -0.45593999997E+02  0.45594000000E+02  0.51100000000E-03 0. -1.
    9900012    2    1    2    0    0 -0.18959918415E+01 -0.80098358718E+01  0.30805334629E+02  0.59301938823E+02  0.49999990508E+02 0.  0.
         12    1    1    2    0    0  0.18959918415E+01  0.80098358718E+01 -0.30805334629E+02  0.31886061177E+02  0.00000000000E+00 0. -1.
         11    1    3    3    0    0  0.17520856215E+02 -0.24148285893E+01  0.83352721332E+01  0.19552200936E+02  0.51100000000E-03 0. -1.
        -11    1    3    3    0    0 -0.15527843146E+02 -0.83019209600E+01  0.86272000772E+00  0.17628956023E+02  0.51100000000E-03 0.  1.
         12    1    3    3    0    0 -0.38890049109E+01  0.27069136776E+01  0.21607342489E+02  0.22120781864E+02  0.00000000000E+00 0. -1.
</event>
<event>
 7    1  0.4346085E-013  0.5930196E+02  0.7816164E-02  0.1266605E+00
        -11   -1    0    0    0    0  0.00000000000E+00  0.00000000000E+00  0.45593999997E+02  0.45594000000E+02  0.51100000000E-03 0.  1.
         11   -1    0    0    0    0 -0.00000000000E+00 -0.00000000000E+00 -0.45593999997E+02  0.45594000000E+02  0.51100000000E-03 0. -1.
    9900012    2    1    2    0    0 -0.16780096940E+01  0.23240905379E+02  0.21766117318E+02  0.59301964460E+02  0.50000037264E+02 0.  0.
         12    1    1    2    0    0  0.16780096940E+01 -0.23240905379E+02 -0.21766117318E+02  0.31886035540E+02  0.00000000000E+00 0. -1.
         11    1    3    3    0    0  0.86320546311E+01  0.15785752289E+02 -0.93899926907E+01  0.20294686631E+02  0.51100000000E-03 0. -1.
        -11    1    3    3    0    0 -0.14298818269E+02  0.13731500977E+01  0.12714980915E+02  0.19183651504E+02  0.51100000000E-03 0.  1.
        -12    1    3    3    0    0  0.39887539443E+01  0.60820029924E+01  0.18441129094E+02  0.19823626325E+02  0.00000000000E+00 0.  1.
</event>
<event>
 7    1  0.4346085E-013  0.5930195E+02  0.7816164E-02  0.1266605E+00
        -11   -1    0    0    0    0  0.00000000000E+00  0.00000000000E+00  0.45593999997E+02  0.45594000000E+02  0.51100000000E-03 0. -1.
         11   -1    0    0    0    0 -0.00000000000E+00 -0.00000000000E+00 -0.45593999997E+02  0.45594000000E+02  0.51100000000E-03 0.  1.
    9900012    2    1    2    0    0  0.12127369502E+02  0.28189773763E+02  0.86593030506E+01  0.59301953441E+02  0.50000017168E+02 0.  0.
         12    1    1    2    0    0 -0.12127369502E+02 -0.28189773763E+02 -0.86593030506E+01  0.31886046559E+02  0.00000000000E+00 0. -1.
         11    1    3    3    0    0 -0.93433985063E+01 -0.18853636854E+01  0.17413243065E+02  0.19851315477E+02  0.51100000000E-03 0. -1.
        -11    1    3    3    0    0  0.14708652892E+02  0.26328577562E+02 -0.41230500804E+01  0.30439086854E+02  0.51100000000E-03 0.  1.
         12    1    3    3    0    0  0.67621151160E+01  0.37465598866E+01 -0.46308899338E+01  0.90115511099E+01  0.00000000000E+00 0. -1.
</event>
<event>
 7    1  0.4346085E-013  0.5930217E+02  0.7816164E-02  0.1266604E+00
        -11   -1    0    0    0    0  0.00000000000E+00  0.00000000000E+00  0.45593999997E+02  0.45594000000E+02  0.51100000000E-03 0.  1.
         11   -1    0    0    0    0 -0.00000000000E+00 -0.00000000000E+00 -0.45593999997E+02  0.45594000000E+02  0.51100000000E-03 0. -1.
    9900012    2    1    2    0    0  0.14694947546E+02  0.11952262023E+02  0.25649725037E+02  0.59302165444E+02  0.50000403809E+02 0.  0.
         12    1    1    2    0    0 -0.14694947546E+02 -0.11952262023E+02 -0.25649725037E+02  0.31885834556E+02  0.00000000000E+00 0. -1.
         11    1    3    3    0    0  0.62988542452E+01 -0.23544410248E+01 -0.56222130908E+01  0.87651718546E+01  0.51100000000E-03 0. -1.
        -11    1    3    3    0    0 -0.79698180783E+01  0.12137804723E+02  0.30765758959E+02  0.34020232631E+02  0.51100000000E-03 0.  1.
        -12    1    3    3    0    0  0.16365911379E+02  0.21688983239E+01  0.50617916947E+00  0.16516760958E+02  0.00000000000E+00 0.  1.
</event>
<event>
 7    1  0.4346085E-013  0.5930194E+02  0.7816164E-02  0.1266605E+00
        -11   -1    0    0    0    0  0.00000000000E+00  0.00000000000E+00  0.45593999997E+02  0.45594000000E+02  0.51100000000E-03 0.  1.
         11   -1    0    0    0    0 -0.00000000000E+00 -0.00000000000E+00 -0.45593999997E+02  0.45594000000E+02  0.51100000000E-03 0. -1.
    9900012    2    1    2    0    0 -0.15316702889E+02 -0.27927965478E+02 -0.14656202191E+01  0.59301942142E+02  0.49999996560E+02 0.  0.
         12    1    1    2    0    0  0.15316702889E+02  0.27927965478E+02  0.14656202191E+01  0.31886057858E+02  0.00000000000E+00 0. -1.
         11    1    3    3    0    0  0.15915683291E+01 -0.19912081159E+02 -0.23196738898E+02  0.30612297555E+02  0.51100000000E-03 0. -1.
        -11    1    3    3    0    0 -0.40760659160E+01 -0.15388172971E+01  0.50337442633E+01  0.66573909000E+01  0.51100000000E-03 0.  1.
         12    1    3    3    0    0 -0.12832205302E+02 -0.64770670219E+01  0.16697374416E+02  0.22032253686E+02  0.00000000000E+00 0. -1.
</event>
<event>
 7    1  0.4346085E-013  0.5930194E+02  0.7816164E-02  0.1266605E+00
        -11   -1    0    0    0    0  0.00000000000E+00  0.00000000000E+00  0.45593999997E+02  0.45594000000E+02  0.51100000000E-03 0.  1.
         11   -1    0    0    0    0 -0.00000000000E+00 -0.00000000000E+00 -0.45593999997E+02  0.45594000000E+02  0.51100000000E-03 0. -1.
    9900012    2    1    2    0    0  0.31059230347E+02 -0.41515908478E+01  0.58999394536E+01  0.59301940634E+02  0.49999993810E+02 0.  0.
         12    1    1    2    0    0 -0.31059230347E+02  0.41515908478E+01 -0.58999394536E+01  0.31886059366E+02  0.00000000000E+00 0. -1.
         11    1    3    3    0    0  0.11856918509E+01  0.18687685442E+01 -0.44454774762E+01  0.49659270322E+01  0.51100000000E-03 0. -1.
        -11    1    3    3    0    0  0.27932414791E+02 -0.10990441216E+02  0.24794660980E+02  0.38933081147E+02  0.51100000000E-03 0.  1.
        -12    1    3    3    0    0  0.19411237052E+01  0.49700818235E+01 -0.14449244051E+02  0.15402932455E+02  0.00000000000E+00 0.  1.
</event>
<event>
 7    1  0.4346085E-013  0.5930195E+02  0.7816164E-02  0.1266605E+00
        -11   -1    0    0    0    0  0.00000000000E+00  0.00000000000E+00  0.45593999997E+02  0.45594000000E+02  0.51100000000E-03 0.  1.
         11   -1    0    0    0    0 -0.00000000000E+00 -0.00000000000E+00 -0.45593999997E+02  0.45594000000E+02  0.51100000000E-03 0. -1.
    9900012    2    1    2    0    0 -0.18947269992E+02 -0.10759950386E+02  0.23279703381E+02  0.59301950355E+02  0.50000011540E+02 0.  0.
         12    1    1    2    0    0  0.18947269992E+02  0.10759950386E+02 -0.23279703381E+02  0.31886049645E+02  0.00000000000E+00 0. -1.
         11    1    3    3    0    0 -0.29308622559E+02 -0.97362455729E+01  0.49248145831E+01  0.31273689151E+02  0.51100000000E-03 0. -1.
        -11    1    3    3    0    0  0.11185096426E+02 -0.71949881324E+01  0.68811078643E+01  0.14974107051E+02  0.51100000000E-03 0.  1.
        -12    1    3    3    0    0 -0.82374385790E+00  0.61712833190E+01  0.11473780933E+02  0.13054154153E+02  0.00000000000E+00 0.  1.
</event>
<event>
 7    1  0.4346085E-013  0.5930202E+02  0.7816164E-02  0.1266604E+00
        -11   -1    0    0    0    0  0.00000000000E+00  0.00000000000E+00  0.45593999997E+02  0.45594000000E+02  0.51100000000E-03 0. -1.
         11   -1    0    0    0    0 -0.00000000000E+00 -0.00000000000E+00 -0.45593999997E+02  0.45594000000E+02  0.51100000000E-03 0.  1.
    9900012    2    1    2    0    0  0.28308807598E+02 -0.14661108081E+02 -0.61546037565E+00  0.59302023941E+02  0.50000145743E+02 0.  0.
         12    1    1    2    0    0 -0.28308807598E+02  0.14661108081E+02  0.61546037565E+00  0.31885976059E+02  0.00000000000E+00 0. -1.
         11    1    3    3    0    0  0.26830175832E+02 -0.83293353249E+01  0.82940543660E+01  0.29292106449E+02  0.51100000000E-03 0. -1.
        -11    1    3    3    0    0 -0.73937794552E+01 -0.70892449454E+01 -0.15745272618E+02  0.18784008587E+02  0.51100000000E-03 0.  1.
        -12    1    3    3    0    0  0.88724112205E+01  0.75747218950E+00  0.68357578766E+01  0.11225908904E+02  0.00000000000E+00 0.  1.
</event>
<event>
 7    1  0.4346085E-013  0.5930194E+02  0.7816164E-02  0.1266605E+00
        -11   -1    0    0    0    0  0.00000000000E+00  0.00000000000E+00  0.45593999997E+02  0.45594000000E+02  0.51100000000E-03 0.  1.
         11   -1    0    0    0    0 -0.00000000000E+00 -0.00000000000E+00 -0.45593999997E+02  0.45594000000E+02  0.51100000000E-03 0. -1.
    9900012    2    1    2    0    0  0.24728950618E+02 -0.22169224549E+01  0.20007129167E+02  0.59301937820E+02  0.49999988678E+02 0.  0.
         12    1    1    2    0    0 -0.24728950618E+02  0.22169224549E+01 -0.20007129167E+02  0.31886062180E+02  0.00000000000E+00 0. -1.
         11    1    3    3    0    0 -0.40686868055E+01  0.25444814503E+01 -0.21980531074E+01  0.52782606886E+01  0.51100000000E-03 0. -1.
        -11    1    3    3    0    0  0.19599129482E+02 -0.22141174680E+02  0.12664734343E+02  0.32167576672E+02  0.51100000000E-03 0.  1.
        -12    1    3    3    0    0  0.91985079415E+01  0.17379770775E+02  0.95404479317E+01  0.21856100459E+02  0.00000000000E+00 0.  1.
</event>
<event>
 7    1  0.4346085E-013  0.5930195E+02  0.7816164E-02  0.1266605E+00
        -11   -1    0    0    0    0  0.00000000000E+00  0.00000000000E+00  0.45593999997E+02  0.45594000000E+02  0.51100000000E-03 0. -1.
         11   -1    0    0    0    0 -0.00000000000E+00 -0.00000000000E+00 -0.45593999997E+02  0.45594000000E+02  0.51100000000E-03 0.  1.
    9900012    2    1    2    0    0  0.22372403920E+02  0.22034092973E+02  0.55402740638E+01  0.59301947454E+02  0.50000006248E+02 0.  0.
         12    1    1    2    0    0 -0.22372403920E+02 -0.22034092973E+02 -0.55402740638E+01  0.31886052546E+02  0.00000000000E+00 0. -1.
         11    1    3    3    0    0  0.46248071926E+01  0.15388967394E+02  0.20644713520E+01  0.16200962973E+02  0.51100000000E-03 0. -1.
        -11    1    3    3    0    0  0.97888201790E+01 -0.14067272734E+02  0.10164987773E+02  0.19925765716E+02  0.51100000000E-03 0.  1.
        -12    1    3    3    0    0  0.79587765484E+01  0.20712398313E+02 -0.66891850612E+01  0.23175218765E+02  0.00000000000E+00 0.  1.
</event>
<event>
 7    1  0.4346085E-013  0.5930195E+02  0.7816164E-02  0.1266605E+00
        -11   -1    0    0    0    0  0.00000000000E+00  0.00000000000E+00  0.45593999997E+02  0.45594000000E+02  0.51100000000E-03 0.  1.
         11   -1    0    0    0    0 -0.00000000000E+00 -0.00000000000E+00 -0.45593999997E+02  0.45594000000E+02  0.51100000000E-03 0. -1.
    9900012    2    1    2    0    0  0.31816572025E+02  0.14750263715E+01 -0.14999986751E+01  0.59301953612E+02  0.50000017479E+02 0.  0.
         12    1    1    2    0    0 -0.31816572025E+02 -0.14750263715E+01  0.14999986751E+01  0.31886046388E+02  0.00000000000E+00 0. -1.
         11    1    3    3    0    0  0.26020364824E+02 -0.12095126874E+02 -0.31700080277E+01  0.28868675599E+02  0.51100000000E-03 0. -1.
        -11    1    3    3    0    0 -0.16055528222E+01  0.15271356731E+02  0.10638765747E+02  0.18680885235E+02  0.51100000000E-03 0.  1.
         12    1    3    3    0    0  0.74017600233E+01 -0.17012034858E+01 -0.89687563946E+01  0.11752392778E+02  0.00000000000E+00 0. -1.
</event>
<event>
 7    1  0.4346085E-013  0.5930193E+02  0.7816164E-02  0.1266605E+00
        -11   -1    0    0    0    0  0.00000000000E+00  0.00000000000E+00  0.45593999997E+02  0.45594000000E+02  0.51100000000E-03 0.  1.
         11   -1    0    0    0    0 -0.00000000000E+00 -0.00000000000E+00 -0.45593999997E+02  0.45594000000E+02  0.51100000000E-03 0. -1.
    9900012    2    1    2    0    0 -0.30605879235E+02 -0.85459126984E+00  0.89034567666E+01  0.59301926043E+02  0.49999967200E+02 0.  0.
         12    1    1    2    0    0  0.30605879235E+02  0.85459126984E+00 -0.89034567666E+01  0.31886073957E+02  0.00000000000E+00 0. -1.
         11    1    3    3    0    0 -0.15611249606E+02 -0.53930048770E+00 -0.15388198326E+02  0.21927120359E+02  0.51100000000E-03 0. -1.
        -11    1    3    3    0    0 -0.20653902559E+02 -0.12789881911E+01  0.23910113944E+02  0.31621401784E+02  0.51100000000E-03 0.  1.
        -12    1    3    3    0    0  0.56592729297E+01  0.96369740893E+00  0.38154114782E+00  0.57534038999E+01  0.00000000000E+00 0.  1.
</event>
<event>
 7    1  0.4346085E-013  0.5930198E+02  0.7816164E-02  0.1266605E+00
        -11   -1    0    0    0    0  0.00000000000E+00  0.00000000000E+00  0.45593999997E+02  0.45594000000E+02  0.51100000000E-03 0.  1.
         11   -1    0    0    0    0 -0.00000000000E+00 -0.00000000000E+00 -0.45593999997E+02  0.45594000000E+02  0.51100000000E-03 0. -1.
    9900012    2    1    2    0    0 -0.49467588181E+01 -0.17592519309E+02  0.26129500750E+02  0.59301984761E+02  0.50000074287E+02 0.  0.
         12    1    1    2    0    0  0.49467588181E+01  0.17592519309E+02 -0.26129500750E+02  0.31886015239E+02  0.00000000000E+00 0. -1.
         11    1    3    3    0    0 -0.69431658855E+01  0.24661806459E+01 -0.93306447811E+01  0.11889092976E+02  0.51100000000E-03 0. -1.
        -11    1    3    3    0    0  0.45162451309E+01 -0.21808481223E+02  0.15299115854E+02  0.27019794032E+02  0.51100000000E-03 0.  1.
         12    1    3    3    0    0 -0.25198380634E+01  0.17497812688E+01  0.20161029676E+02  0.20393097753E+02  0.00000000000E+00 0. -1.
</event>
<event>
 7    1  0.4346085E-013  0.5930193E+02  0.7816164E-02  0.1266605E+00
        -11   -1    0    0    0    0  0.00000000000E+00  0.00000000000E+00  0.45593999997E+02  0.45594000000E+02  0.51100000000E-03 0. -1.
         11   -1    0    0    0    0 -0.00000000000E+00 -0.00000000000E+00 -0.45593999997E+02  0.45594000000E+02  0.51100000000E-03 0.  1.
    9900012    2    1    2    0    0  0.18803225800E+02  0.13187678038E+02 -0.22118886082E+02  0.59301932917E+02  0.49999979737E+02 0.  0.
         12    1    1    2    0    0 -0.18803225800E+02 -0.13187678038E+02  0.22118886082E+02  0.31886067083E+02  0.00000000000E+00 0. -1.
         11    1    3    3    0    0  0.38935982593E+01  0.25074795740E+02 -0.66998092216E+01  0.26244864882E+02  0.51100000000E-03 0. -1.
        -11    1    3    3    0    0  0.98371016480E+01 -0.15715217578E+02 -0.18326111162E+02  0.26068812458E+02  0.51100000000E-03 0.  1.
        -12    1    3    3    0    0  0.50725258923E+01  0.38280998763E+01  0.29070343013E+01  0.69882555777E+01  0.00000000000E+00 0.  1.
</event>
<event>
 7    1  0.4346085E-013  0.5930197E+02  0.7816164E-02  0.1266605E+00
        -11   -1    0    0    0    0  0.00000000000E+00  0.00000000000E+00  0.45593999997E+02  0.45594000000E+02  0.51100000000E-03 0.  1.
         11   -1    0    0    0    0 -0.00000000000E+00 -0.00000000000E+00 -0.45593999997E+02  0.45594000000E+02  0.51100000000E-03 0. -1.
    9900012    2    1    2    0    0  0.20877624734E+01 -0.66265029470E+01  0.31119922308E+02  0.59301970804E+02  0.50000048834E+02 0.  0.
         12    1    1    2    0    0 -0.20877624734E+01  0.66265029470E+01 -0.31119922308E+02  0.31886029196E+02  0.00000000000E+00 0. -1.
         11    1    3    3    0    0  0.64288984598E+01 -0.50615322870E+01 -0.66508982530E+01  0.10544396253E+02  0.51100000000E-03 0. -1.
        -11    1    3    3    0    0 -0.99916745776E+01 -0.12423967086E+02  0.30771782977E+02  0.34656761921E+02  0.51100000000E-03 0.  1.
        -12    1    3    3    0    0  0.56505385912E+01  0.10858996426E+02  0.69990375840E+01  0.14100812631E+02  0.00000000000E+00 0.  1.
</event>
<event>
 7    1  0.4346085E-013  0.5930195E+02  0.7816164E-02  0.1266605E+00
        -11   -1    0    0    0    0  0.00000000000E+00  0.00000000000E+00  0.45593999997E+02  0.45594000000E+02  0.51100000000E-03 0. -1.
         11   -1    0    0    0    0 -0.00000000000E+00 -0.00000000000E+00 -0.45593999997E+02  0.45594000000E+02  0.51100000000E-03 0.  1.
    9900012    2    1    2    0    0  0.25293212588E+02 -0.13441907116E+01 -0.19369227461E+02  0.59301946244E+02  0.50000004042E+02 0.  0.
         12    1    1    2    0    0 -0.25293212588E+02  0.13441907116E+01  0.19369227461E+02  0.31886053756E+02  0.00000000000E+00 0. -1.
         11    1    3    3    0    0 -0.11780549431E+01 -0.53180634577E+01 -0.70293269731E+00  0.54921514024E+01  0.51100000000E-03 0. -1.
        -11    1    3    3    0    0  0.35290664986E+02  0.11939787096E+02 -0.19202606232E+02  0.41913358699E+02  0.51100000000E-03 0.  1.
        -12    1    3    3    0    0 -0.88193974551E+01 -0.79659143503E+01  0.53631146792E+00  0.11896436143E+02  0.00000000000E+00 0.  1.
</event>
<event>
 7    1  0.4346085E-013  0.5930174E+02  0.7816164E-02  0.1266605E+00
        -11   -1    0    0    0    0  0.00000000000E+00  0.00000000000E+00  0.45593999997E+02  0.45594000000E+02  0.51100000000E-03 0.  1.
         11   -1    0    0    0    0 -0.00000000000E+00 -0.00000000000E+00 -0.45593999997E+02  0.45594000000E+02  0.51100000000E-03 0. -1.
    9900012    2    1    2    0    0 -0.23803016052E+02 -0.21137597007E+02  0.18307611202E+01  0.59301744863E+02  0.49999636770E+02 0.  0.
         12    1    1    2    0    0  0.23803016052E+02  0.21137597007E+02 -0.18307611202E+01  0.31886255137E+02  0.00000000000E+00 0. -1.
         11    1    3    3    0    0  0.66745514472E+00 -0.87447187813E+01 -0.14684287165E+02  0.17103914544E+02  0.51100000000E-03 0. -1.
        -11    1    3    3    0    0 -0.43591031092E+01 -0.59426701841E+01  0.19519746032E+02  0.20864745248E+02  0.51100000000E-03 0.  1.
        -12    1    3    3    0    0 -0.20111368087E+02 -0.64502080415E+01 -0.30046977471E+01  0.21333085071E+02  0.00000000000E+00 0.  1.
</event>
<event>
 7    1  0.4346085E-013  0.5930195E+02  0.7816164E-02  0.1266605E+00
        -11   -1    0    0    0    0  0.00000000000E+00  0.00000000000E+00  0.45593999997E+02  0.45594000000E+02  0.51100000000E-03 0.  1.
         11   -1    0    0    0    0 -0.00000000000E+00 -0.00000000000E+00 -0.45593999997E+02  0.45594000000E+02  0.51100000000E-03 0. -1.
    9900012    2    1    2    0    0 -0.50296777828E+01 -0.31007679553E+02 -0.54723367046E+01  0.59301947894E+02  0.50000007052E+02 0.  0.
         12    1    1    2    0    0  0.50296777828E+01  0.31007679553E+02  0.54723367046E+01  0.31886052106E+02  0.00000000000E+00 0. -1.
         11    1    3    3    0    0 -0.20474521014E+02  0.13542001868E+01 -0.70751993175E+01  0.21704799343E+02  0.51100000000E-03 0. -1.
        -11    1    3    3    0    0  0.25808492339E+01 -0.16337295156E+02 -0.22426060109E+01  0.16691233560E+02  0.51100000000E-03 0.  1.
         12    1    3    3    0    0  0.12863993997E+02 -0.16024584585E+02  0.38454686239E+01  0.20905914991E+02  0.00000000000E+00 0. -1.
</event>
<event>
 7    1  0.4346085E-013  0.5930198E+02  0.7816164E-02  0.1266605E+00
        -11   -1    0    0    0    0  0.00000000000E+00  0.00000000000E+00  0.45593999997E+02  0.45594000000E+02  0.51100000000E-03 0.  1.
         11   -1    0    0    0    0 -0.00000000000E+00 -0.00000000000E+00 -0.45593999997E+02  0.45594000000E+02  0.51100000000E-03 0. -1.
    9900012    2    1    2    0    0 -0.79652891622E+01  0.28743563780E+02  0.11272970292E+02  0.59301981914E+02  0.50000069095E+02 0.  0.
         12    1    1    2    0    0  0.79652891622E+01 -0.28743563780E+02 -0.11272970292E+02  0.31886018086E+02  0.00000000000E+00 0. -1.
         11    1    3    3    0    0  0.11568165077E+02  0.12084235694E+02  0.15714816591E+02  0.22952269088E+02  0.51100000000E-03 0. -1.
        -11    1    3    3    0    0 -0.50135865898E+01  0.19518364080E+02 -0.69968502026E+01  0.21332100222E+02  0.51100000000E-03 0.  1.
         12    1    3    3    0    0 -0.14519867649E+02 -0.28590359945E+01  0.25550039040E+01  0.15017612604E+02  0.00000000000E+00 0. -1.
</event>
<event>
 7    1  0.4346085E-013  0.5930197E+02  0.7816164E-02  0.1266605E+00
        -11   -1    0    0    0    0  0.00000000000E+00  0.00000000000E+00  0.45593999997E+02  0.45594000000E+02  0.51100000000E-03 0. -1.
         11   -1    0    0    0    0 -0.00000000000E+00 -0.00000000000E+00 -0.45593999997E+02  0.45594000000E+02  0.51100000000E-03 0.  1.
    9900012    2    1    2    0    0 -0.31202446012E+02 -0.57952112651E+01 -0.30889629385E+01  0.59301971669E+02  0.50000050410E+02 0.  0.
         12    1    1    2    0    0  0.31202446012E+02  0.57952112651E+01  0.30889629385E+01  0.31886028331E+02  0.00000000000E+00 0. -1.
         11    1    3    3    0    0 -0.52509066312E+01  0.84486602017E+01  0.13924823322E+02  0.17112936173E+02  0.51100000000E-03 0. -1.
        -11    1    3    3    0    0  0.31059590486E+01 -0.63701471444E+01 -0.81617009286E+01  0.10809214521E+02  0.51100000000E-03 0.  1.
        -12    1    3    3    0    0 -0.29057498429E+02 -0.78737243224E+01 -0.88520853320E+01  0.31379820974E+02  0.00000000000E+00 0.  1.
</event>
<event>
 7    1  0.4346085E-013  0.5930195E+02  0.7816164E-02  0.1266605E+00
        -11   -1    0    0    0    0  0.00000000000E+00  0.00000000000E+00  0.45593999997E+02  0.45594000000E+02  0.51100000000E-03 0. -1.
         11   -1    0    0    0    0 -0.00000000000E+00 -0.00000000000E+00 -0.45593999997E+02  0.45594000000E+02  0.51100000000E-03 0.  1.
    9900012    2    1    2    0    0 -0.11203847417E+02  0.68513949480E+01 -0.29056018449E+02  0.59301952616E+02  0.50000015662E+02 0.  0.
         12    1    1    2    0    0  0.11203847417E+02 -0.68513949480E+01  0.29056018449E+02  0.31886047384E+02  0.00000000000E+00 0. -1.
         11    1    3    3    0    0  0.44360322371E+01 -0.15160885555E+02 -0.91553467726E+01  0.18257908084E+02  0.51100000000E-03 0. -1.
        -11    1    3    3    0    0  0.37680843109E+01  0.13513655385E+02 -0.11900721612E+02  0.18396861591E+02  0.51100000000E-03 0.  1.
         12    1    3    3    0    0 -0.19407963965E+02  0.84986251181E+01 -0.79999500644E+01  0.22647182941E+02  0.00000000000E+00 0. -1.
</event>
<event>
 7    1  0.4346085E-013  0.5930187E+02  0.7816164E-02  0.1266605E+00
        -11   -1    0    0    0    0  0.00000000000E+00  0.00000000000E+00  0.45593999997E+02  0.45594000000E+02  0.51100000000E-03 0.  1.
         11   -1    0    0    0    0 -0.00000000000E+00 -0.00000000000E+00 -0.45593999997E+02  0.45594000000E+02  0.51100000000E-03 0. -1.
    9900012    2    1    2    0    0  0.68938813878E+01  0.29697570786E+02 -0.93409978141E+01  0.59301865845E+02  0.49999857413E+02 0.  0.
         12    1    1    2    0    0 -0.68938813878E+01 -0.29697570786E+02  0.93409978141E+01  0.31886134155E+02  0.00000000000E+00 0. -1.
         11    1    3    3    0    0  0.10701504417E+02 -0.51509774876E+01 -0.11054786477E+00  0.11877162412E+02  0.51100000000E-03 0. -1.
        -11    1    3    3    0    0 -0.83259119069E+01  0.11247451187E+02  0.95370434758E+01  0.16934614428E+02  0.51100000000E-03 0.  1.
         12    1    3    3    0    0  0.45182888776E+01  0.23601097087E+02 -0.18767493425E+02  0.30490089005E+02  0.00000000000E+00 0. -1.
</event>
<event>
 7    1  0.4346085E-013  0.5930195E+02  0.7816164E-02  0.1266605E+00
        -11   -1    0    0    0    0  0.00000000000E+00  0.00000000000E+00  0.45593999997E+02  0.45594000000E+02  0.51100000000E-03 0. -1.
         11   -1    0    0    0    0 -0.00000000000E+00 -0.00000000000E+00 -0.45593999997E+02  0.45594000000E+02  0.51100000000E-03 0.  1.
    9900012    2    1    2    0    0  0.22116368113E+02 -0.10583995437E+02 -0.20385421707E+02  0.59301951074E+02  0.50000012851E+02 0.  0.
         12    1    1    2    0    0 -0.22116368113E+02  0.10583995437E+02  0.20385421707E+02  0.31886048926E+02  0.00000000000E+00 0. -1.
         11    1    3    3    0    0  0.24923546450E+02  0.22661784932E+01  0.55922128454E+01  0.25643548455E+02  0.51100000000E-03 0. -1.
        -11    1    3    3    0    0 -0.60396407334E+01  0.13713716481E+01 -0.11757550211E+02  0.13289014547E+02  0.51100000000E-03 0.  1.
         12    1    3    3    0    0  0.32324623970E+01 -0.14221545579E+02 -0.14220084340E+02  0.20369388072E+02  0.00000000000E+00 0. -1.
</event>
<event>
 7    1  0.4346085E-013  0.5930188E+02  0.7816164E-02  0.1266605E+00
        -11   -1    0    0    0    0  0.00000000000E+00  0.00000000000E+00  0.45593999997E+02  0.45594000000E+02  0.51100000000E-03 0.  1.
         11   -1    0    0    0    0 -0.00000000000E+00 -0.00000000000E+00 -0.45593999997E+02  0.45594000000E+02  0.51100000000E-03 0. -1.
    9900012    2    1    2    0    0  0.25371481993E+02 -0.10992977335E+02  0.15879776969E+02  0.59301875027E+02  0.49999874159E+02 0.  0.
         12    1    1    2    0    0 -0.25371481993E+02  0.10992977335E+02 -0.15879776969E+02  0.31886124973E+02  0.00000000000E+00 0. -1.
         11    1    3    3    0    0 -0.47267126012E+01  0.26616823490E+00  0.30224061515E+01  0.56167247351E+01  0.51100000000E-03 0. -1.
        -11    1    3    3    0    0  0.10395756944E+02 -0.10889943743E+02 -0.13875496533E+02  0.20474179873E+02  0.51100000000E-03 0.  1.
        -12    1    3    3    0    0  0.19702437650E+02 -0.36920182609E+00  0.26732867351E+02  0.33210970418E+02  0.00000000000E+00 0.  1.
</event>
<event>
 7    1  0.4346085E-013  0.5930192E+02  0.7816164E-02  0.1266605E+00
        -11   -1    0    0    0    0  0.00000000000E+00  0.00000000000E+00  0.45593999997E+02  0.45594000000E+02  0.51100000000E-03 0. -1.
         11   -1    0    0    0    0 -0.00000000000E+00 -0.00000000000E+00 -0.45593999997E+02  0.45594000000E+02  0.51100000000E-03 0.  1.
    9900012    2    1    2    0    0 -0.28430058270E+02  0.16100502323E+01 -0.14347886453E+02  0.59301916505E+02  0.49999949805E+02 0.  0.
         12    1    1    2    0    0  0.28430058270E+02 -0.16100502323E+01  0.14347886453E+02  0.31886083495E+02  0.00000000000E+00 0. -1.
         11    1    3    3    0    0 -0.10588969806E+02  0.30930212933E+01 -0.26118276414E+02  0.28352379536E+02  0.51100000000E-03 0. -1.
        -11    1    3    3    0    0 -0.18772527463E+02 -0.65118670765E+01  0.15004159206E+02  0.24898533971E+02  0.51100000000E-03 0.  1.
        -12    1    3    3    0    0  0.93143899863E+00  0.50288960155E+01 -0.32337692457E+01  0.60510029976E+01  0.00000000000E+00 0.  1.
</event>
<event>
 7    1  0.4346085E-013  0.5930194E+02  0.7816164E-02  0.1266605E+00
        -11   -1    0    0    0    0  0.00000000000E+00  0.00000000000E+00  0.45593999997E+02  0.45594000000E+02  0.51100000000E-03 0.  1.
         11   -1    0    0    0    0 -0.00000000000E+00 -0.00000000000E+00 -0.45593999997E+02  0.45594000000E+02  0.51100000000E-03 0. -1.
    9900012    2    1    2    0    0  0.16415560959E+02 -0.14380038070E+01  0.27298028491E+02  0.59301939471E+02  0.49999991690E+02 0.  0.
         12    1    1    2    0    0 -0.16415560959E+02  0.14380038070E+01 -0.27298028491E+02  0.31886060529E+02  0.00000000000E+00 0. -1.
         11    1    3    3    0    0  0.47802514059E+01 -0.16760354038E+02 -0.42188416571E+01  0.17932063355E+02  0.51100000000E-03 0. -1.
        -11    1    3    3    0    0  0.16375561991E+02  0.87078493413E+01  0.20098140860E+02  0.27348143208E+02  0.51100000000E-03 0.  1.
         12    1    3    3    0    0 -0.47402524374E+01  0.66145008897E+01  0.11418729288E+02  0.14021732908E+02  0.00000000000E+00 0. -1.
</event>
<event>
 7    1  0.4346085E-013  0.5930195E+02  0.7816164E-02  0.1266605E+00
        -11   -1    0    0    0    0  0.00000000000E+00  0.00000000000E+00  0.45593999997E+02  0.45594000000E+02  0.51100000000E-03 0.  1.
         11   -1    0    0    0    0 -0.00000000000E+00 -0.00000000000E+00 -0.45593999997E+02  0.45594000000E+02  0.51100000000E-03 0. -1.
    9900012    2    1    2    0    0  0.12743649904E+02  0.20472595355E+02  0.20861260497E+02  0.59301953476E+02  0.50000017232E+02 0.  0.
         12    1    1    2    0    0 -0.12743649904E+02 -0.20472595355E+02 -0.20861260497E+02  0.31886046524E+02  0.00000000000E+00 0. -1.
         11    1    3    3    0    0 -0.47226478419E+01 -0.43461344305E+01  0.14194411827E+02  0.15577984931E+02  0.51100000000E-03 0. -1.
        -11    1    3    3    0    0  0.26245277031E+02  0.20466799147E+02  0.65730811735E+01  0.33925061977E+02  0.51100000000E-03 0.  1.
        -12    1    3    3    0    0 -0.87789792858E+01  0.43519306378E+01  0.93767495553E-01  0.97989065676E+01  0.00000000000E+00 0.  1.
</event>
<event>
 7    1  0.4346085E-013  0.5930194E+02  0.7816164E-02  0.1266605E+00
        -11   -1    0    0    0    0  0.00000000000E+00  0.00000000000E+00  0.45593999997E+02  0.45594000000E+02  0.51100000000E-03 0.  1.
         11   -1    0    0    0    0 -0.00000000000E+00 -0.00000000000E+00 -0.45593999997E+02  0.45594000000E+02  0.51100000000E-03 0. -1.
    9900012    2    1    2    0    0 -0.28409705687E+02 -0.19211077233E+01  0.14349860904E+02  0.59301944426E+02  0.50000000726E+02 0.  0.
         12    1    1    2    0    0  0.28409705687E+02  0.19211077233E+01 -0.14349860904E+02  0.31886055574E+02  0.00000000000E+00 0. -1.
         11    1    3    3    0    0 -0.56825726770E+01 -0.56173496120E+01 -0.72725785297E+01  0.10804473501E+02  0.51100000000E-03 0. -1.
        -11    1    3    3    0    0 -0.21559499214E+02 -0.11490407005E+02  0.22537909608E+02  0.33238514246E+02  0.51100000000E-03 0.  1.
        -12    1    3    3    0    0 -0.11676337967E+01  0.15186648894E+02 -0.91547017457E+00  0.15258956680E+02  0.00000000000E+00 0.  1.
</event>
<event>
 7    1  0.4346085E-013  0.5930194E+02  0.7816164E-02  0.1266605E+00
        -11   -1    0    0    0    0  0.00000000000E+00  0.00000000000E+00  0.45593999997E+02  0.45594000000E+02  0.51100000000E-03 0. -1.
         11   -1    0    0    0    0 -0.00000000000E+00 -0.00000000000E+00 -0.45593999997E+02  0.45594000000E+02  0.51100000000E-03 0.  1.
    9900012    2    1    2    0    0  0.15342558538E+02  0.27223452156E+02 -0.63411432086E+01  0.59301944317E+02  0.50000000528E+02 0.  0.
         12    1    1    2    0    0 -0.15342558538E+02 -0.27223452156E+02  0.63411432086E+01  0.31886055683E+02  0.00000000000E+00 0. -1.
         11    1    3    3    0    0 -0.22585984098E+01 -0.10967193795E+02 -0.98344960853E+01  0.14902950044E+02  0.51100000000E-03 0. -1.
        -11    1    3    3    0    0  0.13427357187E+02  0.31683961594E+02  0.81644497794E+01  0.35367012650E+02  0.51100000000E-03 0.  1.
         12    1    3    3    0    0  0.41737997617E+01  0.65066843571E+01 -0.46710969027E+01  0.90319816235E+01  0.00000000000E+00 0. -1.
</event>
<event>
 7    1  0.4346085E-013  0.5930222E+02  0.7816164E-02  0.1266604E+00
        -11   -1    0    0    0    0  0.00000000000E+00  0.00000000000E+00  0.45593999997E+02  0.45594000000E+02  0.51100000000E-03 0. -1.
         11   -1    0    0    0    0 -0.00000000000E+00 -0.00000000000E+00 -0.45593999997E+02  0.45594000000E+02  0.51100000000E-03 0.  1.
    9900012    2    1    2    0    0  0.26944080302E+02 -0.16637473597E+02  0.37301699552E+01  0.59302216978E+02  0.50000497794E+02 0.  0.
         12    1    1    2    0    0 -0.26944080302E+02  0.16637473597E+02 -0.37301699552E+01  0.31885783022E+02  0.00000000000E+00 0. -1.
         11    1    3    3    0    0  0.15740004352E+02  0.54609280251E+01  0.16710533306E+02  0.23596851390E+02  0.51100000000E-03 0. -1.
        -11    1    3    3    0    0 -0.31371847923E+01 -0.48229068929E+01  0.44562409657E+01  0.72773926048E+01  0.51100000000E-03 0.  1.
         12    1    3    3    0    0  0.14341260743E+02 -0.17275494729E+02 -0.17436604317E+02  0.28427972983E+02  0.00000000000E+00 0. -1.
</event>
<event>
 7    1  0.4346085E-013  0.5930202E+02  0.7816164E-02  0.1266605E+00
        -11   -1    0    0    0    0  0.00000000000E+00  0.00000000000E+00  0.45593999997E+02  0.45594000000E+02  0.51100000000E-03 0.  1.
         11   -1    0    0    0    0 -0.00000000000E+00 -0.00000000000E+00 -0.45593999997E+02  0.45594000000E+02  0.51100000000E-03 0. -1.
    9900012    2    1    2    0    0  0.67415914735E+00  0.30892088570E+02  0.78702104890E+01  0.59302018128E+02  0.50000135141E+02 0.  0.
         12    1    1    2    0    0 -0.67415914735E+00 -0.30892088570E+02 -0.78702104890E+01  0.31885981872E+02  0.00000000000E+00 0. -1.
         11    1    3    3    0    0 -0.15123359870E+01  0.15510633040E+02 -0.12868894804E+02  0.20210773146E+02  0.51100000000E-03 0. -1.
        -11    1    3    3    0    0  0.15193402836E+02  0.45743597154E+01  0.71806016539E+01  0.17416236588E+02  0.51100000000E-03 0.  1.
        -12    1    3    3    0    0 -0.13006907701E+02  0.10807095815E+02  0.13558503639E+02  0.21675008393E+02  0.00000000000E+00 0.  1.
</event>
<event>
 7    1  0.4346085E-013  0.5930195E+02  0.7816164E-02  0.1266605E+00
        -11   -1    0    0    0    0  0.00000000000E+00  0.00000000000E+00  0.45593999997E+02  0.45594000000E+02  0.51100000000E-03 0. -1.
         11   -1    0    0    0    0 -0.00000000000E+00 -0.00000000000E+00 -0.45593999997E+02  0.45594000000E+02  0.51100000000E-03 0.  1.
    9900012    2    1    2    0    0  0.38571881523E+01 -0.20851803006E+01 -0.31583134582E+02  0.59301948702E+02  0.50000008525E+02 0.  0.
         12    1    1    2    0    0 -0.38571881523E+01  0.20851803006E+01  0.31583134582E+02  0.31886051298E+02  0.00000000000E+00 0. -1.
         11    1    3    3    0    0  0.11822725670E+02  0.17805739864E+02 -0.16702750290E+02  0.27125690440E+02  0.51100000000E-03 0. -1.
        -11    1    3    3    0    0 -0.71674253114E+01 -0.57957913859E+01 -0.15512493833E+02  0.18044407681E+02  0.51100000000E-03 0.  1.
         12    1    3    3    0    0 -0.79811220627E+00 -0.14095128778E+02  0.63210954048E+00  0.14131850581E+02  0.00000000000E+00 0. -1.
</event>
<event>
 7    1  0.4346085E-013  0.5930193E+02  0.7816164E-02  0.1266605E+00
        -11   -1    0    0    0    0  0.00000000000E+00  0.00000000000E+00  0.45593999997E+02  0.45594000000E+02  0.51100000000E-03 0. -1.
         11   -1    0    0    0    0 -0.00000000000E+00 -0.00000000000E+00 -0.45593999997E+02  0.45594000000E+02  0.51100000000E-03 0.  1.
    9900012    2    1    2    0    0 -0.27886942223E+02 -0.12955432256E+02 -0.84378090025E+01  0.59301931063E+02  0.49999976355E+02 0.  0.
         12    1    1    2    0    0  0.27886942223E+02  0.12955432256E+02  0.84378090025E+01  0.31886068937E+02  0.00000000000E+00 0. -1.
         11    1    3    3    0    0  0.76090165155E+01 -0.67132081070E+01  0.63707888972E+01  0.11981287362E+02  0.51100000000E-03 0. -1.
        -11    1    3    3    0    0 -0.20195475833E+02 -0.48080729686E+01 -0.22091095994E+02  0.30314869821E+02  0.51100000000E-03 0.  1.
        -12    1    3    3    0    0 -0.15300482905E+02 -0.14341511807E+01  0.72824980941E+01  0.17005773879E+02  0.00000000000E+00 0.  1.
</event>
<event>
 7    1  0.4346085E-013  0.5930192E+02  0.7816164E-02  0.1266605E+00
        -11   -1    0    0    0    0  0.00000000000E+00  0.00000000000E+00  0.45593999997E+02  0.45594000000E+02  0.51100000000E-03 0. -1.
         11   -1    0    0    0    0 -0.00000000000E+00 -0.00000000000E+00 -0.45593999997E+02  0.45594000000E+02  0.51100000000E-03 0.  1.
    9900012    2    1    2    0    0 -0.16346516353E+02  0.20353263498E+02 -0.18310052243E+02  0.59301922395E+02  0.49999960547E+02 0.  0.
         12    1    1    2    0    0  0.16346516353E+02 -0.20353263498E+02  0.18310052243E+02  0.31886077605E+02  0.00000000000E+00 0. -1.
         11    1    3    3    0    0 -0.50551578621E+01  0.94131796307E+01  0.16191924526E+02  0.19399510094E+02  0.51100000000E-03 0. -1.
        -11    1    3    3    0    0 -0.12859860442E+02  0.62894769873E+01 -0.30008071810E+02  0.33247825574E+02  0.51100000000E-03 0.  1.
        -12    1    3    3    0    0  0.15685019509E+01  0.46506068801E+01 -0.44939049591E+01  0.66545867268E+01  0.00000000000E+00 0.  1.
</event>
<event>
 7    1  0.4346085E-013  0.5930193E+02  0.7816164E-02  0.1266605E+00
        -11   -1    0    0    0    0  0.00000000000E+00  0.00000000000E+00  0.45593999997E+02  0.45594000000E+02  0.51100000000E-03 0.  1.
         11   -1    0    0    0    0 -0.00000000000E+00 -0.00000000000E+00 -0.45593999997E+02  0.45594000000E+02  0.51100000000E-03 0. -1.
    9900012    2    1    2    0    0 -0.10295238912E+02  0.34663315510E+01  0.29978563786E+02  0.59301926467E+02  0.49999967974E+02 0.  0.
         12    1    1    2    0    0  0.10295238912E+02 -0.34663315510E+01 -0.29978563786E+02  0.31886073533E+02  0.00000000000E+00 0. -1.
         11    1    3    3    0    0  0.12009923970E+02  0.80059495248E+01 -0.67155349790E+01  0.15919544964E+02  0.51100000000E-03 0. -1.
        -11    1    3    3    0    0 -0.14374278601E+02 -0.48303765282E+01  0.25308943558E+02  0.29504153047E+02  0.51100000000E-03 0.  1.
         12    1    3    3    0    0 -0.79308842803E+01  0.29075855439E+00  0.11385155206E+02  0.13878228456E+02  0.00000000000E+00 0. -1.
</event>
<event>
 7    1  0.4346085E-013  0.5930196E+02  0.7816164E-02  0.1266605E+00
        -11   -1    0    0    0    0  0.00000000000E+00  0.00000000000E+00  0.45593999997E+02  0.45594000000E+02  0.51100000000E-03 0. -1.
         11   -1    0    0    0    0 -0.00000000000E+00 -0.00000000000E+00 -0.45593999997E+02  0.45594000000E+02  0.51100000000E-03 0.  1.
    9900012    2    1    2    0    0  0.10901494183E+00  0.31658630560E+02  0.37998737569E+01  0.59301955815E+02  0.50000021498E+02 0.  0.
         12    1    1    2    0    0 -0.10901494183E+00 -0.31658630560E+02 -0.37998737569E+01  0.31886044185E+02  0.00000000000E+00 0. -1.
         11    1    3    3    0    0 -0.15355462013E+02  0.19711947882E+02  0.12460943697E+02  0.27921787568E+02  0.51100000000E-03 0. -1.
        -11    1    3    3    0    0  0.20763098047E+01  0.12549589155E+02 -0.12087453938E+02  0.17547358585E+02  0.51100000000E-03 0.  1.
         12    1    3    3    0    0  0.13388167150E+02 -0.60290647722E+00  0.34263839977E+01  0.13832809662E+02  0.00000000000E+00 0. -1.
</event>
<event>
 7    1  0.4346085E-013  0.5930195E+02  0.7816164E-02  0.1266605E+00
        -11   -1    0    0    0    0  0.00000000000E+00  0.00000000000E+00  0.45593999997E+02  0.45594000000E+02  0.51100000000E-03 0.  1.
         11   -1    0    0    0    0 -0.00000000000E+00 -0.00000000000E+00 -0.45593999997E+02  0.45594000000E+02  0.51100000000E-03 0. -1.
    9900012    2    1    2    0    0 -0.33360353749E+01 -0.28257071271E+02  0.14391980556E+02  0.59301947984E+02  0.50000007216E+02 0.  0.
         12    1    1    2    0    0  0.33360353749E+01  0.28257071271E+02 -0.14391980556E+02  0.31886052016E+02  0.00000000000E+00 0. -1.
         11    1    3    3    0    0 -0.11677999919E+02 -0.31022778984E+01 -0.11410128738E+02  0.16618990593E+02  0.51100000000E-03 0. -1.
        -11    1    3    3    0    0  0.53015588409E+01 -0.27795864356E+01  0.17712721748E+02  0.18696875110E+02  0.51100000000E-03 0.  1.
        -12    1    3    3    0    0  0.30404057028E+01 -0.22375206937E+02  0.80893875464E+01  0.23986082281E+02  0.00000000000E+00 0.  1.
</event>
<event>
 7    1  0.4346085E-013  0.5930190E+02  0.7816164E-02  0.1266605E+00
        -11   -1    0    0    0    0  0.00000000000E+00  0.00000000000E+00  0.45593999997E+02  0.45594000000E+02  0.51100000000E-03 0.  1.
         11   -1    0    0    0    0 -0.00000000000E+00 -0.00000000000E+00 -0.45593999997E+02  0.45594000000E+02  0.51100000000E-03 0. -1.
    9900012    2    1    2    0    0 -0.77651682753E+01  0.30571534993E+02  0.46697881754E+01  0.59301897827E+02  0.49999915741E+02 0.  0.
         12    1    1    2    0    0  0.77651682753E+01 -0.30571534993E+02 -0.46697881754E+01  0.31886102173E+02  0.00000000000E+00 0. -1.
         11    1    3    3    0    0 -0.18840264441E+02  0.22450419729E+02 -0.31149025855E+01  0.29473369821E+02  0.51100000000E-03 0. -1.
        -11    1    3    3    0    0  0.13099745653E+02  0.15829985551E+02  0.74331022763E+01  0.21850464261E+02  0.51100000000E-03 0.  1.
        -12    1    3    3    0    0 -0.20246494867E+01 -0.77088702876E+01  0.35158848462E+00  0.79780637449E+01  0.00000000000E+00 0.  1.
</event>
<event>
 7    1  0.4346085E-013  0.5930194E+02  0.7816164E-02  0.1266605E+00
        -11   -1    0    0    0    0  0.00000000000E+00  0.00000000000E+00  0.45593999997E+02  0.45594000000E+02  0.51100000000E-03 0.  1.
         11   -1    0    0    0    0 -0.00000000000E+00 -0.00000000000E+00 -0.45593999997E+02  0.45594000000E+02  0.51100000000E-03 0. -1.
    9900012    2    1    2    0    0 -0.29382700339E+02  0.65334700454E+01  0.10520995896E+02  0.59301942472E+02  0.49999997163E+02 0.  0.
         12    1    1    2    0    0  0.29382700339E+02 -0.65334700454E+01 -0.10520995896E+02  0.31886057528E+02  0.00000000000E+00 0. -1.
         11    1    3    3    0    0 -0.75383479844E+01  0.24949952469E+02 -0.42953392969E+01  0.26415464381E+02  0.51100000000E-03 0. -1.
        -11    1    3    3    0    0 -0.10694927222E+01 -0.23508957705E+01  0.33508091942E+01  0.42306557558E+01  0.51100000000E-03 0.  1.
         12    1    3    3    0    0 -0.20774859632E+02 -0.16065586653E+02  0.11465525999E+02  0.28655822335E+02  0.00000000000E+00 0. -1.
</event>
<event>
 7    1  0.4346085E-013  0.5930171E+02  0.7816164E-02  0.1266606E+00
        -11   -1    0    0    0    0  0.00000000000E+00  0.00000000000E+00  0.45593999997E+02  0.45594000000E+02  0.51100000000E-03 0.  1.
         11   -1    0    0    0    0 -0.00000000000E+00 -0.00000000000E+00 -0.45593999997E+02  0.45594000000E+02  0.51100000000E-03 0. -1.
    9900012    2    1    2    0    0 -0.16451541184E+02 -0.27288420044E+02 -0.11933838094E+01  0.59301713908E+02  0.49999580315E+02 0.  0.
         12    1    1    2    0    0  0.16451541184E+02  0.27288420044E+02  0.11933838094E+01  0.31886286092E+02  0.00000000000E+00 0. -1.
         11    1    3    3    0    0 -0.19941871137E+02 -0.42128121815E+01 -0.12566230270E+02  0.23944438903E+02  0.51100000000E-03 0. -1.
        -11    1    3    3    0    0 -0.48322976183E+01 -0.22987372145E+02  0.13043363304E+02  0.26868191322E+02  0.51100000000E-03 0.  1.
         12    1    3    3    0    0  0.83226275718E+01 -0.88235718055E-01 -0.16705168434E+01  0.84890836823E+01  0.00000000000E+00 0. -1.
</event>
<event>
 7    1  0.4346085E-013  0.5930195E+02  0.7816164E-02  0.1266605E+00
        -11   -1    0    0    0    0  0.00000000000E+00  0.00000000000E+00  0.45593999997E+02  0.45594000000E+02  0.51100000000E-03 0. -1.
         11   -1    0    0    0    0 -0.00000000000E+00 -0.00000000000E+00 -0.45593999997E+02  0.45594000000E+02  0.51100000000E-03 0.  1.
    9900012    2    1    2    0    0  0.67422507710E+01  0.28548666956E+02 -0.12499423267E+02  0.59301954268E+02  0.50000018676E+02 0.  0.
         12    1    1    2    0    0 -0.67422507710E+01 -0.28548666956E+02  0.12499423267E+02  0.31886045732E+02  0.00000000000E+00 0. -1.
         11    1    3    3    0    0  0.19036239664E+02  0.92803593607E+01 -0.43140893160E+01  0.21612840102E+02  0.51100000000E-03 0. -1.
        -11    1    3    3    0    0 -0.79241030071E+01  0.24908473953E+02 -0.12888637290E+02  0.29143446169E+02  0.51100000000E-03 0.  1.
         12    1    3    3    0    0 -0.43698858858E+01 -0.56401663581E+01  0.47033033396E+01  0.85456679965E+01  0.00000000000E+00 0. -1.
</event>
<event>
 7    1  0.4346085E-013  0.5930207E+02  0.7816164E-02  0.1266604E+00
        -11   -1    0    0    0    0  0.00000000000E+00  0.00000000000E+00  0.45593999997E+02  0.45594000000E+02  0.51100000000E-03 0.  1.
         11   -1    0    0    0    0 -0.00000000000E+00 -0.00000000000E+00 -0.45593999997E+02  0.45594000000E+02  0.51100000000E-03 0. -1.
    9900012    2    1    2    0    0 -0.31258644511E+02  0.20628834799E+01  0.59459380024E+01  0.59302070130E+02  0.50000229980E+02 0.  0.
         12    1    1    2    0    0  0.31258644511E+02 -0.20628834799E+01 -0.59459380024E+01  0.31885929870E+02  0.00000000000E+00 0. -1.
         11    1    3    3    0    0 -0.18191637495E+02  0.29707514564E+01 -0.10275261569E+01  0.18461225561E+02  0.51100000000E-03 0. -1.
        -11    1    3    3    0    0  0.11170965732E+01 -0.16938882113E+02 -0.29789374675E+01  0.17235071821E+02  0.51100000000E-03 0.  1.
        -12    1    3    3    0    0 -0.14184103590E+02  0.16031014136E+02  0.99524016268E+01  0.23605772748E+02  0.00000000000E+00 0.  1.
</event>
<event>
 7    1  0.4346085E-013  0.5930198E+02  0.7816164E-02  0.1266605E+00
        -11   -1    0    0    0    0  0.00000000000E+00  0.00000000000E+00  0.45593999997E+02  0.45594000000E+02  0.51100000000E-03 0.  1.
         11   -1    0    0    0    0 -0.00000000000E+00 -0.00000000000E+00 -0.45593999997E+02  0.45594000000E+02  0.51100000000E-03 0. -1.
    9900012    2    1    2    0    0 -0.75553173443E+01 -0.18843964914E+02 -0.24587402099E+02  0.59301981500E+02  0.50000068340E+02 0.  0.
         12    1    1    2    0    0  0.75553173443E+01  0.18843964914E+02  0.24587402099E+02  0.31886018500E+02  0.00000000000E+00 0. -1.
         11    1    3    3    0    0 -0.73413054108E+01 -0.63159690188E+01 -0.20238343586E+02  0.22436059840E+02  0.51100000000E-03 0. -1.
        -11    1    3    3    0    0  0.11335830897E+02 -0.18252845003E+02  0.35056952379E+01  0.21770560677E+02  0.51100000000E-03 0.  1.
        -12    1    3    3    0    0 -0.11549842831E+02  0.57248491077E+01 -0.78547537505E+01  0.15095360983E+02  0.00000000000E+00 0.  1.
</event>
<event>
 7    1  0.4346085E-013  0.5930194E+02  0.7816164E-02  0.1266605E+00
        -11   -1    0    0    0    0  0.00000000000E+00  0.00000000000E+00  0.45593999997E+02  0.45594000000E+02  0.51100000000E-03 0. -1.
         11   -1    0    0    0    0 -0.00000000000E+00 -0.00000000000E+00 -0.45593999997E+02  0.45594000000E+02  0.51100000000E-03 0.  1.
    9900012    2    1    2    0    0 -0.21448268895E+02  0.20721469038E+02  0.11283320761E+02  0.59301939643E+02  0.49999992004E+02 0.  0.
         12    1    1    2    0    0  0.21448268895E+02 -0.20721469038E+02 -0.11283320761E+02  0.31886060357E+02  0.00000000000E+00 0. -1.
         11    1    3    3    0    0 -0.14629551091E+02  0.90421916053E+01  0.76606451897E+01  0.18827386413E+02  0.51100000000E-03 0. -1.
        -11    1    3    3    0    0  0.40924186077E+01 -0.23880762147E+01  0.17355376315E+02  0.17990549891E+02  0.51100000000E-03 0.  1.
        -12    1    3    3    0    0 -0.10911136411E+02  0.14067353648E+02 -0.13732700744E+02  0.22484003339E+02  0.00000000000E+00 0.  1.
</event>
<event>
 7    1  0.4346085E-013  0.5930196E+02  0.7816164E-02  0.1266605E+00
        -11   -1    0    0    0    0  0.00000000000E+00  0.00000000000E+00  0.45593999997E+02  0.45594000000E+02  0.51100000000E-03 0.  1.
         11   -1    0    0    0    0 -0.00000000000E+00 -0.00000000000E+00 -0.45593999997E+02  0.45594000000E+02  0.51100000000E-03 0. -1.
    9900012    2    1    2    0    0  0.17267599840E+02 -0.12212484867E+02  0.23862209349E+02  0.59301955626E+02  0.50000021152E+02 0.  0.
         12    1    1    2    0    0 -0.17267599840E+02  0.12212484867E+02 -0.23862209349E+02  0.31886044374E+02  0.00000000000E+00 0. -1.
         11    1    3    3    0    0  0.15344249226E+02 -0.81649472002E+01  0.12630587414E+02  0.21485904351E+02  0.51100000000E-03 0. -1.
        -11    1    3    3    0    0 -0.32437196594E+01  0.11691895092E+02  0.16456273701E+02  0.20445808188E+02  0.51100000000E-03 0.  1.
        -12    1    3    3    0    0  0.51670702729E+01 -0.15739432760E+02 -0.52246517664E+01  0.17370243086E+02  0.00000000000E+00 0.  1.
</event>
<event>
 7    1  0.4346085E-013  0.5930212E+02  0.7816164E-02  0.1266604E+00
        -11   -1    0    0    0    0  0.00000000000E+00  0.00000000000E+00  0.45593999997E+02  0.45594000000E+02  0.51100000000E-03 0. -1.
         11   -1    0    0    0    0 -0.00000000000E+00 -0.00000000000E+00 -0.45593999997E+02  0.45594000000E+02  0.51100000000E-03 0.  1.
    9900012    2    1    2    0    0 -0.54370558887E+01  0.60631989600E+01 -0.30828321889E+02  0.59302119287E+02  0.50000319630E+02 0.  0.
         12    1    1    2    0    0  0.54370558887E+01 -0.60631989600E+01  0.30828321889E+02  0.31885880713E+02  0.00000000000E+00 0. -1.
         11    1    3    3    0    0  0.61432328619E+01 -0.17997995951E+01  0.10674499020E+02  0.12446827634E+02  0.51100000000E-03 0. -1.
        -11    1    3    3    0    0 -0.14604995158E+02  0.10286986029E+02 -0.34541575779E+02  0.38887638430E+02  0.51100000000E-03 0.  1.
         12    1    3    3    0    0  0.30247064074E+01 -0.24239874735E+01 -0.69612451296E+01  0.79676532227E+01  0.00000000000E+00 0. -1.
</event>
<event>
 7    1  0.4346085E-013  0.5930197E+02  0.7816164E-02  0.1266605E+00
        -11   -1    0    0    0    0  0.00000000000E+00  0.00000000000E+00  0.45593999997E+02  0.45594000000E+02  0.51100000000E-03 0.  1.
         11   -1    0    0    0    0 -0.00000000000E+00 -0.00000000000E+00 -0.45593999997E+02  0.45594000000E+02  0.51100000000E-03 0. -1.
    9900012    2    1    2    0    0  0.21139524674E+02 -0.20384683906E+02  0.12421921378E+02  0.59301969013E+02  0.50000045567E+02 0.  0.
         12    1    1    2    0    0 -0.21139524674E+02  0.20384683906E+02 -0.12421921378E+02  0.31886030987E+02  0.00000000000E+00 0. -1.
         11    1    3    3    0    0  0.93974242192E+01  0.56278166792E+01  0.20873269325E+01  0.11150822235E+02  0.51100000000E-03 0. -1.
        -11    1    3    3    0    0  0.25184915253E+02 -0.17349020584E+02  0.35815363442E+01  0.30791165524E+02  0.51100000000E-03 0.  1.
        -12    1    3    3    0    0 -0.13442814798E+02 -0.86634800011E+01  0.67530581011E+01  0.17359981254E+02  0.00000000000E+00 0.  1.
</event>
<event>
 7    1  0.4346085E-013  0.5930198E+02  0.7816164E-02  0.1266605E+00
        -11   -1    0    0    0    0  0.00000000000E+00  0.00000000000E+00  0.45593999997E+02  0.45594000000E+02  0.51100000000E-03 0.  1.
         11   -1    0    0    0    0 -0.00000000000E+00 -0.00000000000E+00 -0.45593999997E+02  0.45594000000E+02  0.51100000000E-03 0. -1.
    9900012    2    1    2    0    0 -0.75507194331E+01 -0.11470638257E+02  0.28777236401E+02  0.59301980480E+02  0.50000066480E+02 0.  0.
         12    1    1    2    0    0  0.75507194331E+01  0.11470638257E+02 -0.28777236401E+02  0.31886019520E+02  0.00000000000E+00 0. -1.
         11    1    3    3    0    0  0.76478140369E+01  0.11593690073E+02  0.16126218176E+02  0.21282801084E+02  0.51100000000E-03 0. -1.
        -11    1    3    3    0    0 -0.18227968115E+02 -0.18430794267E+02  0.19799249431E+01  0.25997559539E+02  0.51100000000E-03 0.  1.
        -12    1    3    3    0    0  0.30294346454E+01 -0.46335340621E+01  0.10671093281E+02  0.12021619857E+02  0.00000000000E+00 0.  1.
</event>
<event>
 7    1  0.4346085E-013  0.5930197E+02  0.7816164E-02  0.1266605E+00
        -11   -1    0    0    0    0  0.00000000000E+00  0.00000000000E+00  0.45593999997E+02  0.45594000000E+02  0.51100000000E-03 0.  1.
         11   -1    0    0    0    0 -0.00000000000E+00 -0.00000000000E+00 -0.45593999997E+02  0.45594000000E+02  0.51100000000E-03 0. -1.
    9900012    2    1    2    0    0  0.13421441046E+02  0.12604095972E+02  0.26033069849E+02  0.59301967936E+02  0.50000043603E+02 0.  0.
         12    1    1    2    0    0 -0.13421441046E+02 -0.12604095972E+02 -0.26033069849E+02  0.31886032064E+02  0.00000000000E+00 0. -1.
         11    1    3    3    0    0  0.36354240707E+01  0.48270084147E+00  0.30161112192E+02  0.30383251920E+02  0.51100000000E-03 0. -1.
        -11    1    3    3    0    0  0.16944748896E+02  0.69636121380E+01  0.16151898711E+01  0.18390901221E+02  0.51100000000E-03 0.  1.
        -12    1    3    3    0    0 -0.71587319201E+01  0.51577829922E+01 -0.57432322143E+01  0.10527814795E+02  0.00000000000E+00 0.  1.
</event>
<event>
 7    1  0.4346085E-013  0.5930193E+02  0.7816164E-02  0.1266605E+00
        -11   -1    0    0    0    0  0.00000000000E+00  0.00000000000E+00  0.45593999997E+02  0.45594000000E+02  0.51100000000E-03 0.  1.
         11   -1    0    0    0    0 -0.00000000000E+00 -0.00000000000E+00 -0.45593999997E+02  0.45594000000E+02  0.51100000000E-03 0. -1.
    9900012    2    1    2    0    0 -0.71961040809E+01 -0.26441117084E+02  0.16303532096E+02  0.59301925525E+02  0.49999966256E+02 0.  0.
         12    1    1    2    0    0  0.71961040809E+01  0.26441117084E+02 -0.16303532096E+02  0.31886074475E+02  0.00000000000E+00 0. -1.
         11    1    3    3    0    0 -0.20047839930E+02  0.29673523692E+01  0.64128263423E+01  0.21256655614E+02  0.51100000000E-03 0. -1.
        -11    1    3    3    0    0  0.78316264942E+01 -0.72810826090E+01  0.10983521775E+02  0.15329262485E+02  0.51100000000E-03 0.  1.
         12    1    3    3    0    0  0.50201093551E+01 -0.22127386845E+02 -0.10928160212E+01  0.22716007426E+02  0.00000000000E+00 0. -1.
</event>
<event>
 7    1  0.4346085E-013  0.5930195E+02  0.7816164E-02  0.1266605E+00
        -11   -1    0    0    0    0  0.00000000000E+00  0.00000000000E+00  0.45593999997E+02  0.45594000000E+02  0.51100000000E-03 0. -1.
         11   -1    0    0    0    0 -0.00000000000E+00 -0.00000000000E+00 -0.45593999997E+02  0.45594000000E+02  0.51100000000E-03 0.  1.
    9900012    2    1    2    0    0  0.92434951702E+01  0.27288408746E+02 -0.13660908342E+02  0.59301954909E+02  0.50000019845E+02 0.  0.
         12    1    1    2    0    0 -0.92434951702E+01 -0.27288408746E+02  0.13660908342E+02  0.31886045091E+02  0.00000000000E+00 0. -1.
         11    1    3    3    0    0 -0.35256482839E+01 -0.95551254665E+01 -0.20865522932E+01  0.10396360865E+02  0.51100000000E-03 0. -1.
        -11    1    3    3    0    0  0.56265224445E+01  0.36844819621E+02 -0.15936768032E+02  0.40536145146E+02  0.51100000000E-03 0.  1.
        -12    1    3    3    0    0  0.71426210096E+01 -0.12854092082E-02  0.43624119836E+01  0.83694488978E+01  0.00000000000E+00 0.  1.
</event>
<event>
 7    1  0.4346085E-013  0.5930194E+02  0.7816164E-02  0.1266605E+00
        -11   -1    0    0    0    0  0.00000000000E+00  0.00000000000E+00  0.45593999997E+02  0.45594000000E+02  0.51100000000E-03 0.  1.
         11   -1    0    0    0    0 -0.00000000000E+00 -0.00000000000E+00 -0.45593999997E+02  0.45594000000E+02  0.51100000000E-03 0. -1.
    9900012    2    1    2    0    0  0.19990668957E+02 -0.20729811364E+02 -0.13688265221E+02  0.59301944595E+02  0.50000001034E+02 0.  0.
         12    1    1    2    0    0 -0.19990668957E+02  0.20729811364E+02  0.13688265221E+02  0.31886055405E+02  0.00000000000E+00 0. -1.
         11    1    3    3    0    0 -0.11392651775E+02 -0.11747250753E+02  0.13092024205E+01  0.16416589962E+02  0.51100000000E-03 0. -1.
        -11    1    3    3    0    0  0.28948264002E+02 -0.80416624275E+01 -0.20786993543E+02  0.36534496358E+02  0.51100000000E-03 0.  1.
        -12    1    3    3    0    0  0.24350567305E+01 -0.94089818350E+00  0.57895259009E+01  0.63508582750E+01  0.00000000000E+00 0.  1.
</event>
<event>
 7    1  0.4346085E-013  0.5930191E+02  0.7816164E-02  0.1266605E+00
        -11   -1    0    0    0    0  0.00000000000E+00  0.00000000000E+00  0.45593999997E+02  0.45594000000E+02  0.51100000000E-03 0.  1.
         11   -1    0    0    0    0 -0.00000000000E+00 -0.00000000000E+00 -0.45593999997E+02  0.45594000000E+02  0.51100000000E-03 0. -1.
    9900012    2    1    2    0    0 -0.17884069046E+02 -0.17724472856E+02  0.19563383148E+02  0.59301908614E+02  0.49999935414E+02 0.  0.
         12    1    1    2    0    0  0.17884069046E+02  0.17724472856E+02 -0.19563383148E+02  0.31886091386E+02  0.00000000000E+00 0. -1.
         11    1    3    3    0    0 -0.54899901428E+01  0.85905229568E+01 -0.50387098611E+01  0.11372144642E+02  0.51100000000E-03 0. -1.
        -11    1    3    3    0    0 -0.86624203315E+01 -0.32506528676E+02  0.18071186267E+02  0.38187428637E+02  0.51100000000E-03 0.  1.
        -12    1    3    3    0    0 -0.37316585716E+01  0.61915328633E+01  0.65309067426E+01  0.97423353347E+01  0.00000000000E+00 0.  1.
</event>
<event>
 7    1  0.4346085E-013  0.5930194E+02  0.7816164E-02  0.1266605E+00
        -11   -1    0    0    0    0  0.00000000000E+00  0.00000000000E+00  0.45593999997E+02  0.45594000000E+02  0.51100000000E-03 0.  1.
         11   -1    0    0    0    0 -0.00000000000E+00 -0.00000000000E+00 -0.45593999997E+02  0.45594000000E+02  0.51100000000E-03 0. -1.
    9900012    2    1    2    0    0  0.22225114735E+02  0.11595389522E+02 -0.19705628938E+02  0.59301943565E+02  0.49999999156E+02 0.  0.
         12    1    1    2    0    0 -0.22225114735E+02 -0.11595389522E+02  0.19705628938E+02  0.31886056435E+02  0.00000000000E+00 0. -1.
         11    1    3    3    0    0  0.17811818831E+02  0.15242888975E+02 -0.13687140441E+02  0.27146719288E+02  0.51100000000E-03 0. -1.
        -11    1    3    3    0    0 -0.12265298683E+02 -0.73641020298E+01 -0.45139390919E+01  0.15001439826E+02  0.51100000000E-03 0.  1.
        -12    1    3    3    0    0  0.16678594586E+02  0.37166025776E+01 -0.15045494053E+01  0.17153784451E+02  0.00000000000E+00 0.  1.
</event>
<event>
 7    1  0.4346085E-013  0.5930197E+02  0.7816164E-02  0.1266605E+00
        -11   -1    0    0    0    0  0.00000000000E+00  0.00000000000E+00  0.45593999997E+02  0.45594000000E+02  0.51100000000E-03 0.  1.
         11   -1    0    0    0    0 -0.00000000000E+00 -0.00000000000E+00 -0.45593999997E+02  0.45594000000E+02  0.51100000000E-03 0. -1.
    9900012    2    1    2    0    0  0.23922653978E+02 -0.19003494642E+02  0.91264945482E+01  0.59301967247E+02  0.50000042346E+02 0.  0.
         12    1    1    2    0    0 -0.23922653978E+02  0.19003494642E+02 -0.91264945482E+01  0.31886032753E+02  0.00000000000E+00 0. -1.
         11    1    3    3    0    0  0.36136853838E+01  0.18065704344E+01  0.60571344453E+01  0.72808857111E+01  0.51100000000E-03 0. -1.
        -11    1    3    3    0    0  0.12480382256E+01 -0.27702354358E+02 -0.80859690364E+01  0.28885306505E+02  0.51100000000E-03 0.  1.
        -12    1    3    3    0    0  0.19060930369E+02  0.68922892812E+01  0.11155329139E+02  0.23135775031E+02  0.00000000000E+00 0.  1.
</event>
<event>
 7    1  0.4346085E-013  0.5930196E+02  0.7816164E-02  0.1266605E+00
        -11   -1    0    0    0    0  0.00000000000E+00  0.00000000000E+00  0.45593999997E+02  0.45594000000E+02  0.51100000000E-03 0. -1.
         11   -1    0    0    0    0 -0.00000000000E+00 -0.00000000000E+00 -0.45593999997E+02  0.45594000000E+02  0.51100000000E-03 0.  1.
    9900012    2    1    2    0    0 -0.12132122024E+02 -0.47282040196E+01 -0.29106269762E+02  0.59301964851E+02  0.50000037976E+02 0.  0.
         12    1    1    2    0    0  0.12132122024E+02  0.47282040196E+01  0.29106269762E+02  0.31886035149E+02  0.00000000000E+00 0. -1.
         11    1    3    3    0    0 -0.12017862489E+02  0.17148841484E+02 -0.27295767690E+02  0.34403062612E+02  0.51100000000E-03 0. -1.
        -11    1    3    3    0    0 -0.24629137668E+01 -0.83375642538E+01 -0.59645279189E+01  0.10543079032E+02  0.51100000000E-03 0.  1.
         12    1    3    3    0    0  0.23486542322E+01 -0.13539481250E+02  0.41540258463E+01  0.14355823207E+02  0.00000000000E+00 0. -1.
</event>
<event>
 7    1  0.4346085E-013  0.5930195E+02  0.7816164E-02  0.1266605E+00
        -11   -1    0    0    0    0  0.00000000000E+00  0.00000000000E+00  0.45593999997E+02  0.45594000000E+02  0.51100000000E-03 0.  1.
         11   -1    0    0    0    0 -0.00000000000E+00 -0.00000000000E+00 -0.45593999997E+02  0.45594000000E+02  0.51100000000E-03 0. -1.
    9900012    2    1    2    0    0 -0.17427383100E+02  0.12667203960E+02  0.23506347422E+02  0.59301951217E+02  0.50000013111E+02 0.  0.
         12    1    1    2    0    0  0.17427383100E+02 -0.12667203960E+02 -0.23506347422E+02  0.31886048783E+02  0.00000000000E+00 0. -1.
         11    1    3    3    0    0 -0.67042263604E+01 -0.14433105942E+02 -0.62253441405E+01  0.17088478813E+02  0.51100000000E-03 0. -1.
        -11    1    3    3    0    0 -0.36096914295E+01  0.66894870543E+01  0.12237543441E+02  0.14406129911E+02  0.51100000000E-03 0.  1.
         12    1    3    3    0    0 -0.71134653104E+01  0.20410822847E+02  0.17494148122E+02  0.27807342493E+02  0.00000000000E+00 0. -1.
</event>
<event>
 7    1  0.4346085E-013  0.5930199E+02  0.7816164E-02  0.1266605E+00
        -11   -1    0    0    0    0  0.00000000000E+00  0.00000000000E+00  0.45593999997E+02  0.45594000000E+02  0.51100000000E-03 0.  1.
         11   -1    0    0    0    0 -0.00000000000E+00 -0.00000000000E+00 -0.45593999997E+02  0.45594000000E+02  0.51100000000E-03 0. -1.
    9900012    2    1    2    0    0 -0.30970413709E+02 -0.41231978728E+01 -0.63679394996E+01  0.59301985205E+02  0.50000075098E+02 0.  0.
         12    1    1    2    0    0  0.30970413709E+02  0.41231978728E+01  0.63679394996E+01  0.31886014795E+02  0.00000000000E+00 0. -1.
         11    1    3    3    0    0 -0.13698084665E+02 -0.12181202675E+02 -0.13061287402E+02  0.22508141882E+02  0.51100000000E-03 0. -1.
        -11    1    3    3    0    0  0.87177956814E+01  0.20592447941E+01  0.45160284388E+01  0.10031697951E+02  0.51100000000E-03 0.  1.
        -12    1    3    3    0    0 -0.25990124725E+02  0.59987600084E+01  0.21773194635E+01  0.26762145372E+02  0.00000000000E+00 0.  1.
</event>
<event>
 7    1  0.4346085E-013  0.5930196E+02  0.7816164E-02  0.1266605E+00
        -11   -1    0    0    0    0  0.00000000000E+00  0.00000000000E+00  0.45593999997E+02  0.45594000000E+02  0.51100000000E-03 0. -1.
         11   -1    0    0    0    0 -0.00000000000E+00 -0.00000000000E+00 -0.45593999997E+02  0.45594000000E+02  0.51100000000E-03 0.  1.
    9900012    2    1    2    0    0  0.99627216276E+00  0.11749220550E+02 -0.29625714237E+02  0.59301957821E+02  0.50000025156E+02 0.  0.
         12    1    1    2    0    0 -0.99627216276E+00 -0.11749220550E+02  0.29625714237E+02  0.31886042179E+02  0.00000000000E+00 0. -1.
         11    1    3    3    0    0 -0.78412477556E+01 -0.11306258709E+02  0.35488378989E+00  0.13763814701E+02  0.51100000000E-03 0. -1.
        -11    1    3    3    0    0  0.75037378549E+01  0.21233739136E+01 -0.21576515515E+02  0.22942554797E+02  0.51100000000E-03 0.  1.
         12    1    3    3    0    0  0.13337820635E+01  0.20932105346E+02 -0.84040825119E+01  0.22595588323E+02  0.00000000000E+00 0. -1.
</event>
<event>
 7    1  0.4346085E-013  0.5930191E+02  0.7816164E-02  0.1266605E+00
        -11   -1    0    0    0    0  0.00000000000E+00  0.00000000000E+00  0.45593999997E+02  0.45594000000E+02  0.51100000000E-03 0. -1.
         11   -1    0    0    0    0 -0.00000000000E+00 -0.00000000000E+00 -0.45593999997E+02  0.45594000000E+02  0.51100000000E-03 0.  1.
    9900012    2    1    2    0    0  0.48828208361E+01  0.98619928882E+01 -0.29926942863E+02  0.59301909738E+02  0.49999937464E+02 0.  0.
         12    1    1    2    0    0 -0.48828208361E+01 -0.98619928882E+01  0.29926942863E+02  0.31886090262E+02  0.00000000000E+00 0. -1.
         11    1    3    3    0    0  0.19985368360E+01  0.25886193851E+02 -0.22350314255E+02  0.34258221336E+02  0.51100000000E-03 0. -1.
        -11    1    3    3    0    0 -0.69093098743E+01 -0.46094188611E+01 -0.23963171259E+00  0.83091954361E+01  0.51100000000E-03 0.  1.
         12    1    3    3    0    0  0.97935938743E+01 -0.11414782101E+02 -0.73369968956E+01  0.16734492966E+02  0.00000000000E+00 0. -1.
</event>
<event>
 7    1  0.4346085E-013  0.5930199E+02  0.7816164E-02  0.1266605E+00
        -11   -1    0    0    0    0  0.00000000000E+00  0.00000000000E+00  0.45593999997E+02  0.45594000000E+02  0.51100000000E-03 0.  1.
         11   -1    0    0    0    0 -0.00000000000E+00 -0.00000000000E+00 -0.45593999997E+02  0.45594000000E+02  0.51100000000E-03 0. -1.
    9900012    2    1    2    0    0 -0.18019419136E+02 -0.13933283078E+02  0.22313261043E+02  0.59301992697E+02  0.50000088761E+02 0.  0.
         12    1    1    2    0    0  0.18019419136E+02  0.13933283078E+02 -0.22313261043E+02  0.31886007303E+02  0.00000000000E+00 0. -1.
         11    1    3    3    0    0 -0.12268477943E+02 -0.23557817064E+02 -0.37790652199E+01  0.26828485422E+02  0.51100000000E-03 0. -1.
        -11    1    3    3    0    0  0.32828710777E+01  0.45579704863E+01  0.15378020582E+01  0.58238451987E+01  0.51100000000E-03 0.  1.
         12    1    3    3    0    0 -0.90338122716E+01  0.50665635001E+01  0.24554524205E+02  0.26649662076E+02  0.00000000000E+00 0. -1.
</event>
<event>
 7    1  0.4346085E-013  0.5930191E+02  0.7816164E-02  0.1266605E+00
        -11   -1    0    0    0    0  0.00000000000E+00  0.00000000000E+00  0.45593999997E+02  0.45594000000E+02  0.51100000000E-03 0.  1.
         11   -1    0    0    0    0 -0.00000000000E+00 -0.00000000000E+00 -0.45593999997E+02  0.45594000000E+02  0.51100000000E-03 0. -1.
    9900012    2    1    2    0    0  0.28789298703E+02 -0.13695187142E+02 -0.58406372842E+00  0.59301905835E+02  0.49999930346E+02 0.  0.
         12    1    1    2    0    0 -0.28789298703E+02  0.13695187142E+02  0.58406372842E+00  0.31886094165E+02  0.00000000000E+00 0. -1.
         11    1    3    3    0    0  0.27082183321E+02 -0.14023044847E+02  0.16740587205E+01  0.30543295714E+02  0.51100000000E-03 0. -1.
        -11    1    3    3    0    0  0.85194129236E+01  0.12241596415E+02 -0.18505264249E+01  0.15028690152E+02  0.51100000000E-03 0.  1.
         12    1    3    3    0    0 -0.68122975422E+01 -0.11913738710E+02 -0.40759602409E+00  0.13729919970E+02  0.00000000000E+00 0. -1.
</event>
<event>
 7    1  0.4346085E-013  0.5930193E+02  0.7816164E-02  0.1266605E+00
        -11   -1    0    0    0    0  0.00000000000E+00  0.00000000000E+00  0.45593999997E+02  0.45594000000E+02  0.51100000000E-03 0. -1.
         11   -1    0    0    0    0 -0.00000000000E+00 -0.00000000000E+00 -0.45593999997E+02  0.45594000000E+02  0.51100000000E-03 0.  1.
    9900012    2    1    2    0    0  0.27850041030E+01  0.31382666543E+02 -0.49084959474E+01  0.59301931888E+02  0.49999977859E+02 0.  0.
         12    1    1    2    0    0 -0.27850041030E+01 -0.31382666543E+02  0.49084959474E+01  0.31886068112E+02  0.00000000000E+00 0. -1.
         11    1    3    3    0    0 -0.50479600982E+01  0.50699908332E+01  0.59415294167E+01  0.92999182939E+01  0.51100000000E-03 0. -1.
        -11    1    3    3    0    0  0.19352668726E+02 -0.76493223736E+00 -0.36681203606E+01  0.19712077906E+02  0.51100000000E-03 0.  1.
        -12    1    3    3    0    0 -0.11519704524E+02  0.27077607947E+02 -0.71819050035E+01  0.30289935688E+02  0.00000000000E+00 0.  1.
</event>
<event>
 7    1  0.4346085E-013  0.5930193E+02  0.7816164E-02  0.1266605E+00
        -11   -1    0    0    0    0  0.00000000000E+00  0.00000000000E+00  0.45593999997E+02  0.45594000000E+02  0.51100000000E-03 0.  1.
         11   -1    0    0    0    0 -0.00000000000E+00 -0.00000000000E+00 -0.45593999997E+02  0.45594000000E+02  0.51100000000E-03 0. -1.
    9900012    2    1    2    0    0 -0.24891244678E+02  0.12377902487E+02  0.15618413793E+02  0.59301931239E+02  0.49999976677E+02 0.  0.
         12    1    1    2    0    0  0.24891244678E+02 -0.12377902487E+02 -0.15618413793E+02  0.31886068761E+02  0.00000000000E+00 0. -1.
         11    1    3    3    0    0 -0.28419953672E+01  0.25588669640E+01 -0.13012204261E+02  0.13562529181E+02  0.51100000000E-03 0. -1.
        -11    1    3    3    0    0 -0.25494457544E+02  0.26363746894E+01  0.14316257854E+02  0.29357674911E+02  0.51100000000E-03 0.  1.
        -12    1    3    3    0    0  0.34452082331E+01  0.71826608338E+01  0.14314360199E+02  0.16381727148E+02  0.00000000000E+00 0.  1.
</event>
<event>
 7    1  0.4346085E-013  0.5930197E+02  0.7816164E-02  0.1266605E+00
        -11   -1    0    0    0    0  0.00000000000E+00  0.00000000000E+00  0.45593999997E+02  0.45594000000E+02  0.51100000000E-03 0.  1.
         11   -1    0    0    0    0 -0.00000000000E+00 -0.00000000000E+00 -0.45593999997E+02  0.45594000000E+02  0.51100000000E-03 0. -1.
    9900012    2    1    2    0    0  0.19828743086E+02 -0.24969922372E+02 -0.20627928120E+00  0.59301974428E+02  0.50000055443E+02 0.  0.
         12    1    1    2    0    0 -0.19828743086E+02  0.24969922372E+02  0.20627928120E+00  0.31886025572E+02  0.00000000000E+00 0. -1.
         11    1    3    3    0    0  0.20754846150E+02 -0.16256916472E+02  0.17424157845E+02  0.31601459599E+02  0.51100000000E-03 0. -1.
        -11    1    3    3    0    0  0.31953750266E+01 -0.14146901416E+02 -0.11167568543E+02  0.18304639540E+02  0.51100000000E-03 0.  1.
         12    1    3    3    0    0 -0.41214780906E+01  0.54338955171E+01 -0.64628685833E+01  0.93958752901E+01  0.00000000000E+00 0. -1.
</event>
<event>
 7    1  0.4346085E-013  0.5930193E+02  0.7816164E-02  0.1266605E+00
        -11   -1    0    0    0    0  0.00000000000E+00  0.00000000000E+00  0.45593999997E+02  0.45594000000E+02  0.51100000000E-03 0.  1.
         11   -1    0    0    0    0 -0.00000000000E+00 -0.00000000000E+00 -0.45593999997E+02  0.45594000000E+02  0.51100000000E-03 0. -1.
    9900012    2    1    2    0    0 -0.58725910491E+01  0.14332828135E+02  0.27871203023E+02  0.59301933357E+02  0.49999980540E+02 0.  0.
         12    1    1    2    0    0  0.58725910491E+01 -0.14332828135E+02 -0.27871203023E+02  0.31886066643E+02  0.00000000000E+00 0. -1.
         11    1    3    3    0    0 -0.22118017227E+02  0.15450609335E+02  0.70122972952E+01  0.27876519304E+02  0.51100000000E-03 0. -1.
        -11    1    3    3    0    0  0.26256386068E+01 -0.39560089827E+01 -0.15967138918E+01  0.50093393455E+01  0.51100000000E-03 0.  1.
         12    1    3    3    0    0  0.13619787572E+02  0.28382277822E+01  0.22455619620E+02  0.26416074707E+02  0.00000000000E+00 0. -1.
</event>
<event>
 7    1  0.4346085E-013  0.5930193E+02  0.7816164E-02  0.1266605E+00
        -11   -1    0    0    0    0  0.00000000000E+00  0.00000000000E+00  0.45593999997E+02  0.45594000000E+02  0.51100000000E-03 0. -1.
         11   -1    0    0    0    0 -0.00000000000E+00 -0.00000000000E+00 -0.45593999997E+02  0.45594000000E+02  0.51100000000E-03 0.  1.
    9900012    2    1    2    0    0  0.27315413084E+02 -0.15728557150E+02 -0.48168927017E+01  0.59301925340E+02  0.49999965918E+02 0.  0.
         12    1    1    2    0    0 -0.27315413084E+02  0.15728557150E+02  0.48168927017E+01  0.31886074660E+02  0.00000000000E+00 0. -1.
         11    1    3    3    0    0  0.14287880357E+01  0.11420249213E+02 -0.66875867914E+00  0.11528693151E+02  0.51100000000E-03 0. -1.
        -11    1    3    3    0    0  0.23396749913E+02 -0.26215503790E+02  0.74122091871E+01  0.35911020463E+02  0.51100000000E-03 0.  1.
        -12    1    3    3    0    0  0.24898751353E+01 -0.93330257309E+00 -0.11560343210E+02  0.11862211725E+02  0.00000000000E+00 0.  1.
</event>
<event>
 7    1  0.4346085E-013  0.5930194E+02  0.7816164E-02  0.1266605E+00
        -11   -1    0    0    0    0  0.00000000000E+00  0.00000000000E+00  0.45593999997E+02  0.45594000000E+02  0.51100000000E-03 0.  1.
         11   -1    0    0    0    0 -0.00000000000E+00 -0.00000000000E+00 -0.45593999997E+02  0.45594000000E+02  0.51100000000E-03 0. -1.
    9900012    2    1    2    0    0 -0.92409983281E+01 -0.19822236877E+02  0.23203531928E+02  0.59301936919E+02  0.49999987035E+02 0.  0.
         12    1    1    2    0    0  0.92409983281E+01  0.19822236877E+02 -0.23203531928E+02  0.31886063081E+02  0.00000000000E+00 0. -1.
         11    1    3    3    0    0  0.55974480958E+01 -0.99763428321E+01 -0.72422662719E+01  0.13539175104E+02  0.51100000000E-03 0. -1.
        -11    1    3    3    0    0 -0.70707576428E+01 -0.96447353943E+01  0.34840484126E+02  0.36835796026E+02  0.51100000000E-03 0.  1.
         12    1    3    3    0    0 -0.77676887811E+01 -0.20115865036E+00 -0.43946859265E+01  0.89269657889E+01  0.00000000000E+00 0. -1.
</event>
<event>
 7    1  0.4346085E-013  0.5930197E+02  0.7816164E-02  0.1266605E+00
        -11   -1    0    0    0    0  0.00000000000E+00  0.00000000000E+00  0.45593999997E+02  0.45594000000E+02  0.51100000000E-03 0. -1.
         11   -1    0    0    0    0 -0.00000000000E+00 -0.00000000000E+00 -0.45593999997E+02  0.45594000000E+02  0.51100000000E-03 0.  1.
    9900012    2    1    2    0    0 -0.27740187342E+02 -0.14187154866E+02  0.67768447716E+01  0.59301968857E+02  0.50000045283E+02 0.  0.
         12    1    1    2    0    0  0.27740187342E+02  0.14187154866E+02 -0.67768447716E+01  0.31886031143E+02  0.00000000000E+00 0. -1.
         11    1    3    3    0    0  0.87174881241E+01  0.43624880812E+01  0.56344811086E+01  0.11259364062E+02  0.51100000000E-03 0. -1.
        -11    1    3    3    0    0 -0.30681984911E+02 -0.47747985895E+01 -0.57719221147E+01  0.31583191492E+02  0.51100000000E-03 0.  1.
        -12    1    3    3    0    0 -0.57756905557E+01 -0.13774844358E+02  0.69142857776E+01  0.16459413304E+02  0.00000000000E+00 0.  1.
</event>
<event>
 7    1  0.4346085E-013  0.5930194E+02  0.7816164E-02  0.1266605E+00
        -11   -1    0    0    0    0  0.00000000000E+00  0.00000000000E+00  0.45593999997E+02  0.45594000000E+02  0.51100000000E-03 0. -1.
         11   -1    0    0    0    0 -0.00000000000E+00 -0.00000000000E+00 -0.45593999997E+02  0.45594000000E+02  0.51100000000E-03 0.  1.
    9900012    2    1    2    0    0 -0.26296673077E+01  0.13049676264E+02 -0.28974326838E+02  0.59301940092E+02  0.49999992822E+02 0.  0.
         12    1    1    2    0    0  0.26296673077E+01 -0.13049676264E+02  0.28974326838E+02  0.31886059908E+02  0.00000000000E+00 0. -1.
         11    1    3    3    0    0 -0.17784841677E+02  0.40994275060E+01 -0.19195937440E+02  0.26487542616E+02  0.51100000000E-03 0.  1.
        -11    1    3    3    0    0  0.16986306966E+02  0.14872687435E+02 -0.12762176668E+02  0.25934621830E+02  0.51100000000E-03 0. -1.
         12    1    3    3    0    0 -0.18311325972E+01 -0.59224386772E+01  0.29837872696E+01  0.68797756463E+01  0.00000000000E+00 0. -1.
</event>
<event>
 7    1  0.4346085E-013  0.5930195E+02  0.7816164E-02  0.1266605E+00
        -11   -1    0    0    0    0  0.00000000000E+00  0.00000000000E+00  0.45593999997E+02  0.45594000000E+02  0.51100000000E-03 0. -1.
         11   -1    0    0    0    0 -0.00000000000E+00 -0.00000000000E+00 -0.45593999997E+02  0.45594000000E+02  0.51100000000E-03 0.  1.
    9900012    2    1    2    0    0 -0.21755677630E+02  0.19805219028E+02  0.12294882445E+02  0.59301947497E+02  0.50000006327E+02 0.  0.
         12    1    1    2    0    0  0.21755677630E+02 -0.19805219028E+02 -0.12294882445E+02  0.31886052503E+02  0.00000000000E+00 0. -1.
         11    1    3    3    0    0 -0.10189444080E+02  0.30502702499E+02  0.12368173460E+02  0.34455933384E+02  0.51100000000E-03 0. -1.
        -11    1    3    3    0    0  0.53279890508E+01 -0.39484685041E+01  0.44208588311E+00  0.66463005531E+01  0.51100000000E-03 0.  1.
         12    1    3    3    0    0 -0.16894222601E+02 -0.67490149672E+01 -0.51537689731E+00  0.18199713560E+02  0.00000000000E+00 0. -1.
</event>
<event>
 7    1  0.4346085E-013  0.5930194E+02  0.7816164E-02  0.1266605E+00
        -11   -1    0    0    0    0  0.00000000000E+00  0.00000000000E+00  0.45593999997E+02  0.45594000000E+02  0.51100000000E-03 0. -1.
         11   -1    0    0    0    0 -0.00000000000E+00 -0.00000000000E+00 -0.45593999997E+02  0.45594000000E+02  0.51100000000E-03 0.  1.
    9900012    2    1    2    0    0  0.11378740485E+02 -0.71617417243E+01 -0.28912882317E+02  0.59301936533E+02  0.49999986331E+02 0.  0.
         12    1    1    2    0    0 -0.11378740485E+02  0.71617417243E+01  0.28912882317E+02  0.31886063467E+02  0.00000000000E+00 0. -1.
         11    1    3    3    0    0  0.22138615728E+02  0.85039127243E+01 -0.15080339077E+02  0.28104296200E+02  0.51100000000E-03 0.  1.
        -11    1    3    3    0    0 -0.12520540068E+01 -0.16568387745E+02 -0.13874869992E+02  0.21646965821E+02  0.51100000000E-03 0. -1.
        -12    1    3    3    0    0 -0.95078212361E+01  0.90273329612E+00  0.42326751871E-01  0.95506745110E+01  0.00000000000E+00 0.  1.
</event>
<event>
 7    1  0.4346085E-013  0.5930194E+02  0.7816164E-02  0.1266605E+00
        -11   -1    0    0    0    0  0.00000000000E+00  0.00000000000E+00  0.45593999997E+02  0.45594000000E+02  0.51100000000E-03 0. -1.
         11   -1    0    0    0    0 -0.00000000000E+00 -0.00000000000E+00 -0.45593999997E+02  0.45594000000E+02  0.51100000000E-03 0.  1.
    9900012    2    1    2    0    0 -0.21515472889E+01  0.47193307676E+01 -0.31461395407E+02  0.59301942865E+02  0.49999997880E+02 0.  0.
         12    1    1    2    0    0  0.21515472889E+01 -0.47193307676E+01  0.31461395407E+02  0.31886057135E+02  0.00000000000E+00 0. -1.
         11    1    3    3    0    0 -0.63624632612E+01 -0.15316510638E+02 -0.12124834138E+02  0.20544781333E+02  0.51100000000E-03 0. -1.
        -11    1    3    3    0    0 -0.18606496001E+01  0.24644304679E+02 -0.18916850611E+02  0.31123158698E+02  0.51100000000E-03 0.  1.
        -12    1    3    3    0    0  0.60715655724E+01 -0.46084632732E+01 -0.41971065874E+00  0.76340028345E+01  0.00000000000E+00 0.  1.
</event>
<event>
 7    1  0.4346085E-013  0.5930191E+02  0.7816164E-02  0.1266605E+00
        -11   -1    0    0    0    0  0.00000000000E+00  0.00000000000E+00  0.45593999997E+02  0.45594000000E+02  0.51100000000E-03 0.  1.
         11   -1    0    0    0    0 -0.00000000000E+00 -0.00000000000E+00 -0.45593999997E+02  0.45594000000E+02  0.51100000000E-03 0. -1.
    9900012    2    1    2    0    0  0.17521802745E+01  0.29129615340E+02  0.12849830473E+02  0.59301909478E+02  0.49999936990E+02 0.  0.
         12    1    1    2    0    0 -0.17521802745E+01 -0.29129615340E+02 -0.12849830473E+02  0.31886090522E+02  0.00000000000E+00 0. -1.
         11    1    3    3    0    0 -0.11363875899E+02  0.31748586815E+02  0.12388349820E+02  0.35924666341E+02  0.51100000000E-03 0.  1.
        -11    1    3    3    0    0  0.65580294215E+01 -0.37093569315E+01 -0.90480585670E+01  0.11774312839E+02  0.51100000000E-03 0. -1.
        -12    1    3    3    0    0  0.65580267522E+01  0.10903854568E+01  0.95095392200E+01  0.11602930298E+02  0.00000000000E+00 0.  1.
</event>
<event>
 7    1  0.4346085E-013  0.5930187E+02  0.7816164E-02  0.1266605E+00
        -11   -1    0    0    0    0  0.00000000000E+00  0.00000000000E+00  0.45593999997E+02  0.45594000000E+02  0.51100000000E-03 0.  1.
         11   -1    0    0    0    0 -0.00000000000E+00 -0.00000000000E+00 -0.45593999997E+02  0.45594000000E+02  0.51100000000E-03 0. -1.
    9900012    2    1    2    0    0 -0.20074091928E+02 -0.24622004383E+02  0.27409828099E+01  0.59301870519E+02  0.49999865937E+02 0.  0.
         12    1    1    2    0    0  0.20074091928E+02  0.24622004383E+02 -0.27409828099E+01  0.31886129481E+02  0.00000000000E+00 0. -1.
         11    1    3    3    0    0 -0.20523281106E+02 -0.59558007288E+00  0.64274687715E+01  0.21514463462E+02  0.51100000000E-03 0. -1.
        -11    1    3    3    0    0  0.59492725098E+01 -0.28759451731E+02  0.57195712474E+00  0.29373917725E+02  0.51100000000E-03 0.  1.
        -12    1    3    3    0    0 -0.55000833311E+01  0.47330274215E+01 -0.42584430863E+01  0.84134893321E+01  0.00000000000E+00 0.  1.
</event>
<event>
 7    1  0.4346085E-013  0.5930189E+02  0.7816164E-02  0.1266605E+00
        -11   -1    0    0    0    0  0.00000000000E+00  0.00000000000E+00  0.45593999997E+02  0.45594000000E+02  0.51100000000E-03 0. -1.
         11   -1    0    0    0    0 -0.00000000000E+00 -0.00000000000E+00 -0.45593999997E+02  0.45594000000E+02  0.51100000000E-03 0.  1.
    9900012    2    1    2    0    0 -0.22337815477E+02  0.22493869129E+02 -0.34310430505E+01  0.59301886956E+02  0.49999895914E+02 0.  0.
         12    1    1    2    0    0  0.22337815477E+02 -0.22493869129E+02  0.34310430505E+01  0.31886113044E+02  0.00000000000E+00 0. -1.
         11    1    3    3    0    0  0.14179369094E+01  0.19176210390E+02  0.18689981121E+01  0.19319180733E+02  0.51100000000E-03 0. -1.
        -11    1    3    3    0    0 -0.48528064223E+00 -0.11683896174E+02  0.46010445101E+00  0.11703017708E+02  0.51100000000E-03 0.  1.
        -12    1    3    3    0    0 -0.23270471744E+02  0.15001554913E+02 -0.57601456136E+01  0.28279688515E+02  0.00000000000E+00 0.  1.
</event>
<event>
 7    1  0.4346085E-013  0.5930201E+02  0.7816164E-02  0.1266605E+00
        -11   -1    0    0    0    0  0.00000000000E+00  0.00000000000E+00  0.45593999997E+02  0.45594000000E+02  0.51100000000E-03 0.  1.
         11   -1    0    0    0    0 -0.00000000000E+00 -0.00000000000E+00 -0.45593999997E+02  0.45594000000E+02  0.51100000000E-03 0. -1.
    9900012    2    1    2    0    0 -0.25440960872E+02 -0.90514050395E+01  0.16957186518E+02  0.59302006243E+02  0.50000113466E+02 0.  0.
         12    1    1    2    0    0  0.25440960872E+02  0.90514050395E+01 -0.16957186518E+02  0.31885993757E+02  0.00000000000E+00 0. -1.
         11    1    3    3    0    0 -0.30893876313E+02 -0.13872000760E+02  0.83864351584E+01  0.34888340368E+02  0.51100000000E-03 0. -1.
        -11    1    3    3    0    0  0.38477186380E+00  0.53688150356E+01  0.15157412833E+02  0.16084756396E+02  0.51100000000E-03 0.  1.
         12    1    3    3    0    0  0.50681435777E+01 -0.54821931542E+00 -0.65866614734E+01  0.83289094789E+01  0.00000000000E+00 0. -1.
</event>
<event>
 7    1  0.4346085E-013  0.5930194E+02  0.7816164E-02  0.1266605E+00
        -11   -1    0    0    0    0  0.00000000000E+00  0.00000000000E+00  0.45593999997E+02  0.45594000000E+02  0.51100000000E-03 0.  1.
         11   -1    0    0    0    0 -0.00000000000E+00 -0.00000000000E+00 -0.45593999997E+02  0.45594000000E+02  0.51100000000E-03 0. -1.
    9900012    2    1    2    0    0  0.23576178370E+02 -0.21385928498E+02 -0.18780082161E+01  0.59301936600E+02  0.49999986454E+02 0.  0.
         12    1    1    2    0    0 -0.23576178370E+02  0.21385928498E+02  0.18780082161E+01  0.31886063400E+02  0.00000000000E+00 0. -1.
         11    1    3    3    0    0 -0.12654333975E+01 -0.23402867734E+02 -0.19368475995E+01  0.23516949606E+02  0.51100000000E-03 0. -1.
        -11    1    3    3    0    0  0.54013779138E+01  0.12390893581E+02 -0.19571488568E+01  0.13657948565E+02  0.51100000000E-03 0.  1.
         12    1    3    3    0    0  0.19440233854E+02 -0.10373954345E+02  0.20159882401E+01  0.22127038429E+02  0.00000000000E+00 0. -1.
</event>
<event>
 7    1  0.4346085E-013  0.5930194E+02  0.7816164E-02  0.1266605E+00
        -11   -1    0    0    0    0  0.00000000000E+00  0.00000000000E+00  0.45593999997E+02  0.45594000000E+02  0.51100000000E-03 0. -1.
         11   -1    0    0    0    0 -0.00000000000E+00 -0.00000000000E+00 -0.45593999997E+02  0.45594000000E+02  0.51100000000E-03 0.  1.
    9900012    2    1    2    0    0 -0.25582759780E+02 -0.77726039644E+01 -0.17373254541E+02  0.59301938097E+02  0.49999989184E+02 0.  0.
         12    1    1    2    0    0  0.25582759780E+02  0.77726039644E+01  0.17373254541E+02  0.31886061903E+02  0.00000000000E+00 0. -1.
         11    1    3    3    0    0  0.13514117520E+02 -0.22138156077E+01 -0.60167090215E+01  0.14957711710E+02  0.51100000000E-03 0. -1.
        -11    1    3    3    0    0 -0.35418831117E+02 -0.10030957763E+02 -0.80695795855E+01  0.37685963253E+02  0.51100000000E-03 0.  1.
        -12    1    3    3    0    0 -0.36780461828E+01  0.44721694063E+01 -0.32869659336E+01  0.66582631347E+01  0.00000000000E+00 0.  1.
</event>
<event>
 7    1  0.4346085E-013  0.5930227E+02  0.7816164E-02  0.1266604E+00
        -11   -1    0    0    0    0  0.00000000000E+00  0.00000000000E+00  0.45593999997E+02  0.45594000000E+02  0.51100000000E-03 0.  1.
         11   -1    0    0    0    0 -0.00000000000E+00 -0.00000000000E+00 -0.45593999997E+02  0.45594000000E+02  0.51100000000E-03 0. -1.
    9900012    2    1    2    0    0 -0.29620090187E+02 -0.10948667401E+02  0.44132730216E+01  0.59302265897E+02  0.50000587008E+02 0.  0.
         12    1    1    2    0    0  0.29620090187E+02  0.10948667401E+02 -0.44132730216E+01  0.31885734103E+02  0.00000000000E+00 0. -1.
         11    1    3    3    0    0 -0.35542340383E+02 -0.19833926504E+02 -0.54098961211E+01  0.41059829235E+02  0.51100000000E-03 0. -1.
        -11    1    3    3    0    0 -0.10144151361E+01  0.49942928404E+01  0.88730691109E+01  0.10232465722E+02  0.51100000000E-03 0.  1.
         12    1    3    3    0    0  0.69366653320E+01  0.38909662634E+01  0.95010003180E+00  0.80099709401E+01  0.00000000000E+00 0. -1.
</event>
<event>
 7    1  0.4346085E-013  0.5930201E+02  0.7816164E-02  0.1266605E+00
        -11   -1    0    0    0    0  0.00000000000E+00  0.00000000000E+00  0.45593999997E+02  0.45594000000E+02  0.51100000000E-03 0. -1.
         11   -1    0    0    0    0 -0.00000000000E+00 -0.00000000000E+00 -0.45593999997E+02  0.45594000000E+02  0.51100000000E-03 0.  1.
    9900012    2    1    2    0    0  0.27023117805E+02 -0.90584429409E+01  0.14297285352E+02  0.59302005380E+02  0.50000111893E+02 0.  0.
         12    1    1    2    0    0 -0.27023117805E+02  0.90584429409E+01 -0.14297285352E+02  0.31885994620E+02  0.00000000000E+00 0. -1.
         11    1    3    3    0    0  0.17737657694E+02 -0.19726994620E+01  0.18861392352E+02  0.25966674130E+02  0.51100000000E-03 0. -1.
        -11    1    3    3    0    0  0.39653179574E+01  0.62114508808E+00 -0.17169254077E+02  0.17632153968E+02  0.51100000000E-03 0.  1.
        -12    1    3    3    0    0  0.53201421535E+01 -0.77068885670E+01  0.12605147078E+02  0.15703177283E+02  0.00000000000E+00 0.  1.
</event>
<event>
 7    1  0.4346085E-013  0.5930195E+02  0.7816164E-02  0.1266605E+00
        -11   -1    0    0    0    0  0.00000000000E+00  0.00000000000E+00  0.45593999997E+02  0.45594000000E+02  0.51100000000E-03 0.  1.
         11   -1    0    0    0    0 -0.00000000000E+00 -0.00000000000E+00 -0.45593999997E+02  0.45594000000E+02  0.51100000000E-03 0. -1.
    9900012    2    1    2    0    0 -0.25633995675E+02  0.16013578142E+02  0.10157944924E+02  0.59301948751E+02  0.50000008613E+02 0.  0.
         12    1    1    2    0    0  0.25633995675E+02 -0.16013578142E+02 -0.10157944924E+02  0.31886051249E+02  0.00000000000E+00 0. -1.
         11    1    3    3    0    0  0.50214058100E+01  0.82785832572E+00 -0.87865975040E+01  0.10154021946E+02  0.51100000000E-03 0. -1.
        -11    1    3    3    0    0 -0.36534364192E+02  0.13380631516E+02  0.14343018210E+02  0.41467134436E+02  0.51100000000E-03 0.  1.
        -12    1    3    3    0    0  0.58789627069E+01  0.18050883000E+01  0.46015242184E+01  0.76807923688E+01  0.00000000000E+00 0.  1.
</event>
<event>
 7    1  0.4346085E-013  0.5930193E+02  0.7816164E-02  0.1266605E+00
        -11   -1    0    0    0    0  0.00000000000E+00  0.00000000000E+00  0.45593999997E+02  0.45594000000E+02  0.51100000000E-03 0. -1.
         11   -1    0    0    0    0 -0.00000000000E+00 -0.00000000000E+00 -0.45593999997E+02  0.45594000000E+02  0.51100000000E-03 0.  1.
    9900012    2    1    2    0    0  0.26595275675E+02 -0.17573316160E+02 -0.76882002191E+00  0.59301933869E+02  0.49999981473E+02 0.  0.
         12    1    1    2    0    0 -0.26595275675E+02  0.17573316160E+02  0.76882002191E+00  0.31886066131E+02  0.00000000000E+00 0. -1.
         11    1    3    3    0    0 -0.56330768193E+01 -0.75607003756E+01  0.12086823264E+01  0.95056119135E+01  0.51100000000E-03 0.  1.
        -11    1    3    3    0    0  0.27606162123E+02  0.12758436872E+01 -0.15418191196E+02  0.31645672441E+02  0.51100000000E-03 0. -1.
        -12    1    3    3    0    0  0.46221903713E+01 -0.11288459472E+02  0.13440688848E+02  0.18150649514E+02  0.00000000000E+00 0.  1.
</event>
<event>
 7    1  0.4346085E-013  0.5930195E+02  0.7816164E-02  0.1266605E+00
        -11   -1    0    0    0    0  0.00000000000E+00  0.00000000000E+00  0.45593999997E+02  0.45594000000E+02  0.51100000000E-03 0.  1.
         11   -1    0    0    0    0 -0.00000000000E+00 -0.00000000000E+00 -0.45593999997E+02  0.45594000000E+02  0.51100000000E-03 0. -1.
    9900012    2    1    2    0    0 -0.23342999621E+02  0.20752323980E+02  0.64160271774E+01  0.59301953105E+02  0.50000016554E+02 0.  0.
         12    1    1    2    0    0  0.23342999621E+02 -0.20752323980E+02 -0.64160271774E+01  0.31886046895E+02  0.00000000000E+00 0. -1.
         11    1    3    3    0    0 -0.29904145247E+01  0.82117518774E+01 -0.61928814707E+01  0.10711079735E+02  0.51100000000E-03 0. -1.
        -11    1    3    3    0    0 -0.94452591411E+01  0.22348180952E+02  0.20652517444E+02  0.31861898706E+02  0.51100000000E-03 0.  1.
        -12    1    3    3    0    0 -0.10907325955E+02 -0.98076088496E+01 -0.80436087958E+01  0.16728974663E+02  0.00000000000E+00 0.  1.
</event>
<event>
 7    1  0.4346085E-013  0.5930185E+02  0.7816164E-02  0.1266605E+00
        -11   -1    0    0    0    0  0.00000000000E+00  0.00000000000E+00  0.45593999997E+02  0.45594000000E+02  0.51100000000E-03 0.  1.
         11   -1    0    0    0    0 -0.00000000000E+00 -0.00000000000E+00 -0.45593999997E+02  0.45594000000E+02  0.51100000000E-03 0. -1.
    9900012    2    1    2    0    0 -0.25874076098E+02  0.11823126581E+02  0.14403903637E+02  0.59301849776E+02  0.49999828108E+02 0.  0.
         12    1    1    2    0    0  0.25874076098E+02 -0.11823126581E+02 -0.14403903637E+02  0.31886150224E+02  0.00000000000E+00 0. -1.
         11    1    3    3    0    0 -0.24327581553E+02 -0.52590846852E+01  0.14750107834E+02  0.28931900686E+02  0.51100000000E-03 0. -1.
        -11    1    3    3    0    0  0.29631164969E+01  0.20116512116E+02  0.67559624397E+01  0.21426552402E+02  0.51100000000E-03 0.  1.
         12    1    3    3    0    0 -0.45096110421E+01 -0.30343008495E+01 -0.71021666362E+01  0.89433966883E+01  0.00000000000E+00 0. -1.
</event>
<event>
 7    1  0.4346085E-013  0.5930193E+02  0.7816164E-02  0.1266605E+00
        -11   -1    0    0    0    0  0.00000000000E+00  0.00000000000E+00  0.45593999997E+02  0.45594000000E+02  0.51100000000E-03 0. -1.
         11   -1    0    0    0    0 -0.00000000000E+00 -0.00000000000E+00 -0.45593999997E+02  0.45594000000E+02  0.51100000000E-03 0.  1.
    9900012    2    1    2    0    0 -0.15050429840E+02 -0.21538770444E+02  0.18063418038E+02  0.59301934990E+02  0.49999983517E+02 0.  0.
         12    1    1    2    0    0  0.15050429840E+02  0.21538770444E+02 -0.18063418038E+02  0.31886065010E+02  0.00000000000E+00 0. -1.
         11    1    3    3    0    0 -0.31855615887E+01 -0.37121428858E+01  0.15841001948E+02  0.16579057586E+02  0.51100000000E-03 0. -1.
        -11    1    3    3    0    0 -0.70480790018E+01  0.96320146749E+01 -0.63987597232E+01  0.13542350260E+02  0.51100000000E-03 0.  1.
        -12    1    3    3    0    0 -0.48167892494E+01 -0.27458642233E+02  0.86211758133E+01  0.29180527144E+02  0.00000000000E+00 0.  1.
</event>
<event>
 7    1  0.4346085E-013  0.5930193E+02  0.7816164E-02  0.1266605E+00
        -11   -1    0    0    0    0  0.00000000000E+00  0.00000000000E+00  0.45593999997E+02  0.45594000000E+02  0.51100000000E-03 0.  1.
         11   -1    0    0    0    0 -0.00000000000E+00 -0.00000000000E+00 -0.45593999997E+02  0.45594000000E+02  0.51100000000E-03 0. -1.
    9900012    2    1    2    0    0 -0.23875106258E+01  0.19732531120E+01  0.31735268347E+02  0.59301934205E+02  0.49999982086E+02 0.  0.
         12    1    1    2    0    0  0.23875106258E+01 -0.19732531120E+01 -0.31735268347E+02  0.31886065795E+02  0.00000000000E+00 0. -1.
         11    1    3    3    0    0 -0.20784442030E+02 -0.91764975180E+00  0.21521609152E+01  0.20915709609E+02  0.51100000000E-03 0. -1.
        -11    1    3    3    0    0  0.19521361025E+02  0.64873699591E+01  0.23511473883E+02  0.31240341061E+02  0.51100000000E-03 0.  1.
        -12    1    3    3    0    0 -0.11244296201E+01 -0.35964670953E+01  0.60716335491E+01  0.71458835348E+01  0.00000000000E+00 0.  1.
</event>
<event>
 7    1  0.4346085E-013  0.5930188E+02  0.7816164E-02  0.1266605E+00
        -11   -1    0    0    0    0  0.00000000000E+00  0.00000000000E+00  0.45593999997E+02  0.45594000000E+02  0.51100000000E-03 0.  1.
         11   -1    0    0    0    0 -0.00000000000E+00 -0.00000000000E+00 -0.45593999997E+02  0.45594000000E+02  0.51100000000E-03 0. -1.
    9900012    2    1    2    0    0  0.17861366903E+02 -0.26281568608E+02  0.26411410252E+01  0.59301876027E+02  0.49999875982E+02 0.  0.
         12    1    1    2    0    0 -0.17861366903E+02  0.26281568608E+02 -0.26411410252E+01  0.31886123973E+02  0.00000000000E+00 0. -1.
         11    1    3    3    0    0 -0.10679918677E+02 -0.28407938304E+01  0.14168433058E+02  0.17968730286E+02  0.51100000000E-03 0. -1.
        -11    1    3    3    0    0  0.28345350350E+02 -0.21751618567E+02 -0.68817111030E+01  0.36386120221E+02  0.51100000000E-03 0.  1.
         12    1    3    3    0    0  0.19593522877E+00 -0.16891562106E+01 -0.46455809295E+01  0.49470255195E+01  0.00000000000E+00 0. -1.
</event>
<event>
 7    1  0.5339665E-013  0.5930194E+02  0.7816164E-02  0.1266605E+00
        -11   -1    0    0    0    0  0.00000000000E+00  0.00000000000E+00  0.45593999997E+02  0.45594000000E+02  0.51100000000E-03 0. -1.
         11   -1    0    0    0    0 -0.00000000000E+00 -0.00000000000E+00 -0.45593999997E+02  0.45594000000E+02  0.51100000000E-03 0.  1.
    9900012    2    1    2    0    0 -0.60658463171E+01 -0.14972773756E+02 -0.27490771628E+02  0.59301937681E+02  0.49999988425E+02 0.  0.
         12    1    1    2    0    0  0.60658463171E+01  0.14972773756E+02  0.27490771628E+02  0.31886062319E+02  0.00000000000E+00 0. -1.
         11    1    3    3    0    0 -0.18919781209E+01 -0.81220963280E+01  0.84218922829E+01  0.11852269819E+02  0.51100000000E-03 0. -1.
        -11    1    3    3    0    0  0.89862624463E+00  0.11451734503E+02 -0.17934206954E+02  0.21297547548E+02  0.51100000000E-03 0.  1.
        -12    1    3    3    0    0 -0.50724944409E+01 -0.18302411931E+02 -0.17978456957E+02  0.26152120314E+02  0.00000000000E+00 0.  1.
</event>
<event>
 7    1  0.4346085E-013  0.5930195E+02  0.7816164E-02  0.1266605E+00
        -11   -1    0    0    0    0  0.00000000000E+00  0.00000000000E+00  0.45593999997E+02  0.45594000000E+02  0.51100000000E-03 0.  1.
         11   -1    0    0    0    0 -0.00000000000E+00 -0.00000000000E+00 -0.45593999997E+02  0.45594000000E+02  0.51100000000E-03 0. -1.
    9900012    2    1    2    0    0  0.12157720018E+02 -0.68760617382E+01  0.28664088685E+02  0.59301947231E+02  0.50000005841E+02 0.  0.
         12    1    1    2    0    0 -0.12157720018E+02  0.68760617382E+01 -0.28664088685E+02  0.31886052769E+02  0.00000000000E+00 0. -1.
         11    1    3    3    0    0 -0.58653230557E+01  0.11418056736E+02  0.27196895013E+02  0.30073994294E+02  0.51100000000E-03 0. -1.
        -11    1    3    3    0    0  0.11133859584E+02 -0.25103321278E+01  0.33723325625E+01  0.11901143802E+02  0.51100000000E-03 0.  1.
         12    1    3    3    0    0  0.68891834899E+01 -0.15783786347E+02 -0.19051388903E+01  0.17326809135E+02  0.00000000000E+00 0. -1.
</event>
<event>
 7    1  0.4346085E-013  0.5930195E+02  0.7816164E-02  0.1266605E+00
        -11   -1    0    0    0    0  0.00000000000E+00  0.00000000000E+00  0.45593999997E+02  0.45594000000E+02  0.51100000000E-03 0.  1.
         11   -1    0    0    0    0 -0.00000000000E+00 -0.00000000000E+00 -0.45593999997E+02  0.45594000000E+02  0.51100000000E-03 0. -1.
    9900012    2    1    2    0    0  0.82290465901E+01  0.61520003215E+01  0.30185358766E+02  0.59301949765E+02  0.50000010463E+02 0.  0.
         12    1    1    2    0    0 -0.82290465901E+01 -0.61520003215E+01 -0.30185358766E+02  0.31886050235E+02  0.00000000000E+00 0. -1.
         11    1    3    3    0    0  0.12207478543E+02 -0.16623217760E+02  0.55015885881E+01  0.21345289371E+02  0.51100000000E-03 0.  1.
        -11    1    3    3    0    0  0.22069914863E+01  0.21915989289E+02  0.22087724041E+02  0.31193732568E+02  0.51100000000E-03 0. -1.
        -12    1    3    3    0    0 -0.61854234389E+01  0.85922879246E+00  0.25960461375E+01  0.67629278263E+01  0.00000000000E+00 0.  1.
</event>
<event>
 7    1  0.4346085E-013  0.5930194E+02  0.7816164E-02  0.1266605E+00
        -11   -1    0    0    0    0  0.00000000000E+00  0.00000000000E+00  0.45593999997E+02  0.45594000000E+02  0.51100000000E-03 0.  1.
         11   -1    0    0    0    0 -0.00000000000E+00 -0.00000000000E+00 -0.45593999997E+02  0.45594000000E+02  0.51100000000E-03 0. -1.
    9900012    2    1    2    0    0  0.26750856350E+02  0.41808617721E+01  0.16841398462E+02  0.59301943129E+02  0.49999998361E+02 0.  0.
         12    1    1    2    0    0 -0.26750856350E+02 -0.41808617721E+01 -0.16841398462E+02  0.31886056871E+02  0.00000000000E+00 0. -1.
         11    1    3    3    0    0 -0.11636548760E+02 -0.38713950920E+01 -0.23451865827E+01  0.12485866705E+02  0.51100000000E-03 0. -1.
        -11    1    3    3    0    0  0.27147854268E+02 -0.25276047700E+01  0.12512353681E+02  0.29999229525E+02  0.51100000000E-03 0.  1.
         12    1    3    3    0    0  0.11239550842E+02  0.10579861634E+02  0.66742313640E+01  0.16816846899E+02  0.00000000000E+00 0. -1.
</event>
<event>
 7    1  0.4346085E-013  0.5930195E+02  0.7816164E-02  0.1266605E+00
        -11   -1    0    0    0    0  0.00000000000E+00  0.00000000000E+00  0.45593999997E+02  0.45594000000E+02  0.51100000000E-03 0.  1.
         11   -1    0    0    0    0 -0.00000000000E+00 -0.00000000000E+00 -0.45593999997E+02  0.45594000000E+02  0.51100000000E-03 0. -1.
    9900012    2    1    2    0    0 -0.78771724439E+01 -0.24234205192E+02  0.19166989416E+02  0.59301952420E+02  0.50000015306E+02 0.  0.
         12    1    1    2    0    0  0.78771724439E+01  0.24234205192E+02 -0.19166989416E+02  0.31886047580E+02  0.00000000000E+00 0. -1.
         11    1    3    3    0    0 -0.80910510539E+01  0.45008829729E+01 -0.63482897700E+00  0.92804128563E+01  0.51100000000E-03 0. -1.
        -11    1    3    3    0    0  0.69218021031E+01 -0.34397944610E+02  0.92320915810E+01  0.36281695839E+02  0.51100000000E-03 0.  1.
        -12    1    3    3    0    0 -0.67079234931E+01  0.56628564451E+01  0.10569726812E+02  0.13739843725E+02  0.00000000000E+00 0.  1.
</event>
<event>
 7    1  0.4346085E-013  0.5930207E+02  0.7816164E-02  0.1266604E+00
        -11   -1    0    0    0    0  0.00000000000E+00  0.00000000000E+00  0.45593999997E+02  0.45594000000E+02  0.51100000000E-03 0.  1.
         11   -1    0    0    0    0 -0.00000000000E+00 -0.00000000000E+00 -0.45593999997E+02  0.45594000000E+02  0.51100000000E-03 0. -1.
    9900012    2    1    2    0    0 -0.57357398798E+01 -0.47720878177E+01  0.31000664408E+02  0.59302066928E+02  0.50000224140E+02 0.  0.
         12    1    1    2    0    0  0.57357398798E+01  0.47720878177E+01 -0.31000664408E+02  0.31885933072E+02  0.00000000000E+00 0. -1.
         11    1    3    3    0    0 -0.36439735892E+00  0.19089117033E+02  0.23208349098E+01  0.19233134156E+02  0.51100000000E-03 0. -1.
        -11    1    3    3    0    0  0.29176529008E+01 -0.16743368908E+02  0.18729424314E+02  0.25291192859E+02  0.51100000000E-03 0.  1.
         12    1    3    3    0    0 -0.82889954217E+01 -0.71178359425E+01  0.99504051847E+01  0.14777739913E+02  0.00000000000E+00 0. -1.
</event>
<event>
 7    1  0.4346085E-013  0.5930193E+02  0.7816164E-02  0.1266605E+00
        -11   -1    0    0    0    0  0.00000000000E+00  0.00000000000E+00  0.45593999997E+02  0.45594000000E+02  0.51100000000E-03 0.  1.
         11   -1    0    0    0    0 -0.00000000000E+00 -0.00000000000E+00 -0.45593999997E+02  0.45594000000E+02  0.51100000000E-03 0. -1.
    9900012    2    1    2    0    0 -0.38911673543E+01 -0.60571312292E+01  0.31062698524E+02  0.59301933110E+02  0.49999980089E+02 0.  0.
         12    1    1    2    0    0  0.38911673543E+01  0.60571312292E+01 -0.31062698524E+02  0.31886066890E+02  0.00000000000E+00 0. -1.
         11    1    3    3    0    0  0.32603827192E+01  0.27670867126E+01 -0.83957533514E+01  0.94220772099E+01  0.51100000000E-03 0. -1.
        -11    1    3    3    0    0  0.73159688217E+01 -0.64056969546E+01  0.31959061743E+02  0.33405657919E+02  0.51100000000E-03 0.  1.
        -12    1    3    3    0    0 -0.14467518895E+02 -0.24185209872E+01  0.74993901328E+01  0.16474197981E+02  0.00000000000E+00 0.  1.
</event>
<event>
 7    1  0.4346085E-013  0.5930194E+02  0.7816164E-02  0.1266605E+00
        -11   -1    0    0    0    0  0.00000000000E+00  0.00000000000E+00  0.45593999997E+02  0.45594000000E+02  0.51100000000E-03 0.  1.
         11   -1    0    0    0    0 -0.00000000000E+00 -0.00000000000E+00 -0.45593999997E+02  0.45594000000E+02  0.51100000000E-03 0. -1.
    9900012    2    1    2    0    0 -0.17701878654E+02 -0.99638402558E+01  0.24578168193E+02  0.59301937649E+02  0.49999988367E+02 0.  0.
         12    1    1    2    0    0  0.17701878654E+02  0.99638402558E+01 -0.24578168193E+02  0.31886062351E+02  0.00000000000E+00 0. -1.
         11    1    3    3    0    0  0.47484877269E+01  0.69230245634E+00 -0.70609421291E+01  0.85372315416E+01  0.51100000000E-03 0. -1.
        -11    1    3    3    0    0  0.44733548737E+01 -0.44372550201E+01  0.19664091915E+02  0.20648889729E+02  0.51100000000E-03 0.  1.
         12    1    3    3    0    0 -0.26923721255E+02 -0.62188876920E+01  0.11975018407E+02  0.30115816379E+02  0.00000000000E+00 0. -1.
</event>
<event>
 7    1  0.4346085E-013  0.5930190E+02  0.7816164E-02  0.1266605E+00
        -11   -1    0    0    0    0  0.00000000000E+00  0.00000000000E+00  0.45593999997E+02  0.45594000000E+02  0.51100000000E-03 0.  1.
         11   -1    0    0    0    0 -0.00000000000E+00 -0.00000000000E+00 -0.45593999997E+02  0.45594000000E+02  0.51100000000E-03 0. -1.
    9900012    2    1    2    0    0  0.12554660459E+02 -0.30409310753E+01  0.29152300446E+02  0.59301899856E+02  0.49999919442E+02 0.  0.
         12    1    1    2    0    0 -0.12554660459E+02  0.30409310753E+01 -0.29152300446E+02  0.31886100144E+02  0.00000000000E+00 0. -1.
         11    1    3    3    0    0  0.14274081665E+02  0.80790351961E+00  0.26469360805E+02  0.30083702849E+02  0.51100000000E-03 0. -1.
        -11    1    3    3    0    0 -0.14791755195E+02 -0.29819270989E+01 -0.21753948934E+01  0.15245335489E+02  0.51100000000E-03 0.  1.
         12    1    3    3    0    0  0.13072333989E+02 -0.86690749605E+00  0.48583345352E+01  0.13972861518E+02  0.00000000000E+00 0. -1.
</event>
<event>
 7    1  0.4346085E-013  0.5930193E+02  0.7816164E-02  0.1266605E+00
        -11   -1    0    0    0    0  0.00000000000E+00  0.00000000000E+00  0.45593999997E+02  0.45594000000E+02  0.51100000000E-03 0.  1.
         11   -1    0    0    0    0 -0.00000000000E+00 -0.00000000000E+00 -0.45593999997E+02  0.45594000000E+02  0.51100000000E-03 0. -1.
    9900012    2    1    2    0    0 -0.79507552096E+01  0.30087432337E+02  0.69464783216E+01  0.59301926957E+02  0.49999968868E+02 0.  0.
         12    1    1    2    0    0  0.79507552096E+01 -0.30087432337E+02 -0.69464783216E+01  0.31886073043E+02  0.00000000000E+00 0. -1.
         11    1    3    3    0    0  0.96473214532E+01 -0.53983827587E+01  0.99543453498E-01  0.11055462758E+02  0.51100000000E-03 0. -1.
        -11    1    3    3    0    0 -0.53056931474E+01  0.17909801455E+02 -0.98021180179E+01  0.21094854487E+02  0.51100000000E-03 0.  1.
         12    1    3    3    0    0 -0.12292383515E+02  0.17576013640E+02  0.16649052886E+02  0.27151609712E+02  0.00000000000E+00 0. -1.
</event>
<event>
 7    1  0.4346085E-013  0.5930194E+02  0.7816164E-02  0.1266605E+00
        -11   -1    0    0    0    0  0.00000000000E+00  0.00000000000E+00  0.45593999997E+02  0.45594000000E+02  0.51100000000E-03 0.  1.
         11   -1    0    0    0    0 -0.00000000000E+00 -0.00000000000E+00 -0.45593999997E+02  0.45594000000E+02  0.51100000000E-03 0. -1.
    9900012    2    1    2    0    0 -0.90345273192E+01 -0.28267651825E+02 -0.11663531105E+02  0.59301940641E+02  0.49999993824E+02 0.  0.
         12    1    1    2    0    0  0.90345273192E+01  0.28267651825E+02  0.11663531105E+02  0.31886059359E+02  0.00000000000E+00 0. -1.
         11    1    3    3    0    0  0.63353310845E+01  0.21142832549E+01 -0.14747737842E+02  0.16189576442E+02  0.51100000000E-03 0. -1.
        -11    1    3    3    0    0 -0.64743878959E+01 -0.32846032905E+02  0.44818013760E+01  0.33776709728E+02  0.51100000000E-03 0.  1.
         12    1    3    3    0    0 -0.88954705079E+01  0.24640978249E+01 -0.13975946392E+01  0.93356544721E+01  0.00000000000E+00 0. -1.
</event>
<event>
 7    1  0.4346085E-013  0.5930199E+02  0.7816164E-02  0.1266605E+00
        -11   -1    0    0    0    0  0.00000000000E+00  0.00000000000E+00  0.45593999997E+02  0.45594000000E+02  0.51100000000E-03 0.  1.
         11   -1    0    0    0    0 -0.00000000000E+00 -0.00000000000E+00 -0.45593999997E+02  0.45594000000E+02  0.51100000000E-03 0. -1.
    9900012    2    1    2    0    0 -0.22289712548E+02 -0.22175454891E+02 -0.53042943522E+01  0.59301990157E+02  0.50000084129E+02 0.  0.
         12    1    1    2    0    0  0.22289712548E+02  0.22175454891E+02  0.53042943522E+01  0.31886009843E+02  0.00000000000E+00 0. -1.
         11    1    3    3    0    0 -0.47447968908E+01  0.53659111177E+01 -0.95460172700E+01  0.11934510700E+02  0.51100000000E-03 0. -1.
        -11    1    3    3    0    0 -0.81070008062E+01 -0.32834121323E+02 -0.35897058674E+01  0.34010130455E+02  0.51100000000E-03 0.  1.
        -12    1    3    3    0    0 -0.94379148514E+01  0.52927553136E+01  0.78314287852E+01  0.13357349002E+02  0.00000000000E+00 0.  1.
</event>
<event>
 7    1  0.4346085E-013  0.5930192E+02  0.7816164E-02  0.1266605E+00
        -11   -1    0    0    0    0  0.00000000000E+00  0.00000000000E+00  0.45593999997E+02  0.45594000000E+02  0.51100000000E-03 0.  1.
         11   -1    0    0    0    0 -0.00000000000E+00 -0.00000000000E+00 -0.45593999997E+02  0.45594000000E+02  0.51100000000E-03 0. -1.
    9900012    2    1    2    0    0  0.14289025670E+02  0.15290168106E+02  0.24057361164E+02  0.59301919628E+02  0.49999955501E+02 0.  0.
         12    1    1    2    0    0 -0.14289025670E+02 -0.15290168106E+02 -0.24057361164E+02  0.31886080372E+02  0.00000000000E+00 0. -1.
         11    1    3    3    0    0  0.28447115167E+02  0.75963680509E+01  0.43561326941E+01  0.29764392506E+02  0.51100000000E-03 0. -1.
        -11    1    3    3    0    0 -0.43504986912E+01  0.84482620225E+01  0.16767119685E+02  0.19272682036E+02  0.51100000000E-03 0.  1.
        -12    1    3    3    0    0 -0.98075908066E+01 -0.75446196740E+00  0.29341087852E+01  0.10264845087E+02  0.00000000000E+00 0.  1.
</event>
<event>
 7    1  0.4346085E-013  0.5930194E+02  0.7816164E-02  0.1266605E+00
        -11   -1    0    0    0    0  0.00000000000E+00  0.00000000000E+00  0.45593999997E+02  0.45594000000E+02  0.51100000000E-03 0. -1.
         11   -1    0    0    0    0 -0.00000000000E+00 -0.00000000000E+00 -0.45593999997E+02  0.45594000000E+02  0.51100000000E-03 0.  1.
    9900012    2    1    2    0    0  0.25510326292E+02 -0.11005987453E+02 -0.15646476166E+02  0.59301941546E+02  0.49999995473E+02 0.  0.
         12    1    1    2    0    0 -0.25510326292E+02  0.11005987453E+02  0.15646476166E+02  0.31886058454E+02  0.00000000000E+00 0. -1.
         11    1    3    3    0    0 -0.22928444533E+01 -0.16763198667E+02 -0.17935279643E+02  0.24656362695E+02  0.51100000000E-03 0. -1.
        -11    1    3    3    0    0  0.27994208794E+02 -0.91980557159E-01 -0.84485066914E+00  0.28007105515E+02  0.51100000000E-03 0.  1.
         12    1    3    3    0    0 -0.19103804902E+00  0.58491917709E+01  0.31336541462E+01  0.66384733348E+01  0.00000000000E+00 0. -1.
</event>
<event>
 7    1  0.4346085E-013  0.5930194E+02  0.7816164E-02  0.1266605E+00
        -11   -1    0    0    0    0  0.00000000000E+00  0.00000000000E+00  0.45593999997E+02  0.45594000000E+02  0.51100000000E-03 0. -1.
         11   -1    0    0    0    0 -0.00000000000E+00 -0.00000000000E+00 -0.45593999997E+02  0.45594000000E+02  0.51100000000E-03 0.  1.
    9900012    2    1    2    0    0  0.10192236973E+02 -0.27256574196E+02 -0.13035261512E+02  0.59301943893E+02  0.49999999754E+02 0.  0.
         12    1    1    2    0    0 -0.10192236973E+02  0.27256574196E+02  0.13035261512E+02  0.31886056107E+02  0.00000000000E+00 0. -1.
         11    1    3    3    0    0 -0.20974546307E+01 -0.23689570637E+02  0.69109069353E+01  0.24766019216E+02  0.51100000000E-03 0. -1.
        -11    1    3    3    0    0  0.14579182441E+02  0.65494387023E+01 -0.58171822042E+01  0.17008448401E+02  0.51100000000E-03 0.  1.
         12    1    3    3    0    0 -0.22894908373E+01 -0.10116442261E+02 -0.14128986243E+02  0.17527476275E+02  0.00000000000E+00 0. -1.
</event>
<event>
 7    1  0.4346085E-013  0.5930193E+02  0.7816164E-02  0.1266605E+00
        -11   -1    0    0    0    0  0.00000000000E+00  0.00000000000E+00  0.45593999997E+02  0.45594000000E+02  0.51100000000E-03 0.  1.
         11   -1    0    0    0    0 -0.00000000000E+00 -0.00000000000E+00 -0.45593999997E+02  0.45594000000E+02  0.51100000000E-03 0. -1.
    9900012    2    1    2    0    0  0.49036373823E+01  0.17821579120E+02  0.25982053201E+02  0.59301930464E+02  0.49999975263E+02 0.  0.
         12    1    1    2    0    0 -0.49036373823E+01 -0.17821579120E+02 -0.25982053201E+02  0.31886069536E+02  0.00000000000E+00 0. -1.
         11    1    3    3    0    0 -0.17105771297E+02  0.18459729997E+02  0.86947354705E+01  0.26626443029E+02  0.51100000000E-03 0. -1.
        -11    1    3    3    0    0  0.84805447864E+01 -0.44259380168E+01  0.15902930481E+02  0.18558334121E+02  0.51100000000E-03 0.  1.
         12    1    3    3    0    0  0.13528863892E+02  0.37877871398E+01  0.13843872501E+01  0.14117153314E+02  0.00000000000E+00 0. -1.
</event>
<event>
 7    1  0.4346085E-013  0.5930195E+02  0.7816164E-02  0.1266605E+00
        -11   -1    0    0    0    0  0.00000000000E+00  0.00000000000E+00  0.45593999997E+02  0.45594000000E+02  0.51100000000E-03 0. -1.
         11   -1    0    0    0    0 -0.00000000000E+00 -0.00000000000E+00 -0.45593999997E+02  0.45594000000E+02  0.51100000000E-03 0.  1.
    9900012    2    1    2    0    0  0.22639826093E+02  0.15287319365E+01 -0.22401370799E+02  0.59301950377E+02  0.50000011580E+02 0.  0.
         12    1    1    2    0    0 -0.22639826093E+02 -0.15287319365E+01  0.22401370799E+02  0.31886049623E+02  0.00000000000E+00 0. -1.
         11    1    3    3    0    0  0.57046088800E+00 -0.20944083700E+02 -0.39677251760E+01  0.21324232952E+02  0.51100000000E-03 0. -1.
        -11    1    3    3    0    0  0.22847769808E+01  0.35694038985E+01 -0.72892189221E+01  0.84316998760E+01  0.51100000000E-03 0.  1.
         12    1    3    3    0    0  0.19784588224E+02  0.18903411738E+02 -0.11144426701E+02  0.29546017549E+02  0.00000000000E+00 0. -1.
</event>
<event>
 7    1  0.4346085E-013  0.5930196E+02  0.7816164E-02  0.1266605E+00
        -11   -1    0    0    0    0  0.00000000000E+00  0.00000000000E+00  0.45593999997E+02  0.45594000000E+02  0.51100000000E-03 0. -1.
         11   -1    0    0    0    0 -0.00000000000E+00 -0.00000000000E+00 -0.45593999997E+02  0.45594000000E+02  0.51100000000E-03 0.  1.
    9900012    2    1    2    0    0 -0.18839262614E+02 -0.12663233732E+02 -0.22392947697E+02  0.59301962132E+02  0.50000033017E+02 0.  0.
         12    1    1    2    0    0  0.18839262614E+02  0.12663233732E+02  0.22392947697E+02  0.31886037868E+02  0.00000000000E+00 0. -1.
         11    1    3    3    0    0 -0.85431007098E+01  0.10252573537E+01 -0.59433744661E+01  0.10457505567E+02  0.51100000000E-03 0. -1.
        -11    1    3    3    0    0  0.11927168250E+02 -0.18043449431E+02 -0.14424437156E+01  0.21677270446E+02  0.51100000000E-03 0.  1.
        -12    1    3    3    0    0 -0.22223330154E+02  0.43549583460E+01 -0.15007129516E+02  0.27167186119E+02  0.00000000000E+00 0.  1.
</event>
<event>
 7    1  0.4346085E-013  0.5930218E+02  0.7816164E-02  0.1266604E+00
        -11   -1    0    0    0    0  0.00000000000E+00  0.00000000000E+00  0.45593999997E+02  0.45594000000E+02  0.51100000000E-03 0. -1.
         11   -1    0    0    0    0 -0.00000000000E+00 -0.00000000000E+00 -0.45593999997E+02  0.45594000000E+02  0.51100000000E-03 0.  1.
    9900012    2    1    2    0    0 -0.40358912040E+01 -0.67813592413E+01 -0.30893856338E+02  0.59302178537E+02  0.50000427686E+02 0.  0.
         12    1    1    2    0    0  0.40358912040E+01  0.67813592413E+01  0.30893856338E+02  0.31885821463E+02  0.00000000000E+00 0. -1.
         11    1    3    3    0    0  0.50815594871E+01  0.12157550522E+02 -0.68999755996E+01  0.14874069552E+02  0.51100000000E-03 0. -1.
        -11    1    3    3    0    0 -0.20541548554E+01 -0.24845378912E+02 -0.24826224581E+02  0.35183146998E+02  0.51100000000E-03 0.  1.
        -12    1    3    3    0    0 -0.70632958357E+01  0.59064691487E+01  0.83234384326E+00  0.92449619870E+01  0.00000000000E+00 0.  1.
</event>
<event>
 7    1  0.4346085E-013  0.5930194E+02  0.7816164E-02  0.1266605E+00
        -11   -1    0    0    0    0  0.00000000000E+00  0.00000000000E+00  0.45593999997E+02  0.45594000000E+02  0.51100000000E-03 0.  1.
         11   -1    0    0    0    0 -0.00000000000E+00 -0.00000000000E+00 -0.45593999997E+02  0.45594000000E+02  0.51100000000E-03 0. -1.
    9900012    2    1    2    0    0  0.21050021035E+02  0.23940270453E+02 -0.69359566689E+00  0.59301937059E+02  0.49999987291E+02 0.  0.
         12    1    1    2    0    0 -0.21050021035E+02 -0.23940270453E+02  0.69359566689E+00  0.31886062941E+02  0.00000000000E+00 0. -1.
         11    1    3    3    0    0  0.10503936457E+01  0.46442585938E+01  0.19679104572E+02  0.20246965741E+02  0.51100000000E-03 0. -1.
        -11    1    3    3    0    0  0.12665461800E+02  0.70464615256E+01 -0.39388404800E+00  0.14499023675E+02  0.51100000000E-03 0.  1.
         12    1    3    3    0    0  0.73341655896E+01  0.12249550333E+02 -0.19978816191E+02  0.24555947643E+02  0.00000000000E+00 0. -1.
</event>
<event>
 7    1  0.4346085E-013  0.5930193E+02  0.7816164E-02  0.1266605E+00
        -11   -1    0    0    0    0  0.00000000000E+00  0.00000000000E+00  0.45593999997E+02  0.45594000000E+02  0.51100000000E-03 0. -1.
         11   -1    0    0    0    0 -0.00000000000E+00 -0.00000000000E+00 -0.45593999997E+02  0.45594000000E+02  0.51100000000E-03 0.  1.
    9900012    2    1    2    0    0  0.28505164753E+02  0.11933919451E+02  0.78586532139E+01  0.59301932801E+02  0.49999979525E+02 0.  0.
         12    1    1    2    0    0 -0.28505164753E+02 -0.11933919451E+02 -0.78586532139E+01  0.31886067199E+02  0.00000000000E+00 0. -1.
         11    1    3    3    0    0 -0.28927529379E+01  0.45010229460E+01  0.98753278786E+01  0.11231621793E+02  0.51100000000E-03 0. -1.
        -11    1    3    3    0    0  0.37692048601E+02  0.12732782729E+02 -0.12164212435E+01  0.39803190383E+02  0.51100000000E-03 0.  1.
        -12    1    3    3    0    0 -0.62941309097E+01 -0.52998862242E+01 -0.80025342115E+00  0.82671206254E+01  0.00000000000E+00 0.  1.
</event>
<event>
 7    1  0.4346085E-013  0.5930196E+02  0.7816164E-02  0.1266605E+00
        -11   -1    0    0    0    0  0.00000000000E+00  0.00000000000E+00  0.45593999997E+02  0.45594000000E+02  0.51100000000E-03 0.  1.
         11   -1    0    0    0    0 -0.00000000000E+00 -0.00000000000E+00 -0.45593999997E+02  0.45594000000E+02  0.51100000000E-03 0. -1.
    9900012    2    1    2    0    0 -0.11233118795E+02  0.76310577040E+01  0.28849670419E+02  0.59301961004E+02  0.50000030961E+02 0.  0.
         12    1    1    2    0    0  0.11233118795E+02 -0.76310577040E+01 -0.28849670419E+02  0.31886038996E+02  0.00000000000E+00 0. -1.
         11    1    3    3    0    0 -0.10592360211E+02  0.75348768098E+01  0.26497212800E+02  0.29513975499E+02  0.51100000000E-03 0.  1.
        -11    1    3    3    0    0  0.12218993349E+02 -0.31849640142E+01 -0.61305386068E+01  0.14036783752E+02  0.51100000000E-03 0. -1.
         12    1    3    3    0    0 -0.12859751933E+02  0.32811449084E+01  0.84829962267E+01  0.15751201753E+02  0.00000000000E+00 0. -1.
</event>
<event>
 7    1  0.4346085E-013  0.5930199E+02  0.7816164E-02  0.1266605E+00
        -11   -1    0    0    0    0  0.00000000000E+00  0.00000000000E+00  0.45593999997E+02  0.45594000000E+02  0.51100000000E-03 0. -1.
         11   -1    0    0    0    0 -0.00000000000E+00 -0.00000000000E+00 -0.45593999997E+02  0.45594000000E+02  0.51100000000E-03 0.  1.
    9900012    2    1    2    0    0 -0.30244529058E+02 -0.10096845823E+02 -0.20014769311E+00  0.59301985940E+02  0.50000076438E+02 0.  0.
         12    1    1    2    0    0  0.30244529058E+02  0.10096845823E+02  0.20014769311E+00  0.31886014060E+02  0.00000000000E+00 0. -1.
         11    1    3    3    0    0  0.51055664215E+01  0.11058058181E+02  0.12825457391E+01  0.12247137749E+02  0.51100000000E-03 0. -1.
        -11    1    3    3    0    0 -0.28924707112E+02 -0.20492624696E+02  0.72605853715E+01  0.36184284554E+02  0.51100000000E-03 0.  1.
        -12    1    3    3    0    0 -0.64253883670E+01 -0.66227930846E+00 -0.87432788036E+01  0.10870563637E+02  0.00000000000E+00 0.  1.
</event>
<event>
 7    1  0.4346085E-013  0.5930195E+02  0.7816164E-02  0.1266605E+00
        -11   -1    0    0    0    0  0.00000000000E+00  0.00000000000E+00  0.45593999997E+02  0.45594000000E+02  0.51100000000E-03 0.  1.
         11   -1    0    0    0    0 -0.00000000000E+00 -0.00000000000E+00 -0.45593999997E+02  0.45594000000E+02  0.51100000000E-03 0. -1.
    9900012    2    1    2    0    0  0.10481036248E+01 -0.14356855307E+02  0.28451758534E+02  0.59301946949E+02  0.50000005328E+02 0.  0.
         12    1    1    2    0    0 -0.10481036248E+01  0.14356855307E+02 -0.28451758534E+02  0.31886053051E+02  0.00000000000E+00 0. -1.
         11    1    3    3    0    0 -0.80244385058E+01  0.15684550749E+01 -0.10777607598E+02  0.13528063071E+02  0.51100000000E-03 0. -1.
        -11    1    3    3    0    0  0.86399396949E+01 -0.29781970952E+01  0.24550287459E+02  0.26196084258E+02  0.51100000000E-03 0.  1.
         12    1    3    3    0    0  0.43260243564E+00 -0.12947113286E+02  0.14679078672E+02  0.19577799620E+02  0.00000000000E+00 0. -1.
</event>
<event>
 7    1  0.4346085E-013  0.5930190E+02  0.7816164E-02  0.1266605E+00
        -11   -1    0    0    0    0  0.00000000000E+00  0.00000000000E+00  0.45593999997E+02  0.45594000000E+02  0.51100000000E-03 0.  1.
         11   -1    0    0    0    0 -0.00000000000E+00 -0.00000000000E+00 -0.45593999997E+02  0.45594000000E+02  0.51100000000E-03 0. -1.
    9900012    2    1    2    0    0 -0.25062585902E+02  0.19555535441E+02 -0.24842049260E+01  0.59301898755E+02  0.49999917434E+02 0.  0.
         12    1    1    2    0    0  0.25062585902E+02 -0.19555535441E+02  0.24842049260E+01  0.31886101245E+02  0.00000000000E+00 0. -1.
         11    1    3    3    0    0 -0.15382171606E+02  0.12755284785E+02  0.19942670810E+02  0.28231518070E+02  0.51100000000E-03 0. -1.
        -11    1    3    3    0    0 -0.28073856624E+01  0.85941118618E+01 -0.17518930846E+01  0.92091966312E+01  0.51100000000E-03 0.  1.
         12    1    3    3    0    0 -0.68730286340E+01 -0.17938612056E+01 -0.20674982651E+02  0.21861184054E+02  0.00000000000E+00 0. -1.
</event>
<event>
 7    1  0.4346085E-013  0.5930197E+02  0.7816164E-02  0.1266605E+00
        -11   -1    0    0    0    0  0.00000000000E+00  0.00000000000E+00  0.45593999997E+02  0.45594000000E+02  0.51100000000E-03 0.  1.
         11   -1    0    0    0    0 -0.00000000000E+00 -0.00000000000E+00 -0.45593999997E+02  0.45594000000E+02  0.51100000000E-03 0. -1.
    9900012    2    1    2    0    0  0.14847820054E+02 -0.25155496360E+02  0.12785241154E+02  0.59301966242E+02  0.50000040513E+02 0.  0.
         12    1    1    2    0    0 -0.14847820054E+02  0.25155496360E+02 -0.12785241154E+02  0.31886033758E+02  0.00000000000E+00 0. -1.
         11    1    3    3    0    0  0.11072688888E+01 -0.58287554720E+01 -0.77615518097E+01  0.97694483724E+01  0.51100000000E-03 0. -1.
        -11    1    3    3    0    0  0.24322535658E+02 -0.20196387613E+02  0.71049739759E+01  0.32403093509E+02  0.51100000000E-03 0.  1.
        -12    1    3    3    0    0 -0.10581984493E+02  0.86964672534E+00  0.13441818988E+02  0.17129424361E+02  0.00000000000E+00 0.  1.
</event>
<event>
 7    1  0.4346085E-013  0.5930195E+02  0.7816164E-02  0.1266605E+00
        -11   -1    0    0    0    0  0.00000000000E+00  0.00000000000E+00  0.45593999997E+02  0.45594000000E+02  0.51100000000E-03 0.  1.
         11   -1    0    0    0    0 -0.00000000000E+00 -0.00000000000E+00 -0.45593999997E+02  0.45594000000E+02  0.51100000000E-03 0. -1.
    9900012    2    1    2    0    0 -0.18562464451E+02  0.10016230913E+02  0.23912970143E+02  0.59301951182E+02  0.50000013047E+02 0.  0.
         12    1    1    2    0    0  0.18562464451E+02 -0.10016230913E+02 -0.23912970143E+02  0.31886048818E+02  0.00000000000E+00 0. -1.
         11    1    3    3    0    0  0.14398682335E+02  0.46596327102E+01  0.67263565430E+01  0.16561343622E+02  0.51100000000E-03 0. -1.
        -11    1    3    3    0    0 -0.14808124405E+02  0.12459831414E+02  0.59799644179E+01  0.20255565209E+02  0.51100000000E-03 0.  1.
        -12    1    3    3    0    0 -0.18153022381E+02 -0.71032332108E+01  0.11206649182E+02  0.22485042350E+02  0.00000000000E+00 0.  1.
</event>
<event>
 7    1  0.4346085E-013  0.5930197E+02  0.7816164E-02  0.1266605E+00
        -11   -1    0    0    0    0  0.00000000000E+00  0.00000000000E+00  0.45593999997E+02  0.45594000000E+02  0.51100000000E-03 0.  1.
         11   -1    0    0    0    0 -0.00000000000E+00 -0.00000000000E+00 -0.45593999997E+02  0.45594000000E+02  0.51100000000E-03 0. -1.
    9900012    2    1    2    0    0  0.19037150617E+02 -0.10260700885E+02  0.23431252947E+02  0.59301973265E+02  0.50000053322E+02 0.  0.
         12    1    1    2    0    0 -0.19037150617E+02  0.10260700885E+02 -0.23431252947E+02  0.31886026735E+02  0.00000000000E+00 0. -1.
         11    1    3    3    0    0  0.17263148680E+02  0.83668005946E+01  0.23903417944E+02  0.30649519478E+02  0.51100000000E-03 0. -1.
        -11    1    3    3    0    0 -0.79188784968E+01 -0.60937839492E+00  0.15527910932E+01  0.80926595823E+01  0.51100000000E-03 0.  1.
         12    1    3    3    0    0  0.96928804344E+01 -0.18018123084E+02 -0.20249560907E+01  0.20559794205E+02  0.00000000000E+00 0. -1.
</event>
<event>
 7    1  0.4346085E-013  0.5930193E+02  0.7816164E-02  0.1266605E+00
        -11   -1    0    0    0    0  0.00000000000E+00  0.00000000000E+00  0.45593999997E+02  0.45594000000E+02  0.51100000000E-03 0.  1.
         11   -1    0    0    0    0 -0.00000000000E+00 -0.00000000000E+00 -0.45593999997E+02  0.45594000000E+02  0.51100000000E-03 0. -1.
    9900012    2    1    2    0    0  0.23081437055E+02 -0.19859996070E+02  0.94630388808E+01  0.59301932741E+02  0.49999979415E+02 0.  0.
         12    1    1    2    0    0 -0.23081437055E+02  0.19859996070E+02 -0.94630388808E+01  0.31886067259E+02  0.00000000000E+00 0. -1.
         11    1    3    3    0    0  0.31792990669E+02 -0.16580316691E+02 -0.62203142618E+01  0.36392217122E+02  0.51100000000E-03 0.  1.
        -11    1    3    3    0    0 -0.96476846817E+01 -0.75982922728E+01  0.11608755288E+02  0.16898966382E+02  0.51100000000E-03 0. -1.
        -12    1    3    3    0    0  0.93613106764E+00  0.43186128946E+01  0.40745978548E+01  0.60107492368E+01  0.00000000000E+00 0.  1.
</event>
<event>
 7    1  0.4346085E-013  0.5930195E+02  0.7816164E-02  0.1266605E+00
        -11   -1    0    0    0    0  0.00000000000E+00  0.00000000000E+00  0.45593999997E+02  0.45594000000E+02  0.51100000000E-03 0. -1.
         11   -1    0    0    0    0 -0.00000000000E+00 -0.00000000000E+00 -0.45593999997E+02  0.45594000000E+02  0.51100000000E-03 0.  1.
    9900012    2    1    2    0    0  0.13404003531E+02 -0.68975102449E+01 -0.28097637241E+02  0.59301950123E+02  0.50000011117E+02 0.  0.
         12    1    1    2    0    0 -0.13404003531E+02  0.68975102449E+01  0.28097637241E+02  0.31886049877E+02  0.00000000000E+00 0. -1.
         11    1    3    3    0    0 -0.10673222524E+02  0.64776562568E+01  0.34000189189E+01  0.12939777376E+02  0.51100000000E-03 0. -1.
        -11    1    3    3    0    0  0.59996802584E+01 -0.10405704431E+02 -0.23461116169E+02  0.26357139831E+02  0.51100000000E-03 0.  1.
         12    1    3    3    0    0  0.18077545796E+02 -0.29694620708E+01 -0.80365399905E+01  0.20005032917E+02  0.00000000000E+00 0. -1.
</event>
<event>
 7    1  0.4346085E-013  0.5930196E+02  0.7816164E-02  0.1266605E+00
        -11   -1    0    0    0    0  0.00000000000E+00  0.00000000000E+00  0.45593999997E+02  0.45594000000E+02  0.51100000000E-03 0. -1.
         11   -1    0    0    0    0 -0.00000000000E+00 -0.00000000000E+00 -0.45593999997E+02  0.45594000000E+02  0.51100000000E-03 0.  1.
    9900012    2    1    2    0    0 -0.20232138186E+02 -0.57515646279E+01 -0.23964546526E+02  0.59301962281E+02  0.50000033289E+02 0.  0.
         12    1    1    2    0    0  0.20232138186E+02  0.57515646279E+01  0.23964546526E+02  0.31886037719E+02  0.00000000000E+00 0. -1.
         11    1    3    3    0    0 -0.99986768624E+01 -0.21252123862E-01  0.13390927207E+02  0.16711999353E+02  0.51100000000E-03 0. -1.
        -11    1    3    3    0    0 -0.13080993293E+02 -0.88504953723E+01 -0.25397469022E+02  0.29907776361E+02  0.51100000000E-03 0.  1.
         12    1    3    3    0    0  0.28475319694E+01  0.31201828683E+01 -0.11958004711E+02  0.12682186567E+02  0.00000000000E+00 0. -1.
</event>
<event>
 7    1  0.4346085E-013  0.5930191E+02  0.7816164E-02  0.1266605E+00
        -11   -1    0    0    0    0  0.00000000000E+00  0.00000000000E+00  0.45593999997E+02  0.45594000000E+02  0.51100000000E-03 0.  1.
         11   -1    0    0    0    0 -0.00000000000E+00 -0.00000000000E+00 -0.45593999997E+02  0.45594000000E+02  0.51100000000E-03 0. -1.
    9900012    2    1    2    0    0  0.79002717200E+01  0.13243819048E+02  0.27908959226E+02  0.59301905205E+02  0.49999929196E+02 0.  0.
         12    1    1    2    0    0 -0.79002717200E+01 -0.13243819048E+02 -0.27908959226E+02  0.31886094795E+02  0.00000000000E+00 0. -1.
         11    1    3    3    0    0 -0.13354146471E+02 -0.40929971479E-01 -0.49308649738E+01  0.14235460403E+02  0.51100000000E-03 0. -1.
        -11    1    3    3    0    0  0.81412169256E+01  0.54962030307E+01  0.27006091441E+02  0.28737025524E+02  0.51100000000E-03 0.  1.
         12    1    3    3    0    0  0.13113201265E+02  0.77885459884E+01  0.58337327586E+01  0.16329419278E+02  0.00000000000E+00 0. -1.
</event>
<event>
 7    1  0.4346085E-013  0.5930196E+02  0.7816164E-02  0.1266605E+00
        -11   -1    0    0    0    0  0.00000000000E+00  0.00000000000E+00  0.45593999997E+02  0.45594000000E+02  0.51100000000E-03 0.  1.
         11   -1    0    0    0    0 -0.00000000000E+00 -0.00000000000E+00 -0.45593999997E+02  0.45594000000E+02  0.51100000000E-03 0. -1.
    9900012    2    1    2    0    0  0.10032534003E+02 -0.30025991081E+02 -0.38089273517E+01  0.59301955929E+02  0.50000021706E+02 0.  0.
         12    1    1    2    0    0 -0.10032534003E+02  0.30025991081E+02  0.38089273517E+01  0.31886044071E+02  0.00000000000E+00 0. -1.
         11    1    3    3    0    0  0.11115479535E+02  0.35115471165E+01  0.39328923027E-01  0.11657032018E+02  0.51100000000E-03 0. -1.
        -11    1    3    3    0    0  0.99325945331E+01 -0.25928747885E+02  0.89007288651E+01  0.29157835579E+02  0.51100000000E-03 0.  1.
         12    1    3    3    0    0 -0.11015540065E+02 -0.76087903123E+01 -0.12748985140E+02  0.18487088333E+02  0.00000000000E+00 0. -1.
</event>
<event>
 7    1  0.4346085E-013  0.5930197E+02  0.7816164E-02  0.1266605E+00
        -11   -1    0    0    0    0  0.00000000000E+00  0.00000000000E+00  0.45593999997E+02  0.45594000000E+02  0.51100000000E-03 0.  1.
         11   -1    0    0    0    0 -0.00000000000E+00 -0.00000000000E+00 -0.45593999997E+02  0.45594000000E+02  0.51100000000E-03 0. -1.
    9900012    2    1    2    0    0  0.68003674626E+01  0.37383586174E+01  0.30927311509E+02  0.59301969831E+02  0.50000047059E+02 0.  0.
         12    1    1    2    0    0 -0.68003674626E+01 -0.37383586174E+01 -0.30927311509E+02  0.31886030169E+02  0.00000000000E+00 0. -1.
         11    1    3    3    0    0 -0.50111238304E+01 -0.52942793209E+01  0.24527260370E+01  0.76913341394E+01  0.51100000000E-03 0. -1.
        -11    1    3    3    0    0  0.21687290085E+02 -0.47297576532E+00  0.19829605389E+01  0.21782892142E+02  0.51100000000E-03 0.  1.
        -12    1    3    3    0    0 -0.98757987922E+01  0.95056137035E+01  0.26491624933E+02  0.29827743549E+02  0.00000000000E+00 0.  1.
</event>
<event>
 7    1  0.4346085E-013  0.5930194E+02  0.7816164E-02  0.1266605E+00
        -11   -1    0    0    0    0  0.00000000000E+00  0.00000000000E+00  0.45593999997E+02  0.45594000000E+02  0.51100000000E-03 0.  1.
         11   -1    0    0    0    0 -0.00000000000E+00 -0.00000000000E+00 -0.45593999997E+02  0.45594000000E+02  0.51100000000E-03 0. -1.
    9900012    2    1    2    0    0  0.10353987384E+02 -0.26236065453E+02  0.14872273745E+02  0.59301941737E+02  0.49999995823E+02 0.  0.
         12    1    1    2    0    0 -0.10353987384E+02  0.26236065453E+02 -0.14872273745E+02  0.31886058263E+02  0.00000000000E+00 0. -1.
         11    1    3    3    0    0 -0.63973320667E+01 -0.76941520927E+01 -0.12581832542E+02  0.16075706653E+02  0.51100000000E-03 0. -1.
        -11    1    3    3    0    0  0.41606645250E+01 -0.87868697981E+01  0.25362421074E+02  0.27161969979E+02  0.51100000000E-03 0.  1.
         12    1    3    3    0    0  0.12590654926E+02 -0.97550435619E+01  0.20916852138E+01  0.16064265106E+02  0.00000000000E+00 0. -1.
</event>
<event>
 7    1  0.4346085E-013  0.5930211E+02  0.7816164E-02  0.1266604E+00
        -11   -1    0    0    0    0  0.00000000000E+00  0.00000000000E+00  0.45593999997E+02  0.45594000000E+02  0.51100000000E-03 0. -1.
         11   -1    0    0    0    0 -0.00000000000E+00 -0.00000000000E+00 -0.45593999997E+02  0.45594000000E+02  0.51100000000E-03 0.  1.
    9900012    2    1    2    0    0 -0.26395419712E+02  0.17701367279E+02  0.25793700991E+01  0.59302113852E+02  0.50000309718E+02 0.  0.
         12    1    1    2    0    0  0.26395419712E+02 -0.17701367279E+02 -0.25793700991E+01  0.31885886148E+02  0.00000000000E+00 0. -1.
         11    1    3    3    0    0 -0.22694918463E+02  0.15919607748E+02 -0.20301693236E+02  0.34360616750E+02  0.51100000000E-03 0. -1.
        -11    1    3    3    0    0 -0.44455870447E+01 -0.25964477702E+01  0.15441780441E+02  0.16277388263E+02  0.51100000000E-03 0.  1.
         12    1    3    3    0    0  0.74508579518E+00  0.43782073008E+01  0.74392828939E+01  0.86641088397E+01  0.00000000000E+00 0. -1.
</event>
<event>
 7    1  0.4346085E-013  0.5930199E+02  0.7816164E-02  0.1266605E+00
        -11   -1    0    0    0    0  0.00000000000E+00  0.00000000000E+00  0.45593999997E+02  0.45594000000E+02  0.51100000000E-03 0.  1.
         11   -1    0    0    0    0 -0.00000000000E+00 -0.00000000000E+00 -0.45593999997E+02  0.45594000000E+02  0.51100000000E-03 0. -1.
    9900012    2    1    2    0    0 -0.71410091766E+01 -0.45990039202E+01  0.30733900898E+02  0.59301991884E+02  0.50000087279E+02 0.  0.
         12    1    1    2    0    0  0.71410091766E+01  0.45990039202E+01 -0.30733900898E+02  0.31886008116E+02  0.00000000000E+00 0. -1.
         11    1    3    3    0    0  0.40641664459E+01  0.22865073873E+01 -0.12655964368E+02  0.13487735143E+02  0.51100000000E-03 0. -1.
        -11    1    3    3    0    0 -0.96741926742E+01 -0.47772766668E+01  0.24836665444E+02  0.27079001586E+02  0.51100000000E-03 0.  1.
         12    1    3    3    0    0 -0.15309829484E+01 -0.21082346407E+01  0.18553199822E+02  0.18735255155E+02  0.00000000000E+00 0. -1.
</event>
<event>
 7    1  0.4346085E-013  0.5930195E+02  0.7816164E-02  0.1266605E+00
        -11   -1    0    0    0    0  0.00000000000E+00  0.00000000000E+00  0.45593999997E+02  0.45594000000E+02  0.51100000000E-03 0. -1.
         11   -1    0    0    0    0 -0.00000000000E+00 -0.00000000000E+00 -0.45593999997E+02  0.45594000000E+02  0.51100000000E-03 0.  1.
    9900012    2    1    2    0    0  0.33083652508E+01 -0.28137587733E+02 -0.14630484308E+02  0.59301949834E+02  0.50000010590E+02 0.  0.
         12    1    1    2    0    0 -0.33083652508E+01  0.28137587733E+02  0.14630484308E+02  0.31886050166E+02  0.00000000000E+00 0. -1.
         11    1    3    3    0    0  0.44690534764E+01  0.89591475744E+01 -0.10390461749E+02  0.14429153123E+02  0.51100000000E-03 0. -1.
        -11    1    3    3    0    0 -0.52847052869E+01 -0.29004296865E+02 -0.13030317792E+02  0.32233003717E+02  0.51100000000E-03 0.  1.
         12    1    3    3    0    0  0.41240170612E+01 -0.80924384428E+01  0.87902952322E+01  0.12639792994E+02  0.00000000000E+00 0. -1.
</event>
<event>
 7    1  0.4346085E-013  0.5930199E+02  0.7816164E-02  0.1266605E+00
        -11   -1    0    0    0    0  0.00000000000E+00  0.00000000000E+00  0.45593999997E+02  0.45594000000E+02  0.51100000000E-03 0.  1.
         11   -1    0    0    0    0 -0.00000000000E+00 -0.00000000000E+00 -0.45593999997E+02  0.45594000000E+02  0.51100000000E-03 0. -1.
    9900012    2    1    2    0    0 -0.85909410466E+01 -0.10924794615E+01  0.30687454466E+02  0.59301989885E+02  0.50000083634E+02 0.  0.
         12    1    1    2    0    0  0.85909410466E+01  0.10924794615E+01 -0.30687454466E+02  0.31886010115E+02  0.00000000000E+00 0. -1.
         11    1    3    3    0    0 -0.10284259185E+02  0.12142631185E+02  0.13677625597E+02  0.20983015067E+02  0.51100000000E-03 0.  1.
        -11    1    3    3    0    0  0.11693145593E+02  0.73333923626E+00  0.17584911734E+02  0.21130465239E+02  0.51100000000E-03 0. -1.
        -12    1    3    3    0    0 -0.99998274548E+01 -0.13968449883E+02 -0.57508286483E+00  0.17188509579E+02  0.00000000000E+00 0.  1.
</event>
<event>
 7    1  0.4346085E-013  0.5930195E+02  0.7816164E-02  0.1266605E+00
        -11   -1    0    0    0    0  0.00000000000E+00  0.00000000000E+00  0.45593999997E+02  0.45594000000E+02  0.51100000000E-03 0.  1.
         11   -1    0    0    0    0 -0.00000000000E+00 -0.00000000000E+00 -0.45593999997E+02  0.45594000000E+02  0.51100000000E-03 0. -1.
    9900012    2    1    2    0    0  0.22898814034E+02 -0.23360752209E+00  0.22188063068E+02  0.59301946632E+02  0.50000004750E+02 0.  0.
         12    1    1    2    0    0 -0.22898814034E+02  0.23360752209E+00 -0.22188063068E+02  0.31886053368E+02  0.00000000000E+00 0. -1.
         11    1    3    3    0    0 -0.51884647627E+00 -0.75166414998E+01  0.25444137421E+02  0.26536262556E+02  0.51100000000E-03 0. -1.
        -11    1    3    3    0    0  0.11861856024E+02  0.14584677401E+02 -0.33527876456E+01  0.19096010800E+02  0.51100000000E-03 0.  1.
         12    1    3    3    0    0  0.11555804487E+02 -0.73016434230E+01  0.96713293254E-01  0.13669673276E+02  0.00000000000E+00 0. -1.
</event>
<event>
 7    1  0.4346085E-013  0.5930193E+02  0.7816164E-02  0.1266605E+00
        -11   -1    0    0    0    0  0.00000000000E+00  0.00000000000E+00  0.45593999997E+02  0.45594000000E+02  0.51100000000E-03 0. -1.
         11   -1    0    0    0    0 -0.00000000000E+00 -0.00000000000E+00 -0.45593999997E+02  0.45594000000E+02  0.51100000000E-03 0.  1.
    9900012    2    1    2    0    0  0.14291889207E+02  0.25849177056E+02 -0.12011815406E+02  0.59301925282E+02  0.49999965812E+02 0.  0.
         12    1    1    2    0    0 -0.14291889207E+02 -0.25849177056E+02  0.12011815406E+02  0.31886074718E+02  0.00000000000E+00 0. -1.
         11    1    3    3    0    0  0.32998925449E+01 -0.19808234759E+01 -0.36495062794E-01  0.38489329172E+01  0.51100000000E-03 0. -1.
        -11    1    3    3    0    0  0.21178629608E+02  0.33898869488E+02 -0.21070286675E+01  0.40026332266E+02  0.51100000000E-03 0.  1.
        -12    1    3    3    0    0 -0.10186632946E+02 -0.60688689561E+01 -0.98682916761E+01  0.15426660098E+02  0.00000000000E+00 0.  1.
</event>
<event>
 7    1  0.4346085E-013  0.5930193E+02  0.7816164E-02  0.1266605E+00
        -11   -1    0    0    0    0  0.00000000000E+00  0.00000000000E+00  0.45593999997E+02  0.45594000000E+02  0.51100000000E-03 0.  1.
         11   -1    0    0    0    0 -0.00000000000E+00 -0.00000000000E+00 -0.45593999997E+02  0.45594000000E+02  0.51100000000E-03 0. -1.
    9900012    2    1    2    0    0  0.32255874076E+01 -0.87372375163E+01  0.30495539350E+02  0.59301926962E+02  0.49999968877E+02 0.  0.
         12    1    1    2    0    0 -0.32255874076E+01  0.87372375163E+01 -0.30495539350E+02  0.31886073038E+02  0.00000000000E+00 0. -1.
         11    1    3    3    0    0  0.20747067347E+02 -0.53018476722E+01  0.25353185103E+02  0.33186358453E+02  0.51100000000E-03 0. -1.
        -11    1    3    3    0    0 -0.74810638758E+01 -0.88989618728E+01  0.82671466769E+01  0.14265467170E+02  0.51100000000E-03 0.  1.
         12    1    3    3    0    0 -0.10040416064E+02  0.54635720287E+01 -0.31247924300E+01  0.11850101340E+02  0.00000000000E+00 0. -1.
</event>
<event>
 7    1  0.4346085E-013  0.5930185E+02  0.7816164E-02  0.1266605E+00
        -11   -1    0    0    0    0  0.00000000000E+00  0.00000000000E+00  0.45593999997E+02  0.45594000000E+02  0.51100000000E-03 0.  1.
         11   -1    0    0    0    0 -0.00000000000E+00 -0.00000000000E+00 -0.45593999997E+02  0.45594000000E+02  0.51100000000E-03 0. -1.
    9900012    2    1    2    0    0  0.28022657494E+02  0.12968982578E+02  0.79537914833E+01  0.59301848757E+02  0.49999826248E+02 0.  0.
         12    1    1    2    0    0 -0.28022657494E+02 -0.12968982578E+02 -0.79537914833E+01  0.31886151243E+02  0.00000000000E+00 0. -1.
         11    1    3    3    0    0 -0.17204135805E+01 -0.14653845399E+02 -0.10914320825E+01  0.14794804227E+02  0.51100000000E-03 0. -1.
        -11    1    3    3    0    0  0.13991583360E+02  0.21880939205E+02  0.97120356373E+01  0.27728388736E+02  0.51100000000E-03 0.  1.
         12    1    3    3    0    0  0.15751487715E+02  0.57418887720E+01 -0.66681207162E+00  0.16778655794E+02  0.00000000000E+00 0. -1.
</event>
<event>
 7    1  0.4346085E-013  0.5930195E+02  0.7816164E-02  0.1266605E+00
        -11   -1    0    0    0    0  0.00000000000E+00  0.00000000000E+00  0.45593999997E+02  0.45594000000E+02  0.51100000000E-03 0.  1.
         11   -1    0    0    0    0 -0.00000000000E+00 -0.00000000000E+00 -0.45593999997E+02  0.45594000000E+02  0.51100000000E-03 0. -1.
    9900012    2    1    2    0    0  0.66760134397E+01  0.21140455304E+02  0.22917946639E+02  0.59301948440E+02  0.50000008048E+02 0.  0.
         12    1    1    2    0    0 -0.66760134397E+01 -0.21140455304E+02 -0.22917946639E+02  0.31886051560E+02  0.00000000000E+00 0. -1.
         11    1    3    3    0    0 -0.25655225303E+01  0.10243225824E+02 -0.10943044489E+02  0.15207097162E+02  0.51100000000E-03 0. -1.
        -11    1    3    3    0    0 -0.17090507651E+01  0.13789924583E+02  0.28189113274E+02  0.31427837692E+02  0.51100000000E-03 0.  1.
        -12    1    3    3    0    0  0.10950586735E+02 -0.28926951039E+01  0.56718778541E+01  0.12667013586E+02  0.00000000000E+00 0.  1.
</event>
<event>
 7    1  0.4346085E-013  0.5930196E+02  0.7816164E-02  0.1266605E+00
        -11   -1    0    0    0    0  0.00000000000E+00  0.00000000000E+00  0.45593999997E+02  0.45594000000E+02  0.51100000000E-03 0.  1.
         11   -1    0    0    0    0 -0.00000000000E+00 -0.00000000000E+00 -0.45593999997E+02  0.45594000000E+02  0.51100000000E-03 0. -1.
    9900012    2    1    2    0    0 -0.20929833228E+02  0.49293843362E+01  0.23544913970E+02  0.59301957242E+02  0.50000024100E+02 0.  0.
         12    1    1    2    0    0  0.20929833228E+02 -0.49293843362E+01 -0.23544913970E+02  0.31886042758E+02  0.00000000000E+00 0. -1.
         11    1    3    3    0    0  0.82778123624E+01 -0.35342533687E+01  0.10822734021E+02  0.14076387900E+02  0.51100000000E-03 0. -1.
        -11    1    3    3    0    0 -0.32706346395E+02  0.28998559132E+01  0.23141810963E+01  0.32916100820E+02  0.51100000000E-03 0.  1.
        -12    1    3    3    0    0  0.34987008040E+01  0.55637817917E+01  0.10407998853E+02  0.12309468521E+02  0.00000000000E+00 0.  1.
</event>
<event>
 7    1  0.4346085E-013  0.5930193E+02  0.7816164E-02  0.1266605E+00
        -11   -1    0    0    0    0  0.00000000000E+00  0.00000000000E+00  0.45593999997E+02  0.45594000000E+02  0.51100000000E-03 0.  1.
         11   -1    0    0    0    0 -0.00000000000E+00 -0.00000000000E+00 -0.45593999997E+02  0.45594000000E+02  0.51100000000E-03 0. -1.
    9900012    2    1    2    0    0  0.23788583490E+02 -0.54082402447E+01  0.20532305520E+02  0.59301931930E+02  0.49999977937E+02 0.  0.
         12    1    1    2    0    0 -0.23788583490E+02  0.54082402447E+01 -0.20532305520E+02  0.31886068070E+02  0.00000000000E+00 0. -1.
         11    1    3    3    0    0  0.38754431488E+01 -0.15802099265E+02  0.76377593260E+01  0.17973891303E+02  0.51100000000E-03 0. -1.
        -11    1    3    3    0    0  0.50919153802E+00  0.17456513771E+02  0.98784990134E+00  0.17491855155E+02  0.51100000000E-03 0.  1.
        -12    1    3    3    0    0  0.19403948803E+02 -0.70626547508E+01  0.11906696292E+02  0.23836185473E+02  0.00000000000E+00 0.  1.
</event>
<event>
 7    1  0.4346085E-013  0.5930191E+02  0.7816164E-02  0.1266605E+00
        -11   -1    0    0    0    0  0.00000000000E+00  0.00000000000E+00  0.45593999997E+02  0.45594000000E+02  0.51100000000E-03 0.  1.
         11   -1    0    0    0    0 -0.00000000000E+00 -0.00000000000E+00 -0.45593999997E+02  0.45594000000E+02  0.51100000000E-03 0. -1.
    9900012    2    1    2    0    0  0.12093022988E+02  0.31631532805E+01  0.29333865788E+02  0.59301914857E+02  0.49999946800E+02 0.  0.
         12    1    1    2    0    0 -0.12093022988E+02 -0.31631532805E+01 -0.29333865788E+02  0.31886085143E+02  0.00000000000E+00 0. -1.
         11    1    3    3    0    0 -0.96997705989E+01 -0.10699454667E+02 -0.20604647976E+01  0.14587988048E+02  0.51100000000E-03 0. -1.
        -11    1    3    3    0    0  0.60549020694E+01 -0.41269932801E+01  0.11399345836E+02  0.13551346736E+02  0.51100000000E-03 0.  1.
         12    1    3    3    0    0  0.15737891518E+02  0.17989601227E+02  0.19994984750E+02  0.31162580074E+02  0.00000000000E+00 0. -1.
</event>
<event>
 7    1  0.4346085E-013  0.5930193E+02  0.7816164E-02  0.1266605E+00
        -11   -1    0    0    0    0  0.00000000000E+00  0.00000000000E+00  0.45593999997E+02  0.45594000000E+02  0.51100000000E-03 0.  1.
         11   -1    0    0    0    0 -0.00000000000E+00 -0.00000000000E+00 -0.45593999997E+02  0.45594000000E+02  0.51100000000E-03 0. -1.
    9900012    2    1    2    0    0 -0.12327602615E+02 -0.23086917891E+02  0.18213888950E+02  0.59301932280E+02  0.49999978575E+02 0.  0.
         12    1    1    2    0    0  0.12327602615E+02  0.23086917891E+02 -0.18213888950E+02  0.31886067720E+02  0.00000000000E+00 0. -1.
         11    1    3    3    0    0 -0.45240430430E+01 -0.21160772426E+02 -0.99625991538E+01  0.23822229898E+02  0.51100000000E-03 0. -1.
        -11    1    3    3    0    0 -0.12448285459E+02 -0.61577856216E+01  0.12873066057E+02  0.18936577426E+02  0.51100000000E-03 0.  1.
         12    1    3    3    0    0  0.46447258871E+01  0.42316401568E+01  0.15303422047E+02  0.16543124957E+02  0.00000000000E+00 0. -1.
</event>
<event>
 7    1  0.4346085E-013  0.5930196E+02  0.7816164E-02  0.1266605E+00
        -11   -1    0    0    0    0  0.00000000000E+00  0.00000000000E+00  0.45593999997E+02  0.45594000000E+02  0.51100000000E-03 0.  1.
         11   -1    0    0    0    0 -0.00000000000E+00 -0.00000000000E+00 -0.45593999997E+02  0.45594000000E+02  0.51100000000E-03 0. -1.
    9900012    2    1    2    0    0  0.22213077685E+02 -0.16152651914E+02  0.16198480435E+02  0.59301956776E+02  0.50000023249E+02 0.  0.
         12    1    1    2    0    0 -0.22213077685E+02  0.16152651914E+02 -0.16198480435E+02  0.31886043224E+02  0.00000000000E+00 0. -1.
         11    1    3    3    0    0 -0.73693247252E+01  0.25945620996E+01  0.10898822189E+02  0.13409810765E+02  0.51100000000E-03 0. -1.
        -11    1    3    3    0    0  0.12522705203E+02 -0.24328547774E+02  0.73890855202E+00  0.27372291984E+02  0.51100000000E-03 0.  1.
         12    1    3    3    0    0  0.17059697208E+02  0.55813337602E+01  0.45607496941E+01  0.18519854026E+02  0.00000000000E+00 0. -1.
</event>
<event>
 7    1  0.4346085E-013  0.5930193E+02  0.7816164E-02  0.1266605E+00
        -11   -1    0    0    0    0  0.00000000000E+00  0.00000000000E+00  0.45593999997E+02  0.45594000000E+02  0.51100000000E-03 0.  1.
         11   -1    0    0    0    0 -0.00000000000E+00 -0.00000000000E+00 -0.45593999997E+02  0.45594000000E+02  0.51100000000E-03 0. -1.
    9900012    2    1    2    0    0 -0.25272530331E+02 -0.12336750259E+02  0.15027475050E+02  0.59301934036E+02  0.49999981777E+02 0.  0.
         12    1    1    2    0    0  0.25272530331E+02  0.12336750259E+02 -0.15027475050E+02  0.31886065964E+02  0.00000000000E+00 0. -1.
         11    1    3    3    0    0 -0.59430110947E+01  0.17600853910E+02 -0.24323683975E+01  0.18735684016E+02  0.51100000000E-03 0. -1.
        -11    1    3    3    0    0 -0.11517509462E+02 -0.19329617992E+02  0.15315958856E+02  0.27218849202E+02  0.51100000000E-03 0.  1.
         12    1    3    3    0    0 -0.78120097743E+01 -0.10607986178E+02  0.21438845913E+01  0.13347400818E+02  0.00000000000E+00 0. -1.
</event>
<event>
 7    1  0.4346085E-013  0.5930192E+02  0.7816164E-02  0.1266605E+00
        -11   -1    0    0    0    0  0.00000000000E+00  0.00000000000E+00  0.45593999997E+02  0.45594000000E+02  0.51100000000E-03 0. -1.
         11   -1    0    0    0    0 -0.00000000000E+00 -0.00000000000E+00 -0.45593999997E+02  0.45594000000E+02  0.51100000000E-03 0.  1.
    9900012    2    1    2    0    0 -0.15410164976E+02 -0.24471948131E+02 -0.13430299674E+02  0.59301915586E+02  0.49999948129E+02 0.  0.
         12    1    1    2    0    0  0.15410164976E+02  0.24471948131E+02  0.13430299674E+02  0.31886084414E+02  0.00000000000E+00 0. -1.
         11    1    3    3    0    0  0.71722108567E+01 -0.20034425879E+02 -0.96009395233E+00  0.21301187984E+02  0.51100000000E-03 0.  1.
        -11    1    3    3    0    0 -0.18204529120E+02 -0.44656974448E+01  0.54763767012E+01  0.19527878435E+02  0.51100000000E-03 0. -1.
        -12    1    3    3    0    0 -0.43778467124E+01  0.28175192733E-01 -0.17946582423E+02  0.18472849167E+02  0.00000000000E+00 0.  1.
</event>
<event>
 7    1  0.4346085E-013  0.5930196E+02  0.7816164E-02  0.1266605E+00
        -11   -1    0    0    0    0  0.00000000000E+00  0.00000000000E+00  0.45593999997E+02  0.45594000000E+02  0.51100000000E-03 0. -1.
         11   -1    0    0    0    0 -0.00000000000E+00 -0.00000000000E+00 -0.45593999997E+02  0.45594000000E+02  0.51100000000E-03 0.  1.
    9900012    2    1    2    0    0 -0.17618118103E+02 -0.25173390118E+02  0.85218488918E+01  0.59301959731E+02  0.50000028638E+02 0.  0.
         12    1    1    2    0    0  0.17618118103E+02  0.25173390118E+02 -0.85218488918E+01  0.31886040269E+02  0.00000000000E+00 0. -1.
         11    1    3    3    0    0 -0.77220032340E+01 -0.29555131194E+02  0.82993076138E+01  0.31654598734E+02  0.51100000000E-03 0.  1.
        -11    1    3    3    0    0 -0.11352129846E+02  0.10992003139E+02 -0.74039856731E+01  0.17450329199E+02  0.51100000000E-03 0. -1.
         12    1    3    3    0    0  0.14560149773E+01 -0.66102620627E+01  0.76265269510E+01  0.10197031798E+02  0.00000000000E+00 0. -1.
</event>
<event>
 7    1  0.4346085E-013  0.5930193E+02  0.7816164E-02  0.1266605E+00
        -11   -1    0    0    0    0  0.00000000000E+00  0.00000000000E+00  0.45593999997E+02  0.45594000000E+02  0.51100000000E-03 0.  1.
         11   -1    0    0    0    0 -0.00000000000E+00 -0.00000000000E+00 -0.45593999997E+02  0.45594000000E+02  0.51100000000E-03 0. -1.
    9900012    2    1    2    0    0 -0.11741407762E+02 -0.21908505017E+02  0.19971933154E+02  0.59301931534E+02  0.49999977215E+02 0.  0.
         12    1    1    2    0    0  0.11741407762E+02  0.21908505017E+02 -0.19971933154E+02  0.31886068466E+02  0.00000000000E+00 0. -1.
         11    1    3    3    0    0  0.24524605438E+01  0.76311144665E+01 -0.38225568629E+01  0.88803385043E+01  0.51100000000E-03 0. -1.
        -11    1    3    3    0    0  0.39377255495E+01 -0.25530615087E+02  0.12636082230E+02  0.28757408847E+02  0.51100000000E-03 0.  1.
         12    1    3    3    0    0 -0.18131593855E+02 -0.40090043968E+01  0.11158407787E+02  0.21664184183E+02  0.00000000000E+00 0. -1.
</event>
<event>
 7    1  0.4346085E-013  0.5930195E+02  0.7816164E-02  0.1266605E+00
        -11   -1    0    0    0    0  0.00000000000E+00  0.00000000000E+00  0.45593999997E+02  0.45594000000E+02  0.51100000000E-03 0. -1.
         11   -1    0    0    0    0 -0.00000000000E+00 -0.00000000000E+00 -0.45593999997E+02  0.45594000000E+02  0.51100000000E-03 0.  1.
    9900012    2    1    2    0    0 -0.69353764817E+01  0.28877163993E+02  0.11607334744E+02  0.59301948706E+02  0.50000008533E+02 0.  0.
         12    1    1    2    0    0  0.69353764817E+01 -0.28877163993E+02 -0.11607334744E+02  0.31886051294E+02  0.00000000000E+00 0. -1.
         11    1    3    3    0    0  0.16814240279E+01  0.30039153053E+02  0.17734148386E+02  0.34923887558E+02  0.51100000000E-03 0. -1.
        -11    1    3    3    0    0  0.19697555252E+01 -0.75474926107E+01 -0.87683384937E+01  0.11735771885E+02  0.51100000000E-03 0.  1.
         12    1    3    3    0    0 -0.10586556035E+02  0.63855035505E+01  0.26415248515E+01  0.12642289263E+02  0.00000000000E+00 0. -1.
</event>
<event>
 7    1  0.4346085E-013  0.5930190E+02  0.7816164E-02  0.1266605E+00
        -11   -1    0    0    0    0  0.00000000000E+00  0.00000000000E+00  0.45593999997E+02  0.45594000000E+02  0.51100000000E-03 0.  1.
         11   -1    0    0    0    0 -0.00000000000E+00 -0.00000000000E+00 -0.45593999997E+02  0.45594000000E+02  0.51100000000E-03 0. -1.
    9900012    2    1    2    0    0  0.95420692086E+01  0.12557064921E+02  0.27712681337E+02  0.59301895329E+02  0.49999911185E+02 0.  0.
         12    1    1    2    0    0 -0.95420692086E+01 -0.12557064921E+02 -0.27712681337E+02  0.31886104671E+02  0.00000000000E+00 0. -1.
         11    1    3    3    0    0  0.18143058911E+02 -0.20824748665E+01  0.77780830012E+00  0.18278738310E+02  0.51100000000E-03 0. -1.
        -11    1    3    3    0    0 -0.86121160210E+01  0.21358981281E+02  0.15499920698E+02  0.27760082234E+02  0.51100000000E-03 0.  1.
         12    1    3    3    0    0  0.11126319016E-01 -0.67194414930E+01  0.11434952338E+02  0.13263074785E+02  0.00000000000E+00 0. -1.
</event>
<event>
 7    1  0.4346085E-013  0.5930195E+02  0.7816164E-02  0.1266605E+00
        -11   -1    0    0    0    0  0.00000000000E+00  0.00000000000E+00  0.45593999997E+02  0.45594000000E+02  0.51100000000E-03 0. -1.
         11   -1    0    0    0    0 -0.00000000000E+00 -0.00000000000E+00 -0.45593999997E+02  0.45594000000E+02  0.51100000000E-03 0.  1.
    9900012    2    1    2    0    0 -0.14960952614E+02 -0.27995200787E+02 -0.30263245035E+01  0.59301952734E+02  0.50000015879E+02 0.  0.
         12    1    1    2    0    0  0.14960952614E+02  0.27995200787E+02  0.30263245035E+01  0.31886047266E+02  0.00000000000E+00 0. -1.
         11    1    3    3    0    0 -0.98222150193E+01 -0.31465740042E+02 -0.19582645858E+02  0.38341214421E+02  0.51100000000E-03 0. -1.
        -11    1    3    3    0    0 -0.82742725044E+01  0.16670915897E+01  0.78245714346E+01  0.11509417806E+02  0.51100000000E-03 0.  1.
         12    1    3    3    0    0  0.31355349096E+01  0.18034476648E+01  0.87317499201E+01  0.94513205064E+01  0.00000000000E+00 0. -1.
</event>
<event>
 7    1  0.4346085E-013  0.5930198E+02  0.7816164E-02  0.1266605E+00
        -11   -1    0    0    0    0  0.00000000000E+00  0.00000000000E+00  0.45593999997E+02  0.45594000000E+02  0.51100000000E-03 0. -1.
         11   -1    0    0    0    0 -0.00000000000E+00 -0.00000000000E+00 -0.45593999997E+02  0.45594000000E+02  0.51100000000E-03 0.  1.
    9900012    2    1    2    0    0  0.25750318766E+01  0.26583729921E+01 -0.31670502281E+02  0.59301977187E+02  0.50000060474E+02 0.  0.
         12    1    1    2    0    0 -0.25750318766E+01 -0.26583729921E+01  0.31670502281E+02  0.31886022813E+02  0.00000000000E+00 0. -1.
         11    1    3    3    0    0  0.10400167994E+02 -0.13787946077E+02  0.98531004851E+00  0.17298606518E+02  0.51100000000E-03 0. -1.
        -11    1    3    3    0    0 -0.13437557181E+02  0.11243418164E+02 -0.28046453009E+02  0.33069410664E+02  0.51100000000E-03 0.  1.
        -12    1    3    3    0    0  0.56124210645E+01  0.52029009042E+01 -0.46093593201E+01  0.89339600047E+01  0.00000000000E+00 0.  1.
</event>
<event>
 7    1  0.4346085E-013  0.5930194E+02  0.7816164E-02  0.1266605E+00
        -11   -1    0    0    0    0  0.00000000000E+00  0.00000000000E+00  0.45593999997E+02  0.45594000000E+02  0.51100000000E-03 0.  1.
         11   -1    0    0    0    0 -0.00000000000E+00 -0.00000000000E+00 -0.45593999997E+02  0.45594000000E+02  0.51100000000E-03 0. -1.
    9900012    2    1    2    0    0  0.63078503670E+01  0.13215933886E+02  0.28324392153E+02  0.59301936029E+02  0.49999985412E+02 0.  0.
         12    1    1    2    0    0 -0.63078503670E+01 -0.13215933886E+02 -0.28324392153E+02  0.31886063971E+02  0.00000000000E+00 0. -1.
         11    1    3    3    0    0  0.18436429385E+02  0.22805789094E+02  0.84776232984E+01  0.30526644784E+02  0.51100000000E-03 0.  1.
        -11    1    3    3    0    0 -0.76983539197E+01 -0.55926205913E+01  0.20666914200E+02  0.22752217496E+02  0.51100000000E-03 0. -1.
         12    1    3    3    0    0 -0.44302250984E+01 -0.39972346167E+01 -0.82014534573E+00  0.60230737495E+01  0.00000000000E+00 0. -1.
</event>
<event>
 7    1  0.4346085E-013  0.5930195E+02  0.7816164E-02  0.1266605E+00
        -11   -1    0    0    0    0  0.00000000000E+00  0.00000000000E+00  0.45593999997E+02  0.45594000000E+02  0.51100000000E-03 0.  1.
         11   -1    0    0    0    0 -0.00000000000E+00 -0.00000000000E+00 -0.45593999997E+02  0.45594000000E+02  0.51100000000E-03 0. -1.
    9900012    2    1    2    0    0  0.92543209377E+01  0.30059913407E+02  0.52420849154E+01  0.59301948123E+02  0.50000007468E+02 0.  0.
         12    1    1    2    0    0 -0.92543209377E+01 -0.30059913407E+02 -0.52420849154E+01  0.31886051877E+02  0.00000000000E+00 0. -1.
         11    1    3    3    0    0  0.23260828181E+02  0.21540191295E+02 -0.59807704583E+01  0.32261673611E+02  0.51100000000E-03 0. -1.
        -11    1    3    3    0    0 -0.80648391081E+01 -0.42615013440E+01  0.89209792078E+01  0.12758757535E+02  0.51100000000E-03 0.  1.
         12    1    3    3    0    0 -0.59416681348E+01  0.12781223457E+02  0.23018761659E+01  0.14281516977E+02  0.00000000000E+00 0. -1.
</event>
<event>
 7    1  0.4346085E-013  0.5930190E+02  0.7816164E-02  0.1266605E+00
        -11   -1    0    0    0    0  0.00000000000E+00  0.00000000000E+00  0.45593999997E+02  0.45594000000E+02  0.51100000000E-03 0. -1.
         11   -1    0    0    0    0 -0.00000000000E+00 -0.00000000000E+00 -0.45593999997E+02  0.45594000000E+02  0.51100000000E-03 0.  1.
    9900012    2    1    2    0    0 -0.20991729246E+02 -0.13679644624E+02 -0.19721509702E+02  0.59301900855E+02  0.49999921263E+02 0.  0.
         12    1    1    2    0    0  0.20991729246E+02  0.13679644624E+02  0.19721509702E+02  0.31886099145E+02  0.00000000000E+00 0. -1.
         11    1    3    3    0    0  0.13643734923E+02 -0.17648498125E-01  0.37219777547E+01  0.14142310023E+02  0.51100000000E-03 0. -1.
        -11    1    3    3    0    0 -0.12571563372E+02 -0.40510997994E+00 -0.52037592888E+01  0.13612032571E+02  0.51100000000E-03 0.  1.
         12    1    3    3    0    0 -0.22063900796E+02 -0.13256886146E+02 -0.18239728168E+02  0.31547558261E+02  0.00000000000E+00 0. -1.
</event>
<event>
 7    1  0.4346085E-013  0.5930199E+02  0.7816164E-02  0.1266605E+00
        -11   -1    0    0    0    0  0.00000000000E+00  0.00000000000E+00  0.45593999997E+02  0.45594000000E+02  0.51100000000E-03 0.  1.
         11   -1    0    0    0    0 -0.00000000000E+00 -0.00000000000E+00 -0.45593999997E+02  0.45594000000E+02  0.51100000000E-03 0. -1.
    9900012    2    1    2    0    0 -0.90614869565E+01  0.80109217379E+01  0.29503088413E+02  0.59301989920E+02  0.50000083696E+02 0.  0.
         12    1    1    2    0    0  0.90614869565E+01 -0.80109217379E+01 -0.29503088413E+02  0.31886010080E+02  0.00000000000E+00 0. -1.
         11    1    3    3    0    0  0.52827862393E+01  0.13838036394E+02 -0.44207475007E+01  0.15457751790E+02  0.51100000000E-03 0. -1.
        -11    1    3    3    0    0 -0.60961589596E+01 -0.71933132296E+01  0.34203186721E+02  0.35479076812E+02  0.51100000000E-03 0.  1.
         12    1    3    3    0    0 -0.82481142363E+01  0.13661985737E+01 -0.27935080749E+00  0.83651613177E+01  0.00000000000E+00 0. -1.
</event>
<event>
 7    1  0.4346085E-013  0.5930197E+02  0.7816164E-02  0.1266605E+00
        -11   -1    0    0    0    0  0.00000000000E+00  0.00000000000E+00  0.45593999997E+02  0.45594000000E+02  0.51100000000E-03 0.  1.
         11   -1    0    0    0    0 -0.00000000000E+00 -0.00000000000E+00 -0.45593999997E+02  0.45594000000E+02  0.51100000000E-03 0. -1.
    9900012    2    1    2    0    0 -0.31159250105E+02 -0.64005221639E+01 -0.22030835782E+01  0.59301966564E+02  0.50000041100E+02 0.  0.
         12    1    1    2    0    0  0.31159250105E+02  0.64005221639E+01  0.22030835782E+01  0.31886033436E+02  0.00000000000E+00 0. -1.
         11    1    3    3    0    0 -0.14584312699E+02 -0.68593133205E+00 -0.72128914685E+01  0.16284915790E+02  0.51100000000E-03 0. -1.
        -11    1    3    3    0    0 -0.32023927562E+01  0.14811110011E+02 -0.58198461887E+01  0.16232526268E+02  0.51100000000E-03 0.  1.
        -12    1    3    3    0    0 -0.13372544650E+02 -0.20525700843E+02  0.10829654079E+02  0.26784524505E+02  0.00000000000E+00 0.  1.
</event>
<event>
 7    1  0.4346085E-013  0.5930196E+02  0.7816164E-02  0.1266605E+00
        -11   -1    0    0    0    0  0.00000000000E+00  0.00000000000E+00  0.45593999997E+02  0.45594000000E+02  0.51100000000E-03 0.  1.
         11   -1    0    0    0    0 -0.00000000000E+00 -0.00000000000E+00 -0.45593999997E+02  0.45594000000E+02  0.51100000000E-03 0. -1.
    9900012    2    1    2    0    0  0.31565781519E+02 -0.24342448458E+01  0.37941093949E+01  0.59301962665E+02  0.50000033989E+02 0.  0.
         12    1    1    2    0    0 -0.31565781519E+02  0.24342448458E+01 -0.37941093949E+01  0.31886037335E+02  0.00000000000E+00 0. -1.
         11    1    3    3    0    0  0.75035904783E+01  0.21800084247E+01  0.19936489551E+02  0.21413078310E+02  0.51100000000E-03 0. -1.
        -11    1    3    3    0    0  0.20418192389E+02  0.68831998431E+01 -0.13842502565E+02  0.25610464619E+02  0.51100000000E-03 0.  1.
         12    1    3    3    0    0  0.36439986519E+01 -0.11497453113E+02 -0.22998775920E+01  0.12278419736E+02  0.00000000000E+00 0. -1.
</event>
<event>
 7    1  0.4346085E-013  0.5930197E+02  0.7816164E-02  0.1266605E+00
        -11   -1    0    0    0    0  0.00000000000E+00  0.00000000000E+00  0.45593999997E+02  0.45594000000E+02  0.51100000000E-03 0.  1.
         11   -1    0    0    0    0 -0.00000000000E+00 -0.00000000000E+00 -0.45593999997E+02  0.45594000000E+02  0.51100000000E-03 0. -1.
    9900012    2    1    2    0    0 -0.13013864053E+02 -0.27840204793E+02 -0.85018237144E+01  0.59301973798E+02  0.50000054293E+02 0.  0.
         12    1    1    2    0    0  0.13013864053E+02  0.27840204793E+02  0.85018237144E+01  0.31886026202E+02  0.00000000000E+00 0. -1.
         11    1    3    3    0    0  0.14129272095E+02 -0.24767696400E+01 -0.81491845840E+01  0.16497876452E+02  0.51100000000E-03 0. -1.
        -11    1    3    3    0    0 -0.22711169869E+02 -0.70451764831E+01 -0.21282733649E+01  0.23873862198E+02  0.51100000000E-03 0.  1.
         12    1    3    3    0    0 -0.44319662785E+01 -0.18318258670E+02  0.17756342346E+01  0.18930235147E+02  0.00000000000E+00 0. -1.
</event>
<event>
 7    1  0.4346085E-013  0.5930202E+02  0.7816164E-02  0.1266604E+00
        -11   -1    0    0    0    0  0.00000000000E+00  0.00000000000E+00  0.45593999997E+02  0.45594000000E+02  0.51100000000E-03 0.  1.
         11   -1    0    0    0    0 -0.00000000000E+00 -0.00000000000E+00 -0.45593999997E+02  0.45594000000E+02  0.51100000000E-03 0. -1.
    9900012    2    1    2    0    0 -0.40565056105E+01 -0.74437439276E+01  0.30738428566E+02  0.59302022641E+02  0.50000143372E+02 0.  0.
         12    1    1    2    0    0  0.40565056105E+01  0.74437439276E+01 -0.30738428566E+02  0.31885977359E+02  0.00000000000E+00 0. -1.
         11    1    3    3    0    0 -0.15608148938E+02  0.89026323285E+01  0.76918739110E+01  0.19545743787E+02  0.51100000000E-03 0. -1.
        -11    1    3    3    0    0  0.10428955281E+02 -0.22168456986E+02  0.12139523954E+02  0.27341756262E+02  0.51100000000E-03 0.  1.
        -12    1    3    3    0    0  0.11226880465E+01  0.58220807303E+01  0.10907030701E+02  0.12414522592E+02  0.00000000000E+00 0.  1.
</event>
<event>
 7    1  0.4346085E-013  0.5930197E+02  0.7816164E-02  0.1266605E+00
        -11   -1    0    0    0    0  0.00000000000E+00  0.00000000000E+00  0.45593999997E+02  0.45594000000E+02  0.51100000000E-03 0.  1.
         11   -1    0    0    0    0 -0.00000000000E+00 -0.00000000000E+00 -0.45593999997E+02  0.45594000000E+02  0.51100000000E-03 0. -1.
    9900012    2    1    2    0    0 -0.60998623881E+01  0.38816728261E+01  0.31055489397E+02  0.59301966587E+02  0.50000041144E+02 0.  0.
         12    1    1    2    0    0  0.60998623881E+01 -0.38816728261E+01 -0.31055489397E+02  0.31886033413E+02  0.00000000000E+00 0. -1.
         11    1    3    3    0    0  0.17767035137E+02  0.25439345031E+01  0.16167987683E+02  0.24156634002E+02  0.51100000000E-03 0. -1.
        -11    1    3    3    0    0 -0.13995615719E+02  0.65563144242E+01  0.17832268443E+02  0.23597718454E+02  0.51100000000E-03 0.  1.
         12    1    3    3    0    0 -0.98712818067E+01 -0.52185761013E+01 -0.29447667286E+01  0.11547614131E+02  0.00000000000E+00 0. -1.
</event>
<event>
 7    1  0.4346085E-013  0.5930194E+02  0.7816164E-02  0.1266605E+00
        -11   -1    0    0    0    0  0.00000000000E+00  0.00000000000E+00  0.45593999997E+02  0.45594000000E+02  0.51100000000E-03 0.  1.
         11   -1    0    0    0    0 -0.00000000000E+00 -0.00000000000E+00 -0.45593999997E+02  0.45594000000E+02  0.51100000000E-03 0. -1.
    9900012    2    1    2    0    0  0.20152059570E+01 -0.30683099948E+02 -0.84384228894E+01  0.59301942572E+02  0.49999997344E+02 0.  0.
         12    1    1    2    0    0 -0.20152059570E+01  0.30683099948E+02  0.84384228894E+01  0.31886057428E+02  0.00000000000E+00 0. -1.
         11    1    3    3    0    0  0.43641671448E+01 -0.28920832300E+01 -0.25762075471E+02  0.26288678802E+02  0.51100000000E-03 0. -1.
        -11    1    3    3    0    0 -0.20392713469E+01 -0.17686112032E+02  0.12859385970E+02  0.21961807627E+02  0.51100000000E-03 0.  1.
         12    1    3    3    0    0 -0.30968984086E+00 -0.10104904686E+02  0.44642666118E+01  0.11051456143E+02  0.00000000000E+00 0. -1.
</event>
<event>
 7    1  0.4346085E-013  0.5930203E+02  0.7816164E-02  0.1266604E+00
        -11   -1    0    0    0    0  0.00000000000E+00  0.00000000000E+00  0.45593999997E+02  0.45594000000E+02  0.51100000000E-03 0. -1.
         11   -1    0    0    0    0 -0.00000000000E+00 -0.00000000000E+00 -0.45593999997E+02  0.45594000000E+02  0.51100000000E-03 0.  1.
    9900012    2    1    2    0    0  0.24485539930E+02 -0.10808507971E+02 -0.17330605111E+02  0.59302025282E+02  0.50000148189E+02 0.  0.
         12    1    1    2    0    0 -0.24485539930E+02  0.10808507971E+02  0.17330605111E+02  0.31885974718E+02  0.00000000000E+00 0. -1.
         11    1    3    3    0    0  0.39825181663E+00  0.46743855340E+01 -0.25943553755E+02  0.26364302880E+02  0.51100000000E-03 0. -1.
        -11    1    3    3    0    0  0.14078514503E+02 -0.76262249729E+01 -0.22988540038E+01  0.16175555877E+02  0.51100000000E-03 0.  1.
         12    1    3    3    0    0  0.10008773610E+02 -0.78566685318E+01  0.10911802648E+02  0.16762166526E+02  0.00000000000E+00 0. -1.
</event>
<event>
 7    1  0.4346085E-013  0.5930191E+02  0.7816164E-02  0.1266605E+00
        -11   -1    0    0    0    0  0.00000000000E+00  0.00000000000E+00  0.45593999997E+02  0.45594000000E+02  0.51100000000E-03 0.  1.
         11   -1    0    0    0    0 -0.00000000000E+00 -0.00000000000E+00 -0.45593999997E+02  0.45594000000E+02  0.51100000000E-03 0. -1.
    9900012    2    1    2    0    0  0.19415135041E+02 -0.21671878342E+02  0.13042427478E+02  0.59301910650E+02  0.49999939127E+02 0.  0.
         12    1    1    2    0    0 -0.19415135041E+02  0.21671878342E+02 -0.13042427478E+02  0.31886089350E+02  0.00000000000E+00 0. -1.
         11    1    3    3    0    0  0.11756819288E+02 -0.15277949783E+01 -0.50445418929E+01  0.12884267944E+02  0.51100000000E-03 0. -1.
        -11    1    3    3    0    0 -0.14226508677E+02 -0.13010209324E+02  0.11614346688E+02  0.22506713333E+02  0.51100000000E-03 0.  1.
        -12    1    3    3    0    0  0.21884824430E+02 -0.71338740395E+01  0.64726226833E+01  0.23910929374E+02  0.00000000000E+00 0.  1.
</event>
<event>
 7    1  0.4346085E-013  0.5930194E+02  0.7816164E-02  0.1266605E+00
        -11   -1    0    0    0    0  0.00000000000E+00  0.00000000000E+00  0.45593999997E+02  0.45594000000E+02  0.51100000000E-03 0. -1.
         11   -1    0    0    0    0 -0.00000000000E+00 -0.00000000000E+00 -0.45593999997E+02  0.45594000000E+02  0.51100000000E-03 0.  1.
    9900012    2    1    2    0    0  0.31519143216E+01  0.24102126278E+02 -0.20636707759E+02  0.59301940944E+02  0.49999994375E+02 0.  0.
         12    1    1    2    0    0 -0.31519143216E+01 -0.24102126278E+02  0.20636707759E+02  0.31886059056E+02  0.00000000000E+00 0. -1.
         11    1    3    3    0    0  0.67383388135E+01 -0.92203603305E+01  0.59113966913E+01  0.12859427114E+02  0.51100000000E-03 0. -1.
        -11    1    3    3    0    0 -0.23379587113E+01  0.25651517539E+02 -0.90592219913E+01  0.27304503408E+02  0.51100000000E-03 0.  1.
         12    1    3    3    0    0 -0.12484657806E+01  0.76709690700E+01 -0.17488882459E+02  0.19138010422E+02  0.00000000000E+00 0. -1.
</event>
<event>
 7    1  0.4346085E-013  0.5930194E+02  0.7816164E-02  0.1266605E+00
        -11   -1    0    0    0    0  0.00000000000E+00  0.00000000000E+00  0.45593999997E+02  0.45594000000E+02  0.51100000000E-03 0.  1.
         11   -1    0    0    0    0 -0.00000000000E+00 -0.00000000000E+00 -0.45593999997E+02  0.45594000000E+02  0.51100000000E-03 0. -1.
    9900012    2    1    2    0    0 -0.13656117874E+01  0.11771011800E+02  0.29602353758E+02  0.59301937804E+02  0.49999988650E+02 0.  0.
         12    1    1    2    0    0  0.13656117874E+01 -0.11771011800E+02 -0.29602353758E+02  0.31886062196E+02  0.00000000000E+00 0. -1.
         11    1    3    3    0    0 -0.10737970966E+02 -0.76653359687E+01  0.86032992619E+01  0.15750496958E+02  0.51100000000E-03 0. -1.
        -11    1    3    3    0    0  0.10276814345E+02  0.20889385886E+02  0.27959952842E+02  0.36383214796E+02  0.51100000000E-03 0.  1.
        -12    1    3    3    0    0 -0.90445516600E+00 -0.14530381172E+01 -0.69608983456E+01  0.71682260494E+01  0.00000000000E+00 0.  1.
</event>
<event>
 7    1  0.4346085E-013  0.5930195E+02  0.7816164E-02  0.1266605E+00
        -11   -1    0    0    0    0  0.00000000000E+00  0.00000000000E+00  0.45593999997E+02  0.45594000000E+02  0.51100000000E-03 0.  1.
         11   -1    0    0    0    0 -0.00000000000E+00 -0.00000000000E+00 -0.45593999997E+02  0.45594000000E+02  0.51100000000E-03 0. -1.
    9900012    2    1    2    0    0 -0.28690817028E+02 -0.55649404028E+01  0.12751024753E+02  0.59301950140E+02  0.50000011148E+02 0.  0.
         12    1    1    2    0    0  0.28690817028E+02  0.55649404028E+01 -0.12751024753E+02  0.31886049860E+02  0.00000000000E+00 0. -1.
         11    1    3    3    0    0  0.28781503817E+00  0.32471082101E+01 -0.52179370323E+01  0.61525130117E+01  0.51100000000E-03 0. -1.
        -11    1    3    3    0    0 -0.20570154224E+02 -0.14203344801E+02  0.28987672844E+02  0.38277296476E+02  0.51100000000E-03 0.  1.
        -12    1    3    3    0    0 -0.84084778414E+01  0.53912961879E+01 -0.11018711059E+02  0.14872140652E+02  0.00000000000E+00 0.  1.
</event>
<event>
 7    1  0.4346085E-013  0.5930197E+02  0.7816164E-02  0.1266605E+00
        -11   -1    0    0    0    0  0.00000000000E+00  0.00000000000E+00  0.45593999997E+02  0.45594000000E+02  0.51100000000E-03 0.  1.
         11   -1    0    0    0    0 -0.00000000000E+00 -0.00000000000E+00 -0.45593999997E+02  0.45594000000E+02  0.51100000000E-03 0. -1.
    9900012    2    1    2    0    0 -0.18200968480E+02  0.24757741866E+02  0.85145766892E+01  0.59301967758E+02  0.50000043279E+02 0.  0.
         12    1    1    2    0    0  0.18200968480E+02 -0.24757741866E+02 -0.85145766892E+01  0.31886032242E+02  0.00000000000E+00 0. -1.
         11    1    3    3    0    0  0.17353692522E+01 -0.39413397344E+00  0.22608803336E+02  0.22678730930E+02  0.51100000000E-03 0. -1.
        -11    1    3    3    0    0 -0.16593020241E+02  0.17572360470E+02 -0.14748766429E+02  0.28313288128E+02  0.51100000000E-03 0.  1.
         12    1    3    3    0    0 -0.33433174913E+01  0.75795153691E+01  0.65453978177E+00  0.83099487004E+01  0.00000000000E+00 0. -1.
</event>
<event>
 7    1  0.4346085E-013  0.5930194E+02  0.7816164E-02  0.1266605E+00
        -11   -1    0    0    0    0  0.00000000000E+00  0.00000000000E+00  0.45593999997E+02  0.45594000000E+02  0.51100000000E-03 0.  1.
         11   -1    0    0    0    0 -0.00000000000E+00 -0.00000000000E+00 -0.45593999997E+02  0.45594000000E+02  0.51100000000E-03 0. -1.
    9900012    2    1    2    0    0 -0.49328379319E+01  0.29734666810E+02 -0.10403719741E+02  0.59301942156E+02  0.49999996587E+02 0.  0.
         12    1    1    2    0    0  0.49328379319E+01 -0.29734666810E+02  0.10403719741E+02  0.31886057844E+02  0.00000000000E+00 0. -1.
         11    1    3    3    0    0 -0.11535993345E+02  0.29814308000E+02  0.36175552393E+01  0.32172329883E+02  0.51100000000E-03 0. -1.
        -11    1    3    3    0    0  0.37965665622E+01  0.12326804835E+01 -0.20000722586E+02  0.20395154402E+02  0.51100000000E-03 0.  1.
        -12    1    3    3    0    0  0.28065888507E+01 -0.13123216735E+01  0.59794476056E+01  0.67344578712E+01  0.00000000000E+00 0.  1.
</event>
<event>
 7    1  0.4346085E-013  0.5930197E+02  0.7816164E-02  0.1266605E+00
        -11   -1    0    0    0    0  0.00000000000E+00  0.00000000000E+00  0.45593999997E+02  0.45594000000E+02  0.51100000000E-03 0.  1.
         11   -1    0    0    0    0 -0.00000000000E+00 -0.00000000000E+00 -0.45593999997E+02  0.45594000000E+02  0.51100000000E-03 0. -1.
    9900012    2    1    2    0    0  0.18175133494E+02  0.69784502903E+01  0.25252424362E+02  0.59301965719E+02  0.50000039560E+02 0.  0.
         12    1    1    2    0    0 -0.18175133494E+02 -0.69784502903E+01 -0.25252424362E+02  0.31886034281E+02  0.00000000000E+00 0. -1.
         11    1    3    3    0    0  0.17879404093E+02  0.15675243795E+02  0.18622388096E+02  0.30202312782E+02  0.51100000000E-03 0. -1.
        -11    1    3    3    0    0  0.42261571726E+01 -0.16738608458E+02 -0.10636457682E+01  0.17296611233E+02  0.51100000000E-03 0.  1.
        -12    1    3    3    0    0 -0.39304277712E+01  0.80418149539E+01  0.76936820342E+01  0.11803041704E+02  0.00000000000E+00 0.  1.
</event>
<event>
 7    1  0.4346085E-013  0.5930195E+02  0.7816164E-02  0.1266605E+00
        -11   -1    0    0    0    0  0.00000000000E+00  0.00000000000E+00  0.45593999997E+02  0.45594000000E+02  0.51100000000E-03 0. -1.
         11   -1    0    0    0    0 -0.00000000000E+00 -0.00000000000E+00 -0.45593999997E+02  0.45594000000E+02  0.51100000000E-03 0.  1.
    9900012    2    1    2    0    0  0.18992347560E+02 -0.23097452266E+02  0.11068819355E+02  0.59301947737E+02  0.50000006765E+02 0.  0.
         12    1    1    2    0    0 -0.18992347560E+02  0.23097452266E+02 -0.11068819355E+02  0.31886052263E+02  0.00000000000E+00 0. -1.
         11    1    3    3    0    0 -0.14980230464E+02  0.16502269531E+01  0.65374524004E-02  0.15070852555E+02  0.51100000000E-03 0. -1.
        -11    1    3    3    0    0  0.98361895979E+01 -0.11843494077E+02  0.51160538938E+01  0.16223223646E+02  0.51100000000E-03 0.  1.
         12    1    3    3    0    0  0.24136388426E+02 -0.12904185142E+02  0.59462280085E+01  0.28007871536E+02  0.00000000000E+00 0. -1.
</event>
<event>
 7    1  0.4346085E-013  0.5930190E+02  0.7816164E-02  0.1266605E+00
        -11   -1    0    0    0    0  0.00000000000E+00  0.00000000000E+00  0.45593999997E+02  0.45594000000E+02  0.51100000000E-03 0. -1.
         11   -1    0    0    0    0 -0.00000000000E+00 -0.00000000000E+00 -0.45593999997E+02  0.45594000000E+02  0.51100000000E-03 0.  1.
    9900012    2    1    2    0    0  0.58730293261E+01  0.77109077104E+01 -0.30377174370E+02  0.59301901244E+02  0.49999921972E+02 0.  0.
         12    1    1    2    0    0 -0.58730293261E+01 -0.77109077104E+01  0.30377174370E+02  0.31886098756E+02  0.00000000000E+00 0. -1.
         11    1    3    3    0    0  0.91645963697E+01  0.68573458081E+00  0.55734652621E+01  0.10748189328E+02  0.51100000000E-03 0. -1.
        -11    1    3    3    0    0 -0.22228625322E+01 -0.12471887816E+02 -0.18132332610E+02  0.22119461785E+02  0.51100000000E-03 0.  1.
        -12    1    3    3    0    0 -0.10687045114E+01  0.19497060945E+02 -0.17818307022E+02  0.26434250131E+02  0.00000000000E+00 0.  1.
</event>
<event>
 7    1  0.4346085E-013  0.5930195E+02  0.7816164E-02  0.1266605E+00
        -11   -1    0    0    0    0  0.00000000000E+00  0.00000000000E+00  0.45593999997E+02  0.45594000000E+02  0.51100000000E-03 0.  1.
         11   -1    0    0    0    0 -0.00000000000E+00 -0.00000000000E+00 -0.45593999997E+02  0.45594000000E+02  0.51100000000E-03 0. -1.
    9900012    2    1    2    0    0 -0.30957751071E+02  0.26730791877E+01  0.71548783644E+01  0.59301953081E+02  0.50000016511E+02 0.  0.
         12    1    1    2    0    0  0.30957751071E+02 -0.26730791877E+01 -0.71548783644E+01  0.31886046919E+02  0.00000000000E+00 0. -1.
         11    1    3    3    0    0 -0.20573685572E+02  0.45778741249E+01  0.18541306386E+02  0.28071578371E+02  0.51100000000E-03 0. -1.
        -11    1    3    3    0    0  0.59565894006E+01 -0.84305025880E+01 -0.94005571027E-01  0.10322943790E+02  0.51100000000E-03 0.  1.
         12    1    3    3    0    0 -0.16340654900E+02  0.65257076508E+01 -0.11292422450E+02  0.20907430920E+02  0.00000000000E+00 0. -1.
</event>
<event>
 7    1  0.4346085E-013  0.5930196E+02  0.7816164E-02  0.1266605E+00
        -11   -1    0    0    0    0  0.00000000000E+00  0.00000000000E+00  0.45593999997E+02  0.45594000000E+02  0.51100000000E-03 0. -1.
         11   -1    0    0    0    0 -0.00000000000E+00 -0.00000000000E+00 -0.45593999997E+02  0.45594000000E+02  0.51100000000E-03 0.  1.
    9900012    2    1    2    0    0 -0.20915172198E+02  0.47757161601E+01 -0.23589562092E+02  0.59301963360E+02  0.50000035257E+02 0.  0.
         12    1    1    2    0    0  0.20915172198E+02 -0.47757161601E+01  0.23589562092E+02  0.31886036640E+02  0.00000000000E+00 0. -1.
         11    1    3    3    0    0 -0.15788079787E+01 -0.56025092160E+01  0.11252669853E+02  0.12668990616E+02  0.51100000000E-03 0. -1.
        -11    1    3    3    0    0 -0.56002443185E+01  0.13963342749E+02 -0.25599664587E+02  0.29693105334E+02  0.51100000000E-03 0.  1.
        -12    1    3    3    0    0 -0.13736119901E+02 -0.35851173727E+01 -0.92425673582E+01  0.16939867410E+02  0.00000000000E+00 0.  1.
</event>
<event>
 7    1  0.4346085E-013  0.5930198E+02  0.7816164E-02  0.1266605E+00
        -11   -1    0    0    0    0  0.00000000000E+00  0.00000000000E+00  0.45593999997E+02  0.45594000000E+02  0.51100000000E-03 0.  1.
         11   -1    0    0    0    0 -0.00000000000E+00 -0.00000000000E+00 -0.45593999997E+02  0.45594000000E+02  0.51100000000E-03 0. -1.
    9900012    2    1    2    0    0 -0.14638682924E+02  0.31903563946E+01  0.28146918575E+02  0.59301977405E+02  0.50000060872E+02 0.  0.
         12    1    1    2    0    0  0.14638682924E+02 -0.31903563946E+01 -0.28146918575E+02  0.31886022595E+02  0.00000000000E+00 0. -1.
         11    1    3    3    0    0  0.35744042296E+01  0.14389638776E+02  0.18982884331E+02  0.24087091304E+02  0.51100000000E-03 0. -1.
        -11    1    3    3    0    0 -0.17424934325E+02 -0.30612545793E+01  0.16528268293E+02  0.24211221961E+02  0.51100000000E-03 0.  1.
         12    1    3    3    0    0 -0.78815282909E+00 -0.81380278019E+01 -0.73642340488E+01  0.11003664140E+02  0.00000000000E+00 0. -1.
</event>
<event>
 7    1  0.4346085E-013  0.5930197E+02  0.7816164E-02  0.1266605E+00
        -11   -1    0    0    0    0  0.00000000000E+00  0.00000000000E+00  0.45593999997E+02  0.45594000000E+02  0.51100000000E-03 0. -1.
         11   -1    0    0    0    0 -0.00000000000E+00 -0.00000000000E+00 -0.45593999997E+02  0.45594000000E+02  0.51100000000E-03 0.  1.
    9900012    2    1    2    0    0  0.72605929161E+00 -0.27747731224E+02 -0.15692520017E+02  0.59301969600E+02  0.50000046638E+02 0.  0.
         12    1    1    2    0    0 -0.72605929161E+00  0.27747731224E+02  0.15692520017E+02  0.31886030400E+02  0.00000000000E+00 0. -1.
         11    1    3    3    0    0 -0.10245472047E+02 -0.23744215521E+02  0.53792627175E+01  0.26413896642E+02  0.51100000000E-03 0. -1.
        -11    1    3    3    0    0  0.61141368786E+01 -0.11108326745E+02 -0.20698353036E+02  0.24273430156E+02  0.51100000000E-03 0.  1.
         12    1    3    3    0    0  0.48573944596E+01  0.71048110423E+01 -0.37342969844E+00  0.86146428029E+01  0.00000000000E+00 0. -1.
</event>
<event>
 7    1  0.4346085E-013  0.5930191E+02  0.7816164E-02  0.1266605E+00
        -11   -1    0    0    0    0  0.00000000000E+00  0.00000000000E+00  0.45593999997E+02  0.45594000000E+02  0.51100000000E-03 0.  1.
         11   -1    0    0    0    0 -0.00000000000E+00 -0.00000000000E+00 -0.45593999997E+02  0.45594000000E+02  0.51100000000E-03 0. -1.
    9900012    2    1    2    0    0 -0.28433913374E+02 -0.55881097422E+01  0.13304455887E+02  0.59301906688E+02  0.49999931901E+02 0.  0.
         12    1    1    2    0    0  0.28433913374E+02  0.55881097422E+01 -0.13304455887E+02  0.31886093312E+02  0.00000000000E+00 0. -1.
         11    1    3    3    0    0  0.14156332488E+01  0.62753346362E+00 -0.36766677122E+01  0.39894487677E+01  0.51100000000E-03 0.  1.
        -11    1    3    3    0    0 -0.13883034957E+02 -0.86814284478E+01  0.30255917513E+02  0.34402418582E+02  0.51100000000E-03 0. -1.
        -12    1    3    3    0    0 -0.15966511666E+02  0.24657852419E+01 -0.13274793914E+02  0.20910039338E+02  0.00000000000E+00 0.  1.
</event>
<event>
 7    1  0.4346085E-013  0.5930195E+02  0.7816164E-02  0.1266605E+00
        -11   -1    0    0    0    0  0.00000000000E+00  0.00000000000E+00  0.45593999997E+02  0.45594000000E+02  0.51100000000E-03 0. -1.
         11   -1    0    0    0    0 -0.00000000000E+00 -0.00000000000E+00 -0.45593999997E+02  0.45594000000E+02  0.51100000000E-03 0.  1.
    9900012    2    1    2    0    0  0.29623024438E+01 -0.23653197866E+02 -0.21177130848E+02  0.59301954839E+02  0.50000019718E+02 0.  0.
         12    1    1    2    0    0 -0.29623024438E+01  0.23653197866E+02  0.21177130848E+02  0.31886045161E+02  0.00000000000E+00 0. -1.
         11    1    3    3    0    0 -0.13934538016E+02 -0.24350390188E+01 -0.51193332342E+01  0.15043548045E+02  0.51100000000E-03 0. -1.
        -11    1    3    3    0    0  0.13067896903E+02  0.32134385008E+01 -0.14037795645E+02  0.19446229025E+02  0.51100000000E-03 0.  1.
        -12    1    3    3    0    0  0.38289435567E+01 -0.24431597348E+02 -0.20200019686E+01  0.24812177770E+02  0.00000000000E+00 0.  1.
</event>
<event>
 7    1  0.4346085E-013  0.5930200E+02  0.7816164E-02  0.1266605E+00
        -11   -1    0    0    0    0  0.00000000000E+00  0.00000000000E+00  0.45593999997E+02  0.45594000000E+02  0.51100000000E-03 0.  1.
         11   -1    0    0    0    0 -0.00000000000E+00 -0.00000000000E+00 -0.45593999997E+02  0.45594000000E+02  0.51100000000E-03 0. -1.
    9900012    2    1    2    0    0 -0.14861637097E+02 -0.82097532544E+01  0.26989793715E+02  0.59301995696E+02  0.50000094230E+02 0.  0.
         12    1    1    2    0    0  0.14861637097E+02  0.82097532544E+01 -0.26989793715E+02  0.31886004304E+02  0.00000000000E+00 0. -1.
         11    1    3    3    0    0  0.78282999721E+01  0.17559439845E+01 -0.23746078878E+01  0.83668621724E+01  0.51100000000E-03 0. -1.
        -11    1    3    3    0    0 -0.25271956002E+02  0.32434219008E+01  0.10040869329E+02  0.27386321457E+02  0.51100000000E-03 0.  1.
         12    1    3    3    0    0  0.25820189329E+01 -0.13209119140E+02  0.19323532274E+02  0.23548812067E+02  0.00000000000E+00 0. -1.
</event>
<event>
 7    1  0.4346085E-013  0.5930192E+02  0.7816164E-02  0.1266605E+00
        -11   -1    0    0    0    0  0.00000000000E+00  0.00000000000E+00  0.45593999997E+02  0.45594000000E+02  0.51100000000E-03 0.  1.
         11   -1    0    0    0    0 -0.00000000000E+00 -0.00000000000E+00 -0.45593999997E+02  0.45594000000E+02  0.51100000000E-03 0. -1.
    9900012    2    1    2    0    0  0.11558662881E+02 -0.28278412972E+02  0.91351523057E+01  0.59301916273E+02  0.49999949382E+02 0.  0.
         12    1    1    2    0    0 -0.11558662881E+02  0.28278412972E+02 -0.91351523057E+01  0.31886083727E+02  0.00000000000E+00 0. -1.
         11    1    3    3    0    0 -0.80223076908E+01  0.20630647196E+01 -0.56084964773E+01  0.10003443893E+02  0.51100000000E-03 0. -1.
        -11    1    3    3    0    0  0.14687922638E+02 -0.31941169728E+02  0.21190169499E+02  0.41048711048E+02  0.51100000000E-03 0.  1.
         12    1    3    3    0    0  0.48930479338E+01  0.15996920368E+01 -0.64465207158E+01  0.82497613320E+01  0.00000000000E+00 0. -1.
</event>
<event>
 7    1  0.4346085E-013  0.5930194E+02  0.7816164E-02  0.1266605E+00
        -11   -1    0    0    0    0  0.00000000000E+00  0.00000000000E+00  0.45593999997E+02  0.45594000000E+02  0.51100000000E-03 0.  1.
         11   -1    0    0    0    0 -0.00000000000E+00 -0.00000000000E+00 -0.45593999997E+02  0.45594000000E+02  0.51100000000E-03 0. -1.
    9900012    2    1    2    0    0 -0.73304769897E+01  0.11475696189E+02  0.28832158287E+02  0.59301939606E+02  0.49999991937E+02 0.  0.
         12    1    1    2    0    0  0.73304769897E+01 -0.11475696189E+02 -0.28832158287E+02  0.31886060394E+02  0.00000000000E+00 0. -1.
         11    1    3    3    0    0 -0.35087789669E+01 -0.10823248676E+02 -0.84827974254E+00  0.11409374239E+02  0.51100000000E-03 0. -1.
        -11    1    3    3    0    0  0.10679027589E+02  0.19719049358E+02  0.14295087948E+02  0.26593835330E+02  0.51100000000E-03 0.  1.
        -12    1    3    3    0    0 -0.14500725612E+02  0.25798955062E+01  0.15385350082E+02  0.21298730038E+02  0.00000000000E+00 0.  1.
</event>
<event>
 7    1  0.4346085E-013  0.5930201E+02  0.7816164E-02  0.1266605E+00
        -11   -1    0    0    0    0  0.00000000000E+00  0.00000000000E+00  0.45593999997E+02  0.45594000000E+02  0.51100000000E-03 0.  1.
         11   -1    0    0    0    0 -0.00000000000E+00 -0.00000000000E+00 -0.45593999997E+02  0.45594000000E+02  0.51100000000E-03 0. -1.
    9900012    2    1    2    0    0  0.21243356471E+02  0.94113190798E+01  0.21837201664E+02  0.59302007817E+02  0.50000116336E+02 0.  0.
         12    1    1    2    0    0 -0.21243356471E+02 -0.94113190798E+01 -0.21837201664E+02  0.31885992183E+02  0.00000000000E+00 0. -1.
         11    1    3    3    0    0  0.85692733085E+01 -0.94755381564E+01 -0.66998868026E+01  0.14425905581E+02  0.51100000000E-03 0. -1.
        -11    1    3    3    0    0  0.66646404540E+01  0.25071772782E+02  0.20175135916E+02  0.32864073581E+02  0.51100000000E-03 0.  1.
        -12    1    3    3    0    0  0.60094427082E+01 -0.61849155459E+01  0.83619525504E+01  0.12012028656E+02  0.00000000000E+00 0.  1.
</event>
<event>
 7    1  0.4346085E-013  0.5930194E+02  0.7816164E-02  0.1266605E+00
        -11   -1    0    0    0    0  0.00000000000E+00  0.00000000000E+00  0.45593999997E+02  0.45594000000E+02  0.51100000000E-03 0.  1.
         11   -1    0    0    0    0 -0.00000000000E+00 -0.00000000000E+00 -0.45593999997E+02  0.45594000000E+02  0.51100000000E-03 0. -1.
    9900012    2    1    2    0    0  0.93591457030E+01  0.29812366875E+01  0.30335443541E+02  0.59301944815E+02  0.50000001435E+02 0.  0.
         12    1    1    2    0    0 -0.93591457030E+01 -0.29812366875E+01 -0.30335443541E+02  0.31886055185E+02  0.00000000000E+00 0. -1.
         11    1    3    3    0    0 -0.27025198763E+01 -0.14536073197E+02 -0.54077778850E+01  0.15743096887E+02  0.51100000000E-03 0. -1.
        -11    1    3    3    0    0  0.10421221624E+02  0.17211476727E+02  0.22392186451E+02  0.30103933391E+02  0.51100000000E-03 0.  1.
         12    1    3    3    0    0  0.16404439549E+01  0.30583315754E+00  0.13351034974E+02  0.13454914536E+02  0.00000000000E+00 0. -1.
</event>
<event>
 7    1  0.4346085E-013  0.5930193E+02  0.7816164E-02  0.1266605E+00
        -11   -1    0    0    0    0  0.00000000000E+00  0.00000000000E+00  0.45593999997E+02  0.45594000000E+02  0.51100000000E-03 0. -1.
         11   -1    0    0    0    0 -0.00000000000E+00 -0.00000000000E+00 -0.45593999997E+02  0.45594000000E+02  0.51100000000E-03 0.  1.
    9900012    2    1    2    0    0 -0.57966956119E+01  0.28001638875E+02 -0.14107729755E+02  0.59301929396E+02  0.49999973316E+02 0.  0.
         12    1    1    2    0    0  0.57966956119E+01 -0.28001638875E+02  0.14107729755E+02  0.31886070604E+02  0.00000000000E+00 0. -1.
         11    1    3    3    0    0  0.46239192638E+01 -0.17658157828E+01  0.49240660830E+01  0.69817735417E+01  0.51100000000E-03 0. -1.
        -11    1    3    3    0    0 -0.20069950630E+02  0.26359012363E+02 -0.24033792697E+02  0.40929495999E+02  0.51100000000E-03 0.  1.
        -12    1    3    3    0    0  0.96493357545E+01  0.34084422950E+01  0.50019968588E+01  0.11390659856E+02  0.00000000000E+00 0.  1.
</event>
<event>
 7    1  0.4346085E-013  0.5930192E+02  0.7816164E-02  0.1266605E+00
        -11   -1    0    0    0    0  0.00000000000E+00  0.00000000000E+00  0.45593999997E+02  0.45594000000E+02  0.51100000000E-03 0. -1.
         11   -1    0    0    0    0 -0.00000000000E+00 -0.00000000000E+00 -0.45593999997E+02  0.45594000000E+02  0.51100000000E-03 0.  1.
    9900012    2    1    2    0    0  0.26322674565E+02  0.20409852838E+01 -0.17879413151E+02  0.59301917898E+02  0.49999952345E+02 0.  0.
         12    1    1    2    0    0 -0.26322674565E+02 -0.20409852838E+01  0.17879413151E+02  0.31886082102E+02  0.00000000000E+00 0. -1.
         11    1    3    3    0    0  0.23918853303E+02 -0.10064172972E+02  0.71320343611E+01  0.26912172624E+02  0.51100000000E-03 0. -1.
        -11    1    3    3    0    0 -0.23332668140E+01  0.91155967357E+01 -0.33063336264E+01  0.99734688140E+01  0.51100000000E-03 0.  1.
         12    1    3    3    0    0  0.47370880763E+01  0.29895615202E+01 -0.21705113886E+02  0.22416276460E+02  0.00000000000E+00 0. -1.
</event>
<event>
 7    1  0.4346085E-013  0.5930200E+02  0.7816164E-02  0.1266605E+00
        -11   -1    0    0    0    0  0.00000000000E+00  0.00000000000E+00  0.45593999997E+02  0.45594000000E+02  0.51100000000E-03 0. -1.
         11   -1    0    0    0    0 -0.00000000000E+00 -0.00000000000E+00 -0.45593999997E+02  0.45594000000E+02  0.51100000000E-03 0.  1.
    9900012    2    1    2    0    0  0.84258968447E+01 -0.11403964709E+02 -0.28559952590E+02  0.59301999299E+02  0.50000100802E+02 0.  0.
         12    1    1    2    0    0 -0.84258968447E+01  0.11403964709E+02  0.28559952590E+02  0.31886000701E+02  0.00000000000E+00 0. -1.
         11    1    3    3    0    0  0.14491352856E+02  0.10788184161E+02 -0.11173287527E+02  0.21242094518E+02  0.51100000000E-03 0. -1.
        -11    1    3    3    0    0 -0.65790411253E+01 -0.27030773957E+02 -0.18030254346E+02  0.33151720843E+02  0.51100000000E-03 0.  1.
        -12    1    3    3    0    0  0.51358511425E+00  0.48386250872E+01  0.64358928268E+00  0.49081839380E+01  0.00000000000E+00 0.  1.
</event>
<event>
 7    1  0.4346085E-013  0.5930194E+02  0.7816164E-02  0.1266605E+00
        -11   -1    0    0    0    0  0.00000000000E+00  0.00000000000E+00  0.45593999997E+02  0.45594000000E+02  0.51100000000E-03 0. -1.
         11   -1    0    0    0    0 -0.00000000000E+00 -0.00000000000E+00 -0.45593999997E+02  0.45594000000E+02  0.51100000000E-03 0.  1.
    9900012    2    1    2    0    0 -0.24812914942E+02 -0.10988044681E+02 -0.16742244755E+02  0.59301942965E+02  0.49999998062E+02 0.  0.
         12    1    1    2    0    0  0.24812914942E+02  0.10988044681E+02  0.16742244755E+02  0.31886057035E+02  0.00000000000E+00 0. -1.
         11    1    3    3    0    0 -0.29081745437E+02 -0.12319516179E+02  0.23845445970E+01  0.31673402876E+02  0.51100000000E-03 0. -1.
        -11    1    3    3    0    0  0.54553833811E+01  0.91202532867E+01 -0.15878095269E+02  0.19106389965E+02  0.51100000000E-03 0.  1.
        -12    1    3    3    0    0 -0.11865528860E+01 -0.77887817883E+01 -0.32486940826E+01  0.85221501242E+01  0.00000000000E+00 0.  1.
</event>
<event>
 7    1  0.4346085E-013  0.5930197E+02  0.7816164E-02  0.1266605E+00
        -11   -1    0    0    0    0  0.00000000000E+00  0.00000000000E+00  0.45593999997E+02  0.45594000000E+02  0.51100000000E-03 0.  1.
         11   -1    0    0    0    0 -0.00000000000E+00 -0.00000000000E+00 -0.45593999997E+02  0.45594000000E+02  0.51100000000E-03 0. -1.
    9900012    2    1    2    0    0  0.23664859552E+02  0.19905342738E+02  0.77762959863E+01  0.59301968162E+02  0.50000044015E+02 0.  0.
         12    1    1    2    0    0 -0.23664859552E+02 -0.19905342738E+02 -0.77762959863E+01  0.31886031838E+02  0.00000000000E+00 0. -1.
         11    1    3    3    0    0  0.31619825444E+02  0.17009017142E+02  0.34091310460E+01  0.36065803748E+02  0.51100000000E-03 0. -1.
        -11    1    3    3    0    0 -0.82079091056E+01 -0.47644208101E+01  0.99524788698E+01  0.13752138505E+02  0.51100000000E-03 0.  1.
         12    1    3    3    0    0  0.25294321397E+00  0.76607464055E+01 -0.55853139295E+01  0.94840259094E+01  0.00000000000E+00 0. -1.
</event>
<event>
 7    1  0.4346085E-013  0.5930194E+02  0.7816164E-02  0.1266605E+00
        -11   -1    0    0    0    0  0.00000000000E+00  0.00000000000E+00  0.45593999997E+02  0.45594000000E+02  0.51100000000E-03 0.  1.
         11   -1    0    0    0    0 -0.00000000000E+00 -0.00000000000E+00 -0.45593999997E+02  0.45594000000E+02  0.51100000000E-03 0. -1.
    9900012    2    1    2    0    0 -0.11647066205E+02  0.28908760950E+02  0.67342749560E+01  0.59301936116E+02  0.49999985570E+02 0.  0.
         12    1    1    2    0    0  0.11647066205E+02 -0.28908760950E+02 -0.67342749560E+01  0.31886063884E+02  0.00000000000E+00 0. -1.
         11    1    3    3    0    0 -0.59567973254E+01 -0.92431109189E+01  0.35936530515E+01  0.11568616008E+02  0.51100000000E-03 0.  1.
        -11    1    3    3    0    0 -0.12307967469E+02  0.38374679238E+02  0.55638085026E+01  0.40682404490E+02  0.51100000000E-03 0. -1.
         12    1    3    3    0    0  0.66176985895E+01 -0.22280736867E+00 -0.24231865982E+01  0.70509156168E+01  0.00000000000E+00 0. -1.
</event>
<event>
 7    1  0.4346085E-013  0.5930199E+02  0.7816164E-02  0.1266605E+00
        -11   -1    0    0    0    0  0.00000000000E+00  0.00000000000E+00  0.45593999997E+02  0.45594000000E+02  0.51100000000E-03 0.  1.
         11   -1    0    0    0    0 -0.00000000000E+00 -0.00000000000E+00 -0.45593999997E+02  0.45594000000E+02  0.51100000000E-03 0. -1.
    9900012    2    1    2    0    0 -0.19278385062E+02  0.24641045612E+02 -0.61547162674E+01  0.59301987522E+02  0.50000079323E+02 0.  0.
         12    1    1    2    0    0  0.19278385062E+02 -0.24641045612E+02  0.61547162674E+01  0.31886012478E+02  0.00000000000E+00 0. -1.
         11    1    3    3    0    0 -0.28432844464E+02  0.29369938311E+01 -0.41813009352E+01  0.28888334235E+02  0.51100000000E-03 0.  1.
        -11    1    3    3    0    0  0.50926404051E+01  0.24383534598E+02  0.58402536436E+00  0.24916517246E+02  0.51100000000E-03 0. -1.
        -12    1    3    3    0    0  0.40618189975E+01 -0.26794828174E+01 -0.25574406966E+01  0.54971360410E+01  0.00000000000E+00 0.  1.
</event>
<event>
 7    1  0.4346085E-013  0.5930193E+02  0.7816164E-02  0.1266605E+00
        -11   -1    0    0    0    0  0.00000000000E+00  0.00000000000E+00  0.45593999997E+02  0.45594000000E+02  0.51100000000E-03 0.  1.
         11   -1    0    0    0    0 -0.00000000000E+00 -0.00000000000E+00 -0.45593999997E+02  0.45594000000E+02  0.51100000000E-03 0. -1.
    9900012    2    1    2    0    0  0.74165198377E+00  0.23195221389E+02 -0.21866718599E+02  0.59301925842E+02  0.49999966833E+02 0.  0.
         12    1    1    2    0    0 -0.74165198377E+00 -0.23195221389E+02  0.21866718599E+02  0.31886074158E+02  0.00000000000E+00 0. -1.
         11    1    3    3    0    0  0.82039725607E+01 -0.11289412933E+01 -0.93691664691E+01  0.12504437405E+02  0.51100000000E-03 0. -1.
        -11    1    3    3    0    0 -0.14228052844E+02  0.19967127620E+02 -0.22965570367E+02  0.33593765726E+02  0.51100000000E-03 0.  1.
        -12    1    3    3    0    0  0.67657322666E+01  0.43570350614E+01  0.10468018236E+02  0.13203722711E+02  0.00000000000E+00 0.  1.
</event>
<event>
 7    1  0.4346085E-013  0.5930194E+02  0.7816164E-02  0.1266605E+00
        -11   -1    0    0    0    0  0.00000000000E+00  0.00000000000E+00  0.45593999997E+02  0.45594000000E+02  0.51100000000E-03 0.  1.
         11   -1    0    0    0    0 -0.00000000000E+00 -0.00000000000E+00 -0.45593999997E+02  0.45594000000E+02  0.51100000000E-03 0. -1.
    9900012    2    1    2    0    0 -0.28220399872E+02 -0.98196633327E+01  0.11131221266E+02  0.59301939664E+02  0.49999992041E+02 0.  0.
         12    1    1    2    0    0  0.28220399872E+02  0.98196633327E+01 -0.11131221266E+02  0.31886060336E+02  0.00000000000E+00 0. -1.
         11    1    3    3    0    0  0.65152416065E+01 -0.13777452552E+01  0.82902288359E+01  0.10633647050E+02  0.51100000000E-03 0. -1.
        -11    1    3    3    0    0 -0.29006805848E+02  0.37487798561E+01 -0.91382047026E+01  0.30642371340E+02  0.51100000000E-03 0.  1.
        -12    1    3    3    0    0 -0.57288356307E+01 -0.12190697934E+02  0.11979197133E+02  0.18025921273E+02  0.00000000000E+00 0.  1.
</event>
<event>
 7    1  0.4346085E-013  0.5930195E+02  0.7816164E-02  0.1266605E+00
        -11   -1    0    0    0    0  0.00000000000E+00  0.00000000000E+00  0.45593999997E+02  0.45594000000E+02  0.51100000000E-03 0.  1.
         11   -1    0    0    0    0 -0.00000000000E+00 -0.00000000000E+00 -0.45593999997E+02  0.45594000000E+02  0.51100000000E-03 0. -1.
    9900012    2    1    2    0    0 -0.29475637470E+02 -0.10227972762E+02  0.65799482292E+01  0.59301947410E+02  0.50000006169E+02 0.  0.
         12    1    1    2    0    0  0.29475637470E+02  0.10227972762E+02 -0.65799482292E+01  0.31886052590E+02  0.00000000000E+00 0. -1.
         11    1    3    3    0    0 -0.44976359189E+01  0.58736250774E+01  0.11528088273E+01  0.74871335544E+01  0.51100000000E-03 0. -1.
        -11    1    3    3    0    0 -0.34785931619E+02 -0.19667405194E+02  0.86621688353E+01  0.40888886447E+02  0.51100000000E-03 0.  1.
        -12    1    3    3    0    0  0.98079300679E+01  0.35658073551E+01 -0.32350294334E+01  0.10925927409E+02  0.00000000000E+00 0.  1.
</event>
<event>
 7    1  0.4346085E-013  0.5930195E+02  0.7816164E-02  0.1266605E+00
        -11   -1    0    0    0    0  0.00000000000E+00  0.00000000000E+00  0.45593999997E+02  0.45594000000E+02  0.51100000000E-03 0.  1.
         11   -1    0    0    0    0 -0.00000000000E+00 -0.00000000000E+00 -0.45593999997E+02  0.45594000000E+02  0.51100000000E-03 0. -1.
    9900012    2    1    2    0    0 -0.13765821674E+02 -0.16222997995E+02  0.23749461473E+02  0.59301946143E+02  0.50000003858E+02 0.  0.
         12    1    1    2    0    0  0.13765821674E+02  0.16222997995E+02 -0.23749461473E+02  0.31886053857E+02  0.00000000000E+00 0. -1.
         11    1    3    3    0    0 -0.13079461206E+02 -0.14633213569E+02 -0.10858862109E+01  0.19656611965E+02  0.51100000000E-03 0. -1.
        -11    1    3    3    0    0  0.27393211386E+01  0.13464186676E+02  0.18290799444E+02  0.22876659452E+02  0.51100000000E-03 0.  1.
        -12    1    3    3    0    0 -0.34256816057E+01 -0.15053971102E+02  0.65445482407E+01  0.16768674726E+02  0.00000000000E+00 0.  1.
</event>
<event>
 7    1  0.4346085E-013  0.5930196E+02  0.7816164E-02  0.1266605E+00
        -11   -1    0    0    0    0  0.00000000000E+00  0.00000000000E+00  0.45593999997E+02  0.45594000000E+02  0.51100000000E-03 0. -1.
         11   -1    0    0    0    0 -0.00000000000E+00 -0.00000000000E+00 -0.45593999997E+02  0.45594000000E+02  0.51100000000E-03 0.  1.
    9900012    2    1    2    0    0 -0.19294828008E+02  0.21316350151E+02 -0.13785597238E+02  0.59301955046E+02  0.50000020095E+02 0.  0.
         12    1    1    2    0    0  0.19294828008E+02 -0.21316350151E+02  0.13785597238E+02  0.31886044954E+02  0.00000000000E+00 0. -1.
         11    1    3    3    0    0  0.64464063003E+01  0.28042717565E+02 -0.14996465539E+01  0.28813175852E+02  0.51100000000E-03 0. -1.
        -11    1    3    3    0    0 -0.11440115219E+02  0.82440375517E+00 -0.71714958718E+01  0.13527240335E+02  0.51100000000E-03 0.  1.
         12    1    3    3    0    0 -0.14301119089E+02 -0.75507711696E+01 -0.51144548119E+01  0.16961538859E+02  0.00000000000E+00 0. -1.
</event>
<event>
 7    1  0.4346085E-013  0.5930191E+02  0.7816164E-02  0.1266605E+00
        -11   -1    0    0    0    0  0.00000000000E+00  0.00000000000E+00  0.45593999997E+02  0.45594000000E+02  0.51100000000E-03 0. -1.
         11   -1    0    0    0    0 -0.00000000000E+00 -0.00000000000E+00 -0.45593999997E+02  0.45594000000E+02  0.51100000000E-03 0.  1.
    9900012    2    1    2    0    0 -0.31263232680E+02 -0.55930234666E+01 -0.28374087060E+01  0.59301913422E+02  0.49999944182E+02 0.  0.
         12    1    1    2    0    0  0.31263232680E+02  0.55930234666E+01  0.28374087060E+01  0.31886086578E+02  0.00000000000E+00 0. -1.
         11    1    3    3    0    0  0.34209433476E+01  0.18851296339E+01  0.22410847634E+01  0.45032242118E+01  0.51100000000E-03 0. -1.
        -11    1    3    3    0    0 -0.39661263400E+02  0.34989484920E+01  0.35537446542E+01  0.39973585733E+02  0.51100000000E-03 0.  1.
        -12    1    3    3    0    0  0.49770873721E+01 -0.10977101593E+02 -0.86322381237E+01  0.14825103477E+02  0.00000000000E+00 0.  1.
</event>
<event>
 7    1  0.4346085E-013  0.5930195E+02  0.7816164E-02  0.1266605E+00
        -11   -1    0    0    0    0  0.00000000000E+00  0.00000000000E+00  0.45593999997E+02  0.45594000000E+02  0.51100000000E-03 0.  1.
         11   -1    0    0    0    0 -0.00000000000E+00 -0.00000000000E+00 -0.45593999997E+02  0.45594000000E+02  0.51100000000E-03 0. -1.
    9900012    2    1    2    0    0 -0.39064872712E+01  0.29831411707E+02 -0.10561561525E+02  0.59301947421E+02  0.50000006189E+02 0.  0.
         12    1    1    2    0    0  0.39064872712E+01 -0.29831411707E+02  0.10561561525E+02  0.31886052579E+02  0.00000000000E+00 0. -1.
         11    1    3    3    0    0 -0.15518515416E+02  0.12278594284E+02  0.86541902447E+01  0.21598222319E+02  0.51100000000E-03 0.  1.
        -11    1    3    3    0    0  0.17290204199E+02  0.19815645128E+02 -0.16201035638E+02  0.30888258434E+02  0.51100000000E-03 0. -1.
        -12    1    3    3    0    0 -0.56781760550E+01 -0.22628277057E+01 -0.30147161322E+01  0.68154666675E+01  0.00000000000E+00 0.  1.
</event>
<event>
 7    1  0.4346085E-013  0.5930156E+02  0.7816164E-02  0.1266606E+00
        -11   -1    0    0    0    0  0.00000000000E+00  0.00000000000E+00  0.45593999997E+02  0.45594000000E+02  0.51100000000E-03 0.  1.
         11   -1    0    0    0    0 -0.00000000000E+00 -0.00000000000E+00 -0.45593999997E+02  0.45594000000E+02  0.51100000000E-03 0. -1.
    9900012    2    1    2    0    0  0.86164954268E+01 -0.17794134430E+02  0.25017384848E+02  0.59301564668E+02  0.49999308135E+02 0.  0.
         12    1    1    2    0    0 -0.86164954268E+01  0.17794134430E+02 -0.25017384848E+02  0.31886435332E+02  0.00000000000E+00 0. -1.
         11    1    3    3    0    0  0.12598517391E+02  0.26902386868E+01  0.35058717681E+01  0.13351073431E+02  0.51100000000E-03 0. -1.
        -11    1    3    3    0    0 -0.12836533581E+02 -0.26058648875E+02  0.10840057747E+02  0.31005429005E+02  0.51100000000E-03 0.  1.
        -12    1    3    3    0    0  0.88545116165E+01  0.55742757590E+01  0.10671455333E+02  0.14945062232E+02  0.00000000000E+00 0.  1.
</event>
<event>
 7    1  0.4346085E-013  0.5930192E+02  0.7816164E-02  0.1266605E+00
        -11   -1    0    0    0    0  0.00000000000E+00  0.00000000000E+00  0.45593999997E+02  0.45594000000E+02  0.51100000000E-03 0. -1.
         11   -1    0    0    0    0 -0.00000000000E+00 -0.00000000000E+00 -0.45593999997E+02  0.45594000000E+02  0.51100000000E-03 0.  1.
    9900012    2    1    2    0    0 -0.18058921196E+02 -0.18045808752E+02 -0.19103570425E+02  0.59301917593E+02  0.49999951789E+02 0.  0.
         12    1    1    2    0    0  0.18058921196E+02  0.18045808752E+02  0.19103570425E+02  0.31886082407E+02  0.00000000000E+00 0. -1.
         11    1    3    3    0    0 -0.61530752741E+01  0.81732431412E+01  0.12734187926E+02  0.16334680320E+02  0.51100000000E-03 0. -1.
        -11    1    3    3    0    0 -0.98509446754E+01 -0.19861325778E+02 -0.24243951789E+02  0.32852436306E+02  0.51100000000E-03 0.  1.
         12    1    3    3    0    0 -0.20549012467E+01 -0.63577261159E+01 -0.75938065613E+01  0.10114800966E+02  0.00000000000E+00 0. -1.
</event>
<event>
 7    1  0.4346085E-013  0.5930190E+02  0.7816164E-02  0.1266605E+00
        -11   -1    0    0    0    0  0.00000000000E+00  0.00000000000E+00  0.45593999997E+02  0.45594000000E+02  0.51100000000E-03 0.  1.
         11   -1    0    0    0    0 -0.00000000000E+00 -0.00000000000E+00 -0.45593999997E+02  0.45594000000E+02  0.51100000000E-03 0. -1.
    9900012    2    1    2    0    0 -0.28478552346E+02 -0.13064391998E+02 -0.59174998984E+01  0.59301904487E+02  0.49999927887E+02 0.  0.
         12    1    1    2    0    0  0.28478552346E+02  0.13064391998E+02  0.59174998984E+01  0.31886095513E+02  0.00000000000E+00 0. -1.
         11    1    3    3    0    0 -0.28152705149E+02 -0.11692655780E+02 -0.68491035277E+01  0.31244251084E+02  0.51100000000E-03 0. -1.
        -11    1    3    3    0    0 -0.76947429854E+00  0.26723721940E+01  0.14050158477E+02  0.14322730792E+02  0.51100000000E-03 0.  1.
         12    1    3    3    0    0  0.44362710139E+00 -0.40441084126E+01 -0.13118554848E+02  0.13734922612E+02  0.00000000000E+00 0. -1.
</event>
<event>
 7    1  0.4346085E-013  0.5930198E+02  0.7816164E-02  0.1266605E+00
        -11   -1    0    0    0    0  0.00000000000E+00  0.00000000000E+00  0.45593999997E+02  0.45594000000E+02  0.51100000000E-03 0.  1.
         11   -1    0    0    0    0 -0.00000000000E+00 -0.00000000000E+00 -0.45593999997E+02  0.45594000000E+02  0.51100000000E-03 0. -1.
    9900012    2    1    2    0    0  0.70914092470E+01 -0.15410809336E+02  0.26998831297E+02  0.59301983928E+02  0.50000072769E+02 0.  0.
         12    1    1    2    0    0 -0.70914092470E+01  0.15410809336E+02 -0.26998831297E+02  0.31886016072E+02  0.00000000000E+00 0. -1.
         11    1    3    3    0    0  0.20806505682E+00  0.93372928489E+01 -0.35883411618E+01  0.10005224703E+02  0.51100000000E-03 0. -1.
        -11    1    3    3    0    0 -0.17467125155E+01 -0.25900087389E+02  0.31178035083E+02  0.40570129446E+02  0.51100000000E-03 0.  1.
        -12    1    3    3    0    0  0.86300567057E+01  0.11519852047E+01 -0.59086262389E+00  0.87266297788E+01  0.00000000000E+00 0.  1.
</event>
<event>
 7    1  0.4346085E-013  0.5930197E+02  0.7816164E-02  0.1266605E+00
        -11   -1    0    0    0    0  0.00000000000E+00  0.00000000000E+00  0.45593999997E+02  0.45594000000E+02  0.51100000000E-03 0.  1.
         11   -1    0    0    0    0 -0.00000000000E+00 -0.00000000000E+00 -0.45593999997E+02  0.45594000000E+02  0.51100000000E-03 0. -1.
    9900012    2    1    2    0    0  0.23410040601E+02  0.13433109472E+02  0.16977640734E+02  0.59301973030E+02  0.50000052894E+02 0.  0.
         12    1    1    2    0    0 -0.23410040601E+02 -0.13433109472E+02 -0.16977640734E+02  0.31886026970E+02  0.00000000000E+00 0. -1.
         11    1    3    3    0    0  0.62198625199E+00  0.10579109222E+02  0.17704272398E+02  0.20633605604E+02  0.51100000000E-03 0. -1.
        -11    1    3    3    0    0  0.17365674552E+02 -0.11673591070E+02  0.59967816628E+01  0.21766965147E+02  0.51100000000E-03 0.  1.
        -12    1    3    3    0    0  0.54223797964E+01  0.14527591321E+02 -0.67234133272E+01  0.16901402279E+02  0.00000000000E+00 0.  1.
</event>
<event>
 7    1  0.4346085E-013  0.5930194E+02  0.7816164E-02  0.1266605E+00
        -11   -1    0    0    0    0  0.00000000000E+00  0.00000000000E+00  0.45593999997E+02  0.45594000000E+02  0.51100000000E-03 0.  1.
         11   -1    0    0    0    0 -0.00000000000E+00 -0.00000000000E+00 -0.45593999997E+02  0.45594000000E+02  0.51100000000E-03 0. -1.
    9900012    2    1    2    0    0  0.11744248383E+02  0.26078209107E+02  0.14096829167E+02  0.59301937953E+02  0.49999988921E+02 0.  0.
         12    1    1    2    0    0 -0.11744248383E+02 -0.26078209107E+02 -0.14096829167E+02  0.31886062047E+02  0.00000000000E+00 0. -1.
         11    1    3    3    0    0  0.26745328656E+01  0.97745302979E+01 -0.16068064973E+02  0.18996770273E+02  0.51100000000E-03 0. -1.
        -11    1    3    3    0    0  0.90196844413E+01  0.20500314404E+02  0.23800303315E+02  0.32681371395E+02  0.51100000000E-03 0.  1.
        -12    1    3    3    0    0  0.50031075710E-01 -0.41966355949E+01  0.63645908246E+01  0.76237962846E+01  0.00000000000E+00 0.  1.
</event>
<event>
 7    1  0.4346085E-013  0.5930193E+02  0.7816164E-02  0.1266605E+00
        -11   -1    0    0    0    0  0.00000000000E+00  0.00000000000E+00  0.45593999997E+02  0.45594000000E+02  0.51100000000E-03 0.  1.
         11   -1    0    0    0    0 -0.00000000000E+00 -0.00000000000E+00 -0.45593999997E+02  0.45594000000E+02  0.51100000000E-03 0. -1.
    9900012    2    1    2    0    0  0.11323621912E+02  0.16997390109E+02  0.24486436195E+02  0.59301933431E+02  0.49999980674E+02 0.  0.
         12    1    1    2    0    0 -0.11323621912E+02 -0.16997390109E+02 -0.24486436195E+02  0.31886066569E+02  0.00000000000E+00 0. -1.
         11    1    3    3    0    0  0.67855142297E+01 -0.88263278329E+01 -0.53308934238E+01  0.12343649838E+02  0.51100000000E-03 0. -1.
        -11    1    3    3    0    0 -0.84195755682E+01  0.19914863421E+02  0.21369833531E+02  0.30400013540E+02  0.51100000000E-03 0.  1.
        -12    1    3    3    0    0  0.12957683251E+02  0.59088545213E+01  0.84474960873E+01  0.16558270052E+02  0.00000000000E+00 0.  1.
</event>
<event>
 7    1  0.4346085E-013  0.5930196E+02  0.7816164E-02  0.1266605E+00
        -11   -1    0    0    0    0  0.00000000000E+00  0.00000000000E+00  0.45593999997E+02  0.45594000000E+02  0.51100000000E-03 0.  1.
         11   -1    0    0    0    0 -0.00000000000E+00 -0.00000000000E+00 -0.45593999997E+02  0.45594000000E+02  0.51100000000E-03 0. -1.
    9900012    2    1    2    0    0  0.93040352528E+01  0.26447191400E+02  0.15188824471E+02  0.59301962401E+02  0.50000033508E+02 0.  0.
         12    1    1    2    0    0 -0.93040352528E+01 -0.26447191400E+02 -0.15188824471E+02  0.31886037599E+02  0.00000000000E+00 0. -1.
         11    1    3    3    0    0 -0.16234891671E+02  0.19844805053E+00  0.93638763033E+01  0.18742819128E+02  0.51100000000E-03 0. -1.
        -11    1    3    3    0    0  0.10581628586E+01  0.70339215144E+01 -0.36937744865E+01  0.80149691656E+01  0.51100000000E-03 0.  1.
         12    1    3    3    0    0  0.24480764065E+02  0.19214821835E+02  0.95187226547E+01  0.32544174107E+02  0.00000000000E+00 0. -1.
</event>
<event>
 7    1  0.4346085E-013  0.5930193E+02  0.7816164E-02  0.1266605E+00
        -11   -1    0    0    0    0  0.00000000000E+00  0.00000000000E+00  0.45593999997E+02  0.45594000000E+02  0.51100000000E-03 0.  1.
         11   -1    0    0    0    0 -0.00000000000E+00 -0.00000000000E+00 -0.45593999997E+02  0.45594000000E+02  0.51100000000E-03 0. -1.
    9900012    2    1    2    0    0  0.70114428087E+01  0.14786038114E+02  0.27366666280E+02  0.59301926603E+02  0.49999968222E+02 0.  0.
         12    1    1    2    0    0 -0.70114428087E+01 -0.14786038114E+02 -0.27366666280E+02  0.31886073397E+02  0.00000000000E+00 0. -1.
         11    1    3    3    0    0 -0.78038360167E+01  0.18034784585E+02  0.17433119603E+02  0.26269125813E+02  0.51100000000E-03 0. -1.
        -11    1    3    3    0    0  0.16085934290E+02  0.88693817558E+01  0.98598413866E+01  0.20848013985E+02  0.51100000000E-03 0.  1.
         12    1    3    3    0    0 -0.12706554644E+01 -0.12118128226E+02  0.73705290014E-01  0.12184786805E+02  0.00000000000E+00 0. -1.
</event>
<event>
 7    1  0.4346085E-013  0.5930194E+02  0.7816164E-02  0.1266605E+00
        -11   -1    0    0    0    0  0.00000000000E+00  0.00000000000E+00  0.45593999997E+02  0.45594000000E+02  0.51100000000E-03 0. -1.
         11   -1    0    0    0    0 -0.00000000000E+00 -0.00000000000E+00 -0.45593999997E+02  0.45594000000E+02  0.51100000000E-03 0.  1.
    9900012    2    1    2    0    0  0.83284652808E+01  0.15237069424E+02 -0.26743026287E+02  0.59301936061E+02  0.49999985470E+02 0.  0.
         12    1    1    2    0    0 -0.83284652808E+01 -0.15237069424E+02  0.26743026287E+02  0.31886063939E+02  0.00000000000E+00 0. -1.
         11    1    3    3    0    0  0.30070425172E+01  0.61368987292E+01  0.44769531720E+01  0.81698800896E+01  0.51100000000E-03 0. -1.
        -11    1    3    3    0    0  0.11105688079E+02  0.11177071149E+01 -0.37711586301E+02  0.39328734005E+02  0.51100000000E-03 0.  1.
        -12    1    3    3    0    0 -0.57842653151E+01  0.79824635799E+01  0.64916068417E+01  0.11803321966E+02  0.00000000000E+00 0.  1.
</event>
<event>
 7    1  0.4346085E-013  0.5930194E+02  0.7816164E-02  0.1266605E+00
        -11   -1    0    0    0    0  0.00000000000E+00  0.00000000000E+00  0.45593999997E+02  0.45594000000E+02  0.51100000000E-03 0.  1.
         11   -1    0    0    0    0 -0.00000000000E+00 -0.00000000000E+00 -0.45593999997E+02  0.45594000000E+02  0.51100000000E-03 0. -1.
    9900012    2    1    2    0    0 -0.71901192076E+01 -0.15774048988E+02  0.26761963278E+02  0.59301935423E+02  0.49999984308E+02 0.  0.
         12    1    1    2    0    0  0.71901192076E+01  0.15774048988E+02 -0.26761963278E+02  0.31886064577E+02  0.00000000000E+00 0. -1.
         11    1    3    3    0    0  0.25445976661E+01  0.10260813743E+02  0.85227003908E+01  0.13579237761E+02  0.51100000000E-03 0. -1.
        -11    1    3    3    0    0 -0.19169729972E+02 -0.11375332653E+02  0.17384681818E+02  0.28268425891E+02  0.51100000000E-03 0.  1.
        -12    1    3    3    0    0  0.94350130984E+01 -0.14659530078E+02  0.85458106954E+00  0.17454271772E+02  0.00000000000E+00 0.  1.
</event>
<event>
 7    1  0.4346085E-013  0.5930196E+02  0.7816164E-02  0.1266605E+00
        -11   -1    0    0    0    0  0.00000000000E+00  0.00000000000E+00  0.45593999997E+02  0.45594000000E+02  0.51100000000E-03 0.  1.
         11   -1    0    0    0    0 -0.00000000000E+00 -0.00000000000E+00 -0.45593999997E+02  0.45594000000E+02  0.51100000000E-03 0. -1.
    9900012    2    1    2    0    0 -0.26771252534E+02  0.76908514161E+00  0.17303987503E+02  0.59301961712E+02  0.50000032252E+02 0.  0.
         12    1    1    2    0    0  0.26771252534E+02 -0.76908514161E+00 -0.17303987503E+02  0.31886038288E+02  0.00000000000E+00 0. -1.
         11    1    3    3    0    0  0.76888693840E+01 -0.94968848919E+01 -0.30225308386E+01  0.12587502849E+02  0.51100000000E-03 0. -1.
        -11    1    3    3    0    0 -0.21303738985E+02 -0.33274254573E+01  0.17109161556E+02  0.27525342220E+02  0.51100000000E-03 0.  1.
         12    1    3    3    0    0 -0.13156382933E+02  0.13593395491E+02  0.32173567848E+01  0.19189116643E+02  0.00000000000E+00 0. -1.
</event>
<event>
 7    1  0.4346085E-013  0.5930196E+02  0.7816164E-02  0.1266605E+00
        -11   -1    0    0    0    0  0.00000000000E+00  0.00000000000E+00  0.45593999997E+02  0.45594000000E+02  0.51100000000E-03 0. -1.
         11   -1    0    0    0    0 -0.00000000000E+00 -0.00000000000E+00 -0.45593999997E+02  0.45594000000E+02  0.51100000000E-03 0.  1.
    9900012    2    1    2    0    0 -0.94428424009E+01 -0.20187428092E+02 -0.22803951119E+02  0.59301957407E+02  0.50000024401E+02 0.  0.
         12    1    1    2    0    0  0.94428424009E+01  0.20187428092E+02  0.22803951119E+02  0.31886042593E+02  0.00000000000E+00 0. -1.
         11    1    3    3    0    0  0.23522229003E+01  0.10329172725E+02 -0.11912688494E+02  0.15941672095E+02  0.51100000000E-03 0. -1.
        -11    1    3    3    0    0  0.33019705647E+00 -0.12376472631E+02 -0.16692526908E+02  0.20782842918E+02  0.51100000000E-03 0.  1.
         12    1    3    3    0    0 -0.12125262358E+02 -0.18140128186E+02  0.58012642828E+01  0.22577442395E+02  0.00000000000E+00 0. -1.
</event>
<event>
 7    1  0.4346085E-013  0.5930199E+02  0.7816164E-02  0.1266605E+00
        -11   -1    0    0    0    0  0.00000000000E+00  0.00000000000E+00  0.45593999997E+02  0.45594000000E+02  0.51100000000E-03 0. -1.
         11   -1    0    0    0    0 -0.00000000000E+00 -0.00000000000E+00 -0.45593999997E+02  0.45594000000E+02  0.51100000000E-03 0.  1.
    9900012    2    1    2    0    0 -0.31518939607E+01  0.25531775077E+02 -0.18839096629E+02  0.59301991534E+02  0.50000086639E+02 0.  0.
         12    1    1    2    0    0  0.31518939607E+01 -0.25531775077E+02  0.18839096629E+02  0.31886008466E+02  0.00000000000E+00 0. -1.
         11    1    3    3    0    0 -0.13414213503E+02  0.28471357164E+02 -0.22081164585E+02  0.38446549030E+02  0.51100000000E-03 0.  1.
        -11    1    3    3    0    0  0.62630938914E+01 -0.93005312204E+01 -0.23907384940E+01  0.11464809500E+02  0.51100000000E-03 0. -1.
        -12    1    3    3    0    0  0.39992256507E+01  0.63609491337E+01  0.56328064501E+01  0.93906330027E+01  0.00000000000E+00 0.  1.
</event>
<event>
 7    1  0.4346085E-013  0.5930194E+02  0.7816164E-02  0.1266605E+00
        -11   -1    0    0    0    0  0.00000000000E+00  0.00000000000E+00  0.45593999997E+02  0.45594000000E+02  0.51100000000E-03 0. -1.
         11   -1    0    0    0    0 -0.00000000000E+00 -0.00000000000E+00 -0.45593999997E+02  0.45594000000E+02  0.51100000000E-03 0.  1.
    9900012    2    1    2    0    0 -0.60296282265E+01 -0.48597032020E+01 -0.30931338224E+02  0.59301940097E+02  0.49999992832E+02 0.  0.
         12    1    1    2    0    0  0.60296282265E+01  0.48597032020E+01  0.30931338224E+02  0.31886059903E+02  0.00000000000E+00 0. -1.
         11    1    3    3    0    0  0.28039059826E+01 -0.14280221731E+02  0.48153310360E+01  0.15328862798E+02  0.51100000000E-03 0. -1.
        -11    1    3    3    0    0  0.74686795872E+01  0.34250658794E+01 -0.12349548290E+02  0.14833192316E+02  0.51100000000E-03 0.  1.
         12    1    3    3    0    0 -0.16302213796E+02  0.59954526492E+01 -0.23397120971E+02  0.29139884984E+02  0.00000000000E+00 0. -1.
</event>
<event>
 7    1  0.4346085E-013  0.5930218E+02  0.7816164E-02  0.1266604E+00
        -11   -1    0    0    0    0  0.00000000000E+00  0.00000000000E+00  0.45593999997E+02  0.45594000000E+02  0.51100000000E-03 0. -1.
         11   -1    0    0    0    0 -0.00000000000E+00 -0.00000000000E+00 -0.45593999997E+02  0.45594000000E+02  0.51100000000E-03 0.  1.
    9900012    2    1    2    0    0 -0.25137437537E+02  0.14161231963E+02 -0.13574757484E+02  0.59302183445E+02  0.50000436638E+02 0.  0.
         12    1    1    2    0    0  0.25137437537E+02 -0.14161231963E+02  0.13574757484E+02  0.31885816555E+02  0.00000000000E+00 0. -1.
         11    1    3    3    0    0  0.55516933724E+01 -0.11435971433E+02 -0.10584588960E+02  0.16541954710E+02  0.51100000000E-03 0. -1.
        -11    1    3    3    0    0 -0.72041944153E+01  0.13714853554E+02  0.29700631502E+01  0.15773994439E+02  0.51100000000E-03 0.  1.
         12    1    3    3    0    0 -0.23484936494E+02  0.11882349842E+02 -0.59602316745E+01  0.26986234296E+02  0.00000000000E+00 0. -1.
</event>
<event>
 7    1  0.4346085E-013  0.5930197E+02  0.7816164E-02  0.1266605E+00
        -11   -1    0    0    0    0  0.00000000000E+00  0.00000000000E+00  0.45593999997E+02  0.45594000000E+02  0.51100000000E-03 0.  1.
         11   -1    0    0    0    0 -0.00000000000E+00 -0.00000000000E+00 -0.45593999997E+02  0.45594000000E+02  0.51100000000E-03 0. -1.
    9900012    2    1    2    0    0 -0.18893952890E+02  0.11534207364E-01  0.25685348820E+02  0.59301972765E+02  0.50000052409E+02 0.  0.
         12    1    1    2    0    0  0.18893952890E+02 -0.11534207364E-01 -0.25685348820E+02  0.31886027235E+02  0.00000000000E+00 0. -1.
         11    1    3    3    0    0 -0.11271890147E+02 -0.10078520779E+02  0.12104763598E+01  0.15168959815E+02  0.51100000000E-03 0. -1.
        -11    1    3    3    0    0  0.12427780598E+02  0.26761129334E+01  0.17534215950E+02  0.21657793984E+02  0.51100000000E-03 0.  1.
        -12    1    3    3    0    0 -0.20049843340E+02  0.74139420533E+01  0.69406565099E+01  0.22475218965E+02  0.00000000000E+00 0.  1.
</event>
<event>
 7    1  0.4346085E-013  0.5930195E+02  0.7816164E-02  0.1266605E+00
        -11   -1    0    0    0    0  0.00000000000E+00  0.00000000000E+00  0.45593999997E+02  0.45594000000E+02  0.51100000000E-03 0.  1.
         11   -1    0    0    0    0 -0.00000000000E+00 -0.00000000000E+00 -0.45593999997E+02  0.45594000000E+02  0.51100000000E-03 0. -1.
    9900012    2    1    2    0    0  0.28353564374E+02  0.14312554234E+02  0.28189769615E+01  0.59301945799E+02  0.50000003230E+02 0.  0.
         12    1    1    2    0    0 -0.28353564374E+02 -0.14312554234E+02 -0.28189769615E+01  0.31886054201E+02  0.00000000000E+00 0. -1.
         11    1    3    3    0    0 -0.28055554391E+01  0.21000234842E+02  0.71622209362E+01  0.22364668871E+02  0.51100000000E-03 0. -1.
        -11    1    3    3    0    0  0.13778828967E+02  0.15423543381E+01  0.59934429768E+01  0.15104845037E+02  0.51100000000E-03 0.  1.
         12    1    3    3    0    0  0.17380290846E+02 -0.82300349459E+01 -0.10336686952E+02  0.21832431890E+02  0.00000000000E+00 0. -1.
</event>
<event>
 7    1  0.4346085E-013  0.5930194E+02  0.7816164E-02  0.1266605E+00
        -11   -1    0    0    0    0  0.00000000000E+00  0.00000000000E+00  0.45593999997E+02  0.45594000000E+02  0.51100000000E-03 0.  1.
         11   -1    0    0    0    0 -0.00000000000E+00 -0.00000000000E+00 -0.45593999997E+02  0.45594000000E+02  0.51100000000E-03 0. -1.
    9900012    2    1    2    0    0 -0.28536839286E+02  0.13522051786E+02  0.44185924623E+01  0.59301936582E+02  0.49999986421E+02 0.  0.
         12    1    1    2    0    0  0.28536839286E+02 -0.13522051786E+02 -0.44185924623E+01  0.31886063418E+02  0.00000000000E+00 0. -1.
         11    1    3    3    0    0 -0.23024128802E+01  0.68938126675E+01 -0.19026740175E+02  0.20367685193E+02  0.51100000000E-03 0. -1.
        -11    1    3    3    0    0 -0.16887399417E+02 -0.34120801333E+01  0.14856880011E+02  0.22749800742E+02  0.51100000000E-03 0.  1.
         12    1    3    3    0    0 -0.93470269889E+01  0.10040319252E+02  0.85884526267E+01  0.16184450647E+02  0.00000000000E+00 0. -1.
</event>
<event>
 7    1  0.4346085E-013  0.5930200E+02  0.7816164E-02  0.1266605E+00
        -11   -1    0    0    0    0  0.00000000000E+00  0.00000000000E+00  0.45593999997E+02  0.45594000000E+02  0.51100000000E-03 0.  1.
         11   -1    0    0    0    0 -0.00000000000E+00 -0.00000000000E+00 -0.45593999997E+02  0.45594000000E+02  0.51100000000E-03 0. -1.
    9900012    2    1    2    0    0 -0.91534923266E+01 -0.26656565467E+02  0.14911672228E+02  0.59302001930E+02  0.50000105600E+02 0.  0.
         12    1    1    2    0    0  0.91534923266E+01  0.26656565467E+02 -0.14911672228E+02  0.31885998070E+02  0.00000000000E+00 0. -1.
         11    1    3    3    0    0  0.49271372735E+01  0.12766538158E+02  0.19864003166E+01  0.13827760655E+02  0.51100000000E-03 0. -1.
        -11    1    3    3    0    0 -0.14871164322E+02 -0.33270635817E+02  0.14252465370E+02  0.39130799958E+02  0.51100000000E-03 0.  1.
        -12    1    3    3    0    0  0.79053472194E+00 -0.61524678081E+01 -0.13271934589E+01  0.63434413179E+01  0.00000000000E+00 0.  1.
</event>
<event>
 7    1  0.4346085E-013  0.5930194E+02  0.7816164E-02  0.1266605E+00
        -11   -1    0    0    0    0  0.00000000000E+00  0.00000000000E+00  0.45593999997E+02  0.45594000000E+02  0.51100000000E-03 0.  1.
         11   -1    0    0    0    0 -0.00000000000E+00 -0.00000000000E+00 -0.45593999997E+02  0.45594000000E+02  0.51100000000E-03 0. -1.
    9900012    2    1    2    0    0 -0.45310259028E+01  0.22575972777E+01  0.31481646935E+02  0.59301936666E+02  0.49999986574E+02 0.  0.
         12    1    1    2    0    0  0.45310259028E+01 -0.22575972777E+01 -0.31481646935E+02  0.31886063334E+02  0.00000000000E+00 0. -1.
         11    1    3    3    0    0 -0.15567895344E+02 -0.54942939035E+00  0.45172360428E+01  0.16219329821E+02  0.51100000000E-03 0. -1.
        -11    1    3    3    0    0  0.73604835110E+01  0.17117114607E+02  0.12726718003E+02  0.22564168085E+02  0.51100000000E-03 0.  1.
        -12    1    3    3    0    0  0.36763859303E+01 -0.14310087939E+02  0.14237692889E+02  0.20518438760E+02  0.00000000000E+00 0.  1.
</event>
<event>
 7    1  0.4346085E-013  0.5930195E+02  0.7816164E-02  0.1266605E+00
        -11   -1    0    0    0    0  0.00000000000E+00  0.00000000000E+00  0.45593999997E+02  0.45594000000E+02  0.51100000000E-03 0. -1.
         11   -1    0    0    0    0 -0.00000000000E+00 -0.00000000000E+00 -0.45593999997E+02  0.45594000000E+02  0.51100000000E-03 0.  1.
    9900012    2    1    2    0    0 -0.15828159646E+02  0.20934314768E+02  0.18109217115E+02  0.59301954194E+02  0.50000018541E+02 0.  0.
         12    1    1    2    0    0  0.15828159646E+02 -0.20934314768E+02 -0.18109217115E+02  0.31886045806E+02  0.00000000000E+00 0. -1.
         11    1    3    3    0    0 -0.15502698641E+01 -0.60807008076E+01 -0.59682736040E+01  0.86601702660E+01  0.51100000000E-03 0.  1.
        -11    1    3    3    0    0 -0.22973530750E+02  0.27027145738E+02  0.21864318094E+02  0.41668910807E+02  0.51100000000E-03 0. -1.
         12    1    3    3    0    0  0.86956409681E+01 -0.12130161818E-01  0.22131726258E+01  0.89728731217E+01  0.00000000000E+00 0. -1.
</event>
<event>
 7    1  0.4346085E-013  0.5930195E+02  0.7816164E-02  0.1266605E+00
        -11   -1    0    0    0    0  0.00000000000E+00  0.00000000000E+00  0.45593999997E+02  0.45594000000E+02  0.51100000000E-03 0.  1.
         11   -1    0    0    0    0 -0.00000000000E+00 -0.00000000000E+00 -0.45593999997E+02  0.45594000000E+02  0.51100000000E-03 0. -1.
    9900012    2    1    2    0    0  0.19806524772E+02  0.17105554052E+02  0.18215981612E+02  0.59301946794E+02  0.50000005045E+02 0.  0.
         12    1    1    2    0    0 -0.19806524772E+02 -0.17105554052E+02 -0.18215981612E+02  0.31886053206E+02  0.00000000000E+00 0. -1.
         11    1    3    3    0    0  0.89760690790E+00  0.76266891929E+01 -0.14532282928E+02  0.16436524376E+02  0.51100000000E-03 0. -1.
        -11    1    3    3    0    0  0.76289535364E+01  0.13609229228E+02  0.19700569550E+02  0.25130151076E+02  0.51100000000E-03 0.  1.
         12    1    3    3    0    0  0.11279964328E+02 -0.41303643691E+01  0.13047694989E+02  0.17735271343E+02  0.00000000000E+00 0. -1.
</event>
<event>
 7    1  0.4346085E-013  0.5930196E+02  0.7816164E-02  0.1266605E+00
        -11   -1    0    0    0    0  0.00000000000E+00  0.00000000000E+00  0.45593999997E+02  0.45594000000E+02  0.51100000000E-03 0. -1.
         11   -1    0    0    0    0 -0.00000000000E+00 -0.00000000000E+00 -0.45593999997E+02  0.45594000000E+02  0.51100000000E-03 0.  1.
    9900012    2    1    2    0    0 -0.90727717728E+01  0.22737678396E+02 -0.20430429036E+02  0.59301958586E+02  0.50000026551E+02 0.  0.
         12    1    1    2    0    0  0.90727717728E+01 -0.22737678396E+02  0.20430429036E+02  0.31886041414E+02  0.00000000000E+00 0. -1.
         11    1    3    3    0    0  0.11678003561E+02 -0.36323541174E+01  0.30143597934E+01  0.12595877453E+02  0.51100000000E-03 0. -1.
        -11    1    3    3    0    0  0.69544505425E+00  0.14670285126E+02 -0.14641847789E+02  0.20738481536E+02  0.51100000000E-03 0.  1.
         12    1    3    3    0    0 -0.21446220388E+02  0.11699747387E+02 -0.88029410403E+01  0.25967599596E+02  0.00000000000E+00 0. -1.
</event>
<event>
 7    1  0.4346085E-013  0.5930203E+02  0.7816164E-02  0.1266604E+00
        -11   -1    0    0    0    0  0.00000000000E+00  0.00000000000E+00  0.45593999997E+02  0.45594000000E+02  0.51100000000E-03 0. -1.
         11   -1    0    0    0    0 -0.00000000000E+00 -0.00000000000E+00 -0.45593999997E+02  0.45594000000E+02  0.51100000000E-03 0.  1.
    9900012    2    1    2    0    0 -0.12299362721E+01  0.16469865519E+02 -0.27275372851E+02  0.59302028514E+02  0.50000154082E+02 0.  0.
         12    1    1    2    0    0  0.12299362721E+01 -0.16469865519E+02  0.27275372851E+02  0.31885971486E+02  0.00000000000E+00 0. -1.
         11    1    3    3    0    0  0.10118668348E+02  0.20158153716E+02  0.48233542244E+01  0.23065197953E+02  0.51100000000E-03 0. -1.
        -11    1    3    3    0    0 -0.68141620618E+01 -0.97105128879E+00 -0.47043297463E+01  0.83370536662E+01  0.51100000000E-03 0.  1.
         12    1    3    3    0    0 -0.45344425583E+01 -0.27172369086E+01 -0.27394397329E+02  0.27899776894E+02  0.00000000000E+00 0. -1.
</event>
<event>
 7    1  0.4346085E-013  0.5930195E+02  0.7816164E-02  0.1266605E+00
        -11   -1    0    0    0    0  0.00000000000E+00  0.00000000000E+00  0.45593999997E+02  0.45594000000E+02  0.51100000000E-03 0. -1.
         11   -1    0    0    0    0 -0.00000000000E+00 -0.00000000000E+00 -0.45593999997E+02  0.45594000000E+02  0.51100000000E-03 0.  1.
    9900012    2    1    2    0    0  0.30774929092E+02 -0.82419251112E+01  0.13017100660E+01  0.59301952279E+02  0.50000015049E+02 0.  0.
         12    1    1    2    0    0 -0.30774929092E+02  0.82419251112E+01 -0.13017100660E+01  0.31886047721E+02  0.00000000000E+00 0. -1.
         11    1    3    3    0    0  0.11643464785E+02  0.12354786844E+02 -0.79986616254E+01  0.18766715701E+02  0.51100000000E-03 0. -1.
        -11    1    3    3    0    0  0.23774869209E+02 -0.11701101255E+02 -0.50807549268E+00  0.26503175611E+02  0.51100000000E-03 0.  1.
         12    1    3    3    0    0 -0.46434049029E+01 -0.88956107002E+01  0.98084471840E+01  0.14032060967E+02  0.00000000000E+00 0. -1.
</event>
<event>
 7    1  0.4346085E-013  0.5930194E+02  0.7816164E-02  0.1266605E+00
        -11   -1    0    0    0    0  0.00000000000E+00  0.00000000000E+00  0.45593999997E+02  0.45594000000E+02  0.51100000000E-03 0. -1.
         11   -1    0    0    0    0 -0.00000000000E+00 -0.00000000000E+00 -0.45593999997E+02  0.45594000000E+02  0.51100000000E-03 0.  1.
    9900012    2    1    2    0    0  0.17700102040E+02 -0.53401100050E+01 -0.25979044181E+02  0.59301935275E+02  0.49999984037E+02 0.  0.
         12    1    1    2    0    0 -0.17700102040E+02  0.53401100050E+01  0.25979044181E+02  0.31886064725E+02  0.00000000000E+00 0. -1.
         11    1    3    3    0    0 -0.68706363080E+01  0.79029642446E+01 -0.66992351859E+01  0.12431501899E+02  0.51100000000E-03 0. -1.
        -11    1    3    3    0    0  0.25299992012E+02 -0.11013237286E+02 -0.27118361567E+02  0.38688325444E+02  0.51100000000E-03 0.  1.
         12    1    3    3    0    0 -0.72925366386E+00 -0.22298369636E+01  0.78385525715E+01  0.81821079318E+01  0.00000000000E+00 0. -1.
</event>
<event>
 7    1  0.4346085E-013  0.5930196E+02  0.7816164E-02  0.1266605E+00
        -11   -1    0    0    0    0  0.00000000000E+00  0.00000000000E+00  0.45593999997E+02  0.45594000000E+02  0.51100000000E-03 0.  1.
         11   -1    0    0    0    0 -0.00000000000E+00 -0.00000000000E+00 -0.45593999997E+02  0.45594000000E+02  0.51100000000E-03 0. -1.
    9900012    2    1    2    0    0 -0.19124780462E+02  0.22821647745E+02  0.11407647210E+02  0.59301964681E+02  0.50000037666E+02 0.  0.
         12    1    1    2    0    0  0.19124780462E+02 -0.22821647745E+02 -0.11407647210E+02  0.31886035319E+02  0.00000000000E+00 0. -1.
         11    1    3    3    0    0 -0.52000907808E+00 -0.45341090863E+01  0.23184700609E+02  0.23629619067E+02  0.51100000000E-03 0. -1.
        -11    1    3    3    0    0 -0.14776033787E+02  0.21051479347E+02 -0.62849224536E+01  0.26476332973E+02  0.51100000000E-03 0.  1.
         12    1    3    3    0    0 -0.38287375968E+01  0.63042774836E+01 -0.54921309451E+01  0.91960126410E+01  0.00000000000E+00 0. -1.
</event>
<event>
 7    1  0.4346085E-013  0.5930192E+02  0.7816164E-02  0.1266605E+00
        -11   -1    0    0    0    0  0.00000000000E+00  0.00000000000E+00  0.45593999997E+02  0.45594000000E+02  0.51100000000E-03 0.  1.
         11   -1    0    0    0    0 -0.00000000000E+00 -0.00000000000E+00 -0.45593999997E+02  0.45594000000E+02  0.51100000000E-03 0. -1.
    9900012    2    1    2    0    0  0.25409347589E+02  0.15624322903E+01  0.19200155638E+02  0.59301919712E+02  0.49999955655E+02 0.  0.
         12    1    1    2    0    0 -0.25409347589E+02 -0.15624322903E+01 -0.19200155638E+02  0.31886080288E+02  0.00000000000E+00 0. -1.
         11    1    3    3    0    0  0.45730401562E+01  0.19432704974E+01 -0.72117454467E+01  0.87577548005E+01  0.51100000000E-03 0. -1.
        -11    1    3    3    0    0  0.29842962332E+02 -0.59656445898E+01  0.25852575044E+02  0.39931778733E+02  0.51100000000E-03 0.  1.
        -12    1    3    3    0    0 -0.90066548985E+01  0.55848063827E+01  0.55932604105E+00  0.10612386179E+02  0.00000000000E+00 0.  1.
</event>
<event>
 7    1  0.4346085E-013  0.5930193E+02  0.7816164E-02  0.1266605E+00
        -11   -1    0    0    0    0  0.00000000000E+00  0.00000000000E+00  0.45593999997E+02  0.45594000000E+02  0.51100000000E-03 0.  1.
         11   -1    0    0    0    0 -0.00000000000E+00 -0.00000000000E+00 -0.45593999997E+02  0.45594000000E+02  0.51100000000E-03 0. -1.
    9900012    2    1    2    0    0  0.49562533815E+01 -0.27556126570E+02  0.15258336855E+02  0.59301930899E+02  0.49999976057E+02 0.  0.
         12    1    1    2    0    0 -0.49562533815E+01  0.27556126570E+02 -0.15258336855E+02  0.31886069101E+02  0.00000000000E+00 0. -1.
         11    1    3    3    0    0  0.22534684912E+02 -0.16281720927E+02  0.10373209023E+02  0.29673387507E+02  0.51100000000E-03 0. -1.
        -11    1    3    3    0    0 -0.66528678818E+01  0.55761979795E+01  0.39145142131E+01  0.95225026513E+01  0.51100000000E-03 0.  1.
         12    1    3    3    0    0 -0.10925563649E+02 -0.16850603622E+02  0.97061361882E+00  0.20106040741E+02  0.00000000000E+00 0. -1.
</event>
<event>
 7    1  0.4346085E-013  0.5930203E+02  0.7816164E-02  0.1266604E+00
        -11   -1    0    0    0    0  0.00000000000E+00  0.00000000000E+00  0.45593999997E+02  0.45594000000E+02  0.51100000000E-03 0.  1.
         11   -1    0    0    0    0 -0.00000000000E+00 -0.00000000000E+00 -0.45593999997E+02  0.45594000000E+02  0.51100000000E-03 0. -1.
    9900012    2    1    2    0    0 -0.24404781823E+02 -0.45670969602E+01  0.20006585113E+02  0.59302028189E+02  0.50000153489E+02 0.  0.
         12    1    1    2    0    0  0.24404781823E+02  0.45670969602E+01 -0.20006585113E+02  0.31885971811E+02  0.00000000000E+00 0. -1.
         11    1    3    3    0    0 -0.12978871000E+01  0.13519132936E+02 -0.73657125763E+01  0.15450087000E+02  0.51100000000E-03 0. -1.
        -11    1    3    3    0    0 -0.14271122030E+02 -0.76520982553E+00  0.15435528540E+02  0.21035826859E+02  0.51100000000E-03 0.  1.
         12    1    3    3    0    0 -0.88357726930E+01 -0.17321020071E+02  0.11936769150E+02  0.22816114330E+02  0.00000000000E+00 0. -1.
</event>
<event>
 7    1  0.4346085E-013  0.5930207E+02  0.7816164E-02  0.1266604E+00
        -11   -1    0    0    0    0  0.00000000000E+00  0.00000000000E+00  0.45593999997E+02  0.45594000000E+02  0.51100000000E-03 0.  1.
         11   -1    0    0    0    0 -0.00000000000E+00 -0.00000000000E+00 -0.45593999997E+02  0.45594000000E+02  0.51100000000E-03 0. -1.
    9900012    2    1    2    0    0  0.43156637951E+01  0.12449761389E+02  0.29036033962E+02  0.59302066097E+02  0.50000222625E+02 0.  0.
         12    1    1    2    0    0 -0.43156637951E+01 -0.12449761389E+02 -0.29036033962E+02  0.31885933903E+02  0.00000000000E+00 0. -1.
         11    1    3    3    0    0  0.69354339065E+01  0.87606442997E+01 -0.11245734482E+02  0.15852939043E+02  0.51100000000E-03 0. -1.
        -11    1    3    3    0    0  0.61479230112E+01  0.38531410201E+01  0.14446718025E+02  0.16166363692E+02  0.51100000000E-03 0.  1.
         12    1    3    3    0    0 -0.87676931226E+01 -0.16402393121E+00  0.25835050418E+02  0.27282763362E+02  0.00000000000E+00 0. -1.
</event>
<event>
 7    1  0.4346085E-013  0.5930193E+02  0.7816164E-02  0.1266605E+00
        -11   -1    0    0    0    0  0.00000000000E+00  0.00000000000E+00  0.45593999997E+02  0.45594000000E+02  0.51100000000E-03 0.  1.
         11   -1    0    0    0    0 -0.00000000000E+00 -0.00000000000E+00 -0.45593999997E+02  0.45594000000E+02  0.51100000000E-03 0. -1.
    9900012    2    1    2    0    0 -0.99560386546E+01 -0.17316123702E+02  0.24854586632E+02  0.59301932159E+02  0.49999978354E+02 0.  0.
         12    1    1    2    0    0  0.99560386546E+01  0.17316123702E+02 -0.24854586632E+02  0.31886067841E+02  0.00000000000E+00 0. -1.
         11    1    3    3    0    0  0.86541342224E+01 -0.13618619172E+02 -0.68493513159E+01  0.17529245306E+02  0.51100000000E-03 0. -1.
        -11    1    3    3    0    0 -0.19996813909E+02 -0.19821169388E+01  0.15392153072E+02  0.25312442208E+02  0.51100000000E-03 0.  1.
        -12    1    3    3    0    0  0.13866410323E+01 -0.17153875908E+01  0.16311784876E+02  0.16460244645E+02  0.00000000000E+00 0.  1.
</event>
<event>
 7    1  0.4346085E-013  0.5930193E+02  0.7816164E-02  0.1266605E+00
        -11   -1    0    0    0    0  0.00000000000E+00  0.00000000000E+00  0.45593999997E+02  0.45594000000E+02  0.51100000000E-03 0. -1.
         11   -1    0    0    0    0 -0.00000000000E+00 -0.00000000000E+00 -0.45593999997E+02  0.45594000000E+02  0.51100000000E-03 0.  1.
    9900012    2    1    2    0    0  0.23430201740E+02  0.14691626411E+02  0.15871449332E+02  0.59301934955E+02  0.49999983453E+02 0.  0.
         12    1    1    2    0    0 -0.23430201740E+02 -0.14691626411E+02 -0.15871449332E+02  0.31886065045E+02  0.00000000000E+00 0. -1.
         11    1    3    3    0    0 -0.72161330497E+01 -0.57872410243E+01  0.67922746493E-01  0.92503701885E+01  0.51100000000E-03 0. -1.
        -11    1    3    3    0    0  0.34632683912E+02  0.20235203533E+02  0.19508891391E+02  0.44603622057E+02  0.51100000000E-03 0.  1.
        -12    1    3    3    0    0 -0.39863491223E+01  0.24366390175E+00 -0.37053648056E+01  0.54479427093E+01  0.00000000000E+00 0.  1.
</event>
<event>
 7    1  0.4346085E-013  0.5930193E+02  0.7816164E-02  0.1266605E+00
        -11   -1    0    0    0    0  0.00000000000E+00  0.00000000000E+00  0.45593999997E+02  0.45594000000E+02  0.51100000000E-03 0. -1.
         11   -1    0    0    0    0 -0.00000000000E+00 -0.00000000000E+00 -0.45593999997E+02  0.45594000000E+02  0.51100000000E-03 0.  1.
    9900012    2    1    2    0    0 -0.94252392207E+01  0.27662706517E+02 -0.12753853110E+02  0.59301933523E+02  0.49999980842E+02 0.  0.
         12    1    1    2    0    0  0.94252392207E+01 -0.27662706517E+02  0.12753853110E+02  0.31886066477E+02  0.00000000000E+00 0. -1.
         11    1    3    3    0    0  0.11746355439E+02 -0.93555548326E+01 -0.22594235320E+01  0.15185791625E+02  0.51100000000E-03 0. -1.
        -11    1    3    3    0    0 -0.26237937612E+01  0.41760682548E+01 -0.26219191649E+01  0.55855438534E+01  0.51100000000E-03 0.  1.
         12    1    3    3    0    0 -0.18547800899E+02  0.32842193095E+02 -0.78725104130E+01  0.38530598044E+02  0.00000000000E+00 0. -1.
</event>
<event>
 7    1  0.4346085E-013  0.5930190E+02  0.7816164E-02  0.1266605E+00
        -11   -1    0    0    0    0  0.00000000000E+00  0.00000000000E+00  0.45593999997E+02  0.45594000000E+02  0.51100000000E-03 0.  1.
         11   -1    0    0    0    0 -0.00000000000E+00 -0.00000000000E+00 -0.45593999997E+02  0.45594000000E+02  0.51100000000E-03 0. -1.
    9900012    2    1    2    0    0  0.15086671887E+02 -0.78169628414E+01  0.26981673612E+02  0.59301901343E+02  0.49999922153E+02 0.  0.
         12    1    1    2    0    0 -0.15086671887E+02  0.78169628414E+01 -0.26981673612E+02  0.31886098657E+02  0.00000000000E+00 0. -1.
         11    1    3    3    0    0 -0.10313999110E+02  0.26447118554E+01  0.49050605352E+01  0.11723169263E+02  0.51100000000E-03 0. -1.
        -11    1    3    3    0    0  0.15108507649E+02 -0.14163914165E+02  0.28243257547E+02  0.35022350934E+02  0.51100000000E-03 0.  1.
         12    1    3    3    0    0  0.10292163348E+02  0.37022394682E+01 -0.61666444702E+01  0.12556381146E+02  0.00000000000E+00 0. -1.
</event>
<event>
 7    1  0.4346085E-013  0.5930214E+02  0.7816164E-02  0.1266604E+00
        -11   -1    0    0    0    0  0.00000000000E+00  0.00000000000E+00  0.45593999997E+02  0.45594000000E+02  0.51100000000E-03 0.  1.
         11   -1    0    0    0    0 -0.00000000000E+00 -0.00000000000E+00 -0.45593999997E+02  0.45594000000E+02  0.51100000000E-03 0. -1.
    9900012    2    1    2    0    0 -0.84664607748E+00 -0.65308981279E+01  0.31198380403E+02  0.59302135111E+02  0.50000348490E+02 0.  0.
         12    1    1    2    0    0  0.84664607748E+00  0.65308981279E+01 -0.31198380403E+02  0.31885864889E+02  0.00000000000E+00 0. -1.
         11    1    3    3    0    0  0.12974555182E+02 -0.43422914534E+01 -0.14076668733E+01  0.13754130417E+02  0.51100000000E-03 0.  1.
        -11    1    3    3    0    0 -0.16129222837E+02 -0.14067594340E+01  0.37887405560E+01  0.16627848829E+02  0.51100000000E-03 0. -1.
        -12    1    3    3    0    0  0.23080215772E+01 -0.78184724057E+00  0.28817306720E+02  0.28920155866E+02  0.00000000000E+00 0.  1.
</event>
<event>
 7    1  0.4346085E-013  0.5930195E+02  0.7816164E-02  0.1266605E+00
        -11   -1    0    0    0    0  0.00000000000E+00  0.00000000000E+00  0.45593999997E+02  0.45594000000E+02  0.51100000000E-03 0. -1.
         11   -1    0    0    0    0 -0.00000000000E+00 -0.00000000000E+00 -0.45593999997E+02  0.45594000000E+02  0.51100000000E-03 0.  1.
    9900012    2    1    2    0    0 -0.21736150293E+02  0.20833967261E+02 -0.10497878830E+02  0.59301954756E+02  0.50000019565E+02 0.  0.
         12    1    1    2    0    0  0.21736150293E+02 -0.20833967261E+02  0.10497878830E+02  0.31886045244E+02  0.00000000000E+00 0. -1.
         11    1    3    3    0    0 -0.22096145788E+02  0.60874254386E+01 -0.80287383332E+01  0.24284913972E+02  0.51100000000E-03 0. -1.
        -11    1    3    3    0    0  0.12676328175E+02  0.17852886716E+02 -0.38808316728E+01  0.22236809907E+02  0.51100000000E-03 0.  1.
         12    1    3    3    0    0 -0.12316332680E+02 -0.31063448937E+01  0.14116911764E+01  0.12780230877E+02  0.00000000000E+00 0. -1.
</event>
<event>
 7    1  0.4346085E-013  0.5930194E+02  0.7816164E-02  0.1266605E+00
        -11   -1    0    0    0    0  0.00000000000E+00  0.00000000000E+00  0.45593999997E+02  0.45594000000E+02  0.51100000000E-03 0.  1.
         11   -1    0    0    0    0 -0.00000000000E+00 -0.00000000000E+00 -0.45593999997E+02  0.45594000000E+02  0.51100000000E-03 0. -1.
    9900012    2    1    2    0    0  0.86600015908E+00  0.27178527134E+02  0.16652287336E+02  0.59301937732E+02  0.49999988517E+02 0.  0.
         12    1    1    2    0    0 -0.86600015908E+00 -0.27178527134E+02 -0.16652287336E+02  0.31886062268E+02  0.00000000000E+00 0. -1.
         11    1    3    3    0    0  0.17281423983E+02  0.22977175267E+01  0.39319768898E+01  0.17871417494E+02  0.51100000000E-03 0. -1.
        -11    1    3    3    0    0 -0.17040662592E+02  0.25142529534E+02  0.17332888432E+01  0.30422611056E+02  0.51100000000E-03 0.  1.
        -12    1    3    3    0    0  0.62523876827E+00 -0.26171992716E+00  0.10987021603E+02  0.11007909182E+02  0.00000000000E+00 0.  1.
</event>
<event>
 7    1  0.4346085E-013  0.5930193E+02  0.7816164E-02  0.1266605E+00
        -11   -1    0    0    0    0  0.00000000000E+00  0.00000000000E+00  0.45593999997E+02  0.45594000000E+02  0.51100000000E-03 0.  1.
         11   -1    0    0    0    0 -0.00000000000E+00 -0.00000000000E+00 -0.45593999997E+02  0.45594000000E+02  0.51100000000E-03 0. -1.
    9900012    2    1    2    0    0 -0.11442687488E+02  0.16553602387E+02  0.24733872873E+02  0.59301932255E+02  0.49999978529E+02 0.  0.
         12    1    1    2    0    0  0.11442687488E+02 -0.16553602387E+02 -0.24733872873E+02  0.31886067745E+02  0.00000000000E+00 0. -1.
         11    1    3    3    0    0 -0.65699634914E+01  0.23257457261E+02 -0.60408884701E+01  0.24911163608E+02  0.51100000000E-03 0. -1.
        -11    1    3    3    0    0 -0.32655832331E+01 -0.10239942356E+01  0.27356227090E+02  0.27569471502E+02  0.51100000000E-03 0.  1.
        -12    1    3    3    0    0 -0.16071407638E+01 -0.56798606381E+01  0.34185342531E+01  0.68212971452E+01  0.00000000000E+00 0.  1.
</event>
<event>
 7    1  0.4346085E-013  0.5930194E+02  0.7816164E-02  0.1266605E+00
        -11   -1    0    0    0    0  0.00000000000E+00  0.00000000000E+00  0.45593999997E+02  0.45594000000E+02  0.51100000000E-03 0.  1.
         11   -1    0    0    0    0 -0.00000000000E+00 -0.00000000000E+00 -0.45593999997E+02  0.45594000000E+02  0.51100000000E-03 0. -1.
    9900012    2    1    2    0    0 -0.11333188639E+01  0.88654633762E+01  0.30607846444E+02  0.59301935388E+02  0.49999984243E+02 0.  0.
         12    1    1    2    0    0  0.11333188639E+01 -0.88654633762E+01 -0.30607846444E+02  0.31886064612E+02  0.00000000000E+00 0. -1.
         11    1    3    3    0    0  0.20278074655E+02 -0.56913292170E+01  0.21191861838E+02  0.29877860506E+02  0.51100000000E-03 0. -1.
        -11    1    3    3    0    0 -0.28470015887E+01  0.63957769533E+01  0.51762156589E+01  0.87065831238E+01  0.51100000000E-03 0.  1.
         12    1    3    3    0    0 -0.18564391931E+02  0.81610156399E+01  0.42397689468E+01  0.20717491758E+02  0.00000000000E+00 0. -1.
</event>
<event>
 7    1  0.4346085E-013  0.5930198E+02  0.7816164E-02  0.1266605E+00
        -11   -1    0    0    0    0  0.00000000000E+00  0.00000000000E+00  0.45593999997E+02  0.45594000000E+02  0.51100000000E-03 0.  1.
         11   -1    0    0    0    0 -0.00000000000E+00 -0.00000000000E+00 -0.45593999997E+02  0.45594000000E+02  0.51100000000E-03 0. -1.
    9900012    2    1    2    0    0 -0.12049063281E+02 -0.70263588009E+01  0.28673488023E+02  0.59301975485E+02  0.50000057371E+02 0.  0.
         12    1    1    2    0    0  0.12049063281E+02  0.70263588009E+01 -0.28673488023E+02  0.31886024515E+02  0.00000000000E+00 0. -1.
         11    1    3    3    0    0  0.25113795502E+01  0.31446356779E+01 -0.86462272159E+00  0.41162280676E+01  0.51100000000E-03 0. -1.
        -11    1    3    3    0    0 -0.50270314280E+01 -0.26800633989E+02  0.19701672215E+02  0.33640762707E+02  0.51100000000E-03 0.  1.
        -12    1    3    3    0    0 -0.95334114034E+01  0.16629639510E+02  0.98364385292E+01  0.21544984710E+02  0.00000000000E+00 0.  1.
</event>
<event>
 7    1  0.4346085E-013  0.5930194E+02  0.7816164E-02  0.1266605E+00
        -11   -1    0    0    0    0  0.00000000000E+00  0.00000000000E+00  0.45593999997E+02  0.45594000000E+02  0.51100000000E-03 0. -1.
         11   -1    0    0    0    0 -0.00000000000E+00 -0.00000000000E+00 -0.45593999997E+02  0.45594000000E+02  0.51100000000E-03 0.  1.
    9900012    2    1    2    0    0 -0.29170853850E+02 -0.77932565245E+01  0.10249241095E+02  0.59301944982E+02  0.50000001740E+02 0.  0.
         12    1    1    2    0    0  0.29170853850E+02  0.77932565245E+01 -0.10249241095E+02  0.31886055018E+02  0.00000000000E+00 0. -1.
         11    1    3    3    0    0  0.62109563856E-01 -0.22974812271E+02  0.12263507598E+02  0.26043031225E+02  0.51100000000E-03 0. -1.
        -11    1    3    3    0    0 -0.27085077091E+02  0.13901307418E+02 -0.29551518004E+01  0.30587263221E+02  0.51100000000E-03 0.  1.
         12    1    3    3    0    0 -0.21478863233E+01  0.12802483291E+01  0.94088529682E+00  0.26716505355E+01  0.00000000000E+00 0. -1.
</event>
<event>
 7    1  0.4346085E-013  0.5930193E+02  0.7816164E-02  0.1266605E+00
        -11   -1    0    0    0    0  0.00000000000E+00  0.00000000000E+00  0.45593999997E+02  0.45594000000E+02  0.51100000000E-03 0.  1.
         11   -1    0    0    0    0 -0.00000000000E+00 -0.00000000000E+00 -0.45593999997E+02  0.45594000000E+02  0.51100000000E-03 0. -1.
    9900012    2    1    2    0    0 -0.91189821997E+01  0.17959379411E+02  0.24718952746E+02  0.59301925139E+02  0.49999965552E+02 0.  0.
         12    1    1    2    0    0  0.91189821997E+01 -0.17959379411E+02 -0.24718952746E+02  0.31886074861E+02  0.00000000000E+00 0. -1.
         11    1    3    3    0    0 -0.79112012817E+01 -0.54520331919E+01 -0.40235444825E+01  0.10416366070E+02  0.51100000000E-03 0. -1.
        -11    1    3    3    0    0  0.50482724881E+01  0.27314409980E+02  0.11371894228E+02  0.30014696838E+02  0.51100000000E-03 0.  1.
        -12    1    3    3    0    0 -0.62560534062E+01 -0.39029973774E+01  0.17370603000E+02  0.18870862231E+02  0.00000000000E+00 0.  1.
</event>
<event>
 7    1  0.4346085E-013  0.5930192E+02  0.7816164E-02  0.1266605E+00
        -11   -1    0    0    0    0  0.00000000000E+00  0.00000000000E+00  0.45593999997E+02  0.45594000000E+02  0.51100000000E-03 0. -1.
         11   -1    0    0    0    0 -0.00000000000E+00 -0.00000000000E+00 -0.45593999997E+02  0.45594000000E+02  0.51100000000E-03 0.  1.
    9900012    2    1    2    0    0  0.16338026488E+02 -0.17760339114E+02 -0.20841338137E+02  0.59301919490E+02  0.49999955249E+02 0.  0.
         12    1    1    2    0    0 -0.16338026488E+02  0.17760339114E+02  0.20841338137E+02  0.31886080510E+02  0.00000000000E+00 0. -1.
         11    1    3    3    0    0  0.62259433202E+00  0.71233640400E+01 -0.13113720767E+02  0.14936519393E+02  0.51100000000E-03 0. -1.
        -11    1    3    3    0    0  0.23730861661E+02 -0.16605741381E+02 -0.12934687542E+02  0.31720822563E+02  0.51100000000E-03 0.  1.
        -12    1    3    3    0    0 -0.80154295043E+01 -0.82779617725E+01  0.52070701723E+01  0.12644577534E+02  0.00000000000E+00 0.  1.
</event>
<event>
 7    1  0.4346085E-013  0.5930192E+02  0.7816164E-02  0.1266605E+00
        -11   -1    0    0    0    0  0.00000000000E+00  0.00000000000E+00  0.45593999997E+02  0.45594000000E+02  0.51100000000E-03 0.  1.
         11   -1    0    0    0    0 -0.00000000000E+00 -0.00000000000E+00 -0.45593999997E+02  0.45594000000E+02  0.51100000000E-03 0. -1.
    9900012    2    1    2    0    0 -0.23916861241E+02 -0.12858006617E+02  0.16714580292E+02  0.59301924981E+02  0.49999965263E+02 0.  0.
         12    1    1    2    0    0  0.23916861241E+02  0.12858006617E+02 -0.16714580292E+02  0.31886075019E+02  0.00000000000E+00 0. -1.
         11    1    3    3    0    0 -0.20130741302E+02 -0.51883312795E+01 -0.67528425006E+01  0.21857868353E+02  0.51100000000E-03 0. -1.
        -11    1    3    3    0    0 -0.28237772272E+01 -0.16131816883E+02  0.23835352066E+02  0.28919426726E+02  0.51100000000E-03 0.  1.
         12    1    3    3    0    0 -0.96234271212E+00  0.84621415448E+01 -0.36792927346E+00  0.85246299023E+01  0.00000000000E+00 0. -1.
</event>
<event>
 7    1  0.4346085E-013  0.5930197E+02  0.7816164E-02  0.1266605E+00
        -11   -1    0    0    0    0  0.00000000000E+00  0.00000000000E+00  0.45593999997E+02  0.45594000000E+02  0.51100000000E-03 0. -1.
         11   -1    0    0    0    0 -0.00000000000E+00 -0.00000000000E+00 -0.45593999997E+02  0.45594000000E+02  0.51100000000E-03 0.  1.
    9900012    2    1    2    0    0 -0.15312741834E+02  0.27577499322E+02 -0.46605078731E+01  0.59301970693E+02  0.50000048631E+02 0.  0.
         12    1    1    2    0    0  0.15312741834E+02 -0.27577499322E+02  0.46605078731E+01  0.31886029307E+02  0.00000000000E+00 0. -1.
         11    1    3    3    0    0  0.14692479503E+02  0.47806379309E+01 -0.96166268421E+01  0.18198982528E+02  0.51100000000E-03 0. -1.
        -11    1    3    3    0    0 -0.12771644428E+02  0.14160032445E+02 -0.45583223282E+01  0.19606114427E+02  0.51100000000E-03 0.  1.
         12    1    3    3    0    0 -0.17233576908E+02  0.86368289468E+01  0.95144412972E+01  0.21496873738E+02  0.00000000000E+00 0. -1.
</event>
<event>
 7    1  0.4346085E-013  0.5930193E+02  0.7816164E-02  0.1266605E+00
        -11   -1    0    0    0    0  0.00000000000E+00  0.00000000000E+00  0.45593999997E+02  0.45594000000E+02  0.51100000000E-03 0. -1.
         11   -1    0    0    0    0 -0.00000000000E+00 -0.00000000000E+00 -0.45593999997E+02  0.45594000000E+02  0.51100000000E-03 0.  1.
    9900012    2    1    2    0    0  0.81251219921E+01 -0.35051014596E+01 -0.30633605833E+02  0.59301934862E+02  0.49999983284E+02 0.  0.
         12    1    1    2    0    0 -0.81251219921E+01  0.35051014596E+01  0.30633605833E+02  0.31886065138E+02  0.00000000000E+00 0. -1.
         11    1    3    3    0    0  0.18892298539E+01 -0.12919087489E+02 -0.16472036818E+02  0.21019039183E+02  0.51100000000E-03 0. -1.
        -11    1    3    3    0    0 -0.26659381258E-01  0.20091711826E+02 -0.85663084128E+00  0.20109982882E+02  0.51100000000E-03 0.  1.
        -12    1    3    3    0    0  0.62625515195E+01 -0.10677725797E+02 -0.13304938174E+02  0.18172912797E+02  0.00000000000E+00 0.  1.
</event>
<event>
 7    1  0.4346085E-013  0.5930197E+02  0.7816164E-02  0.1266605E+00
        -11   -1    0    0    0    0  0.00000000000E+00  0.00000000000E+00  0.45593999997E+02  0.45594000000E+02  0.51100000000E-03 0. -1.
         11   -1    0    0    0    0 -0.00000000000E+00 -0.00000000000E+00 -0.45593999997E+02  0.45594000000E+02  0.51100000000E-03 0.  1.
    9900012    2    1    2    0    0 -0.23576176923E+02  0.18032105054E+02  0.11650155212E+02  0.59301967832E+02  0.50000043413E+02 0.  0.
         12    1    1    2    0    0  0.23576176923E+02 -0.18032105054E+02 -0.11650155212E+02  0.31886032168E+02  0.00000000000E+00 0. -1.
         11    1    3    3    0    0 -0.11639156753E+02  0.10526670341E+02  0.19691462390E+02  0.25180040701E+02  0.51100000000E-03 0. -1.
        -11    1    3    3    0    0 -0.19288461318E+02  0.29829752319E+01 -0.13660021756E+02  0.23823078641E+02  0.51100000000E-03 0.  1.
        -12    1    3    3    0    0  0.73514411483E+01  0.45224594811E+01  0.56187145781E+01  0.10298848490E+02  0.00000000000E+00 0.  1.
</event>
<event>
 7    1  0.4346085E-013  0.5930195E+02  0.7816164E-02  0.1266605E+00
        -11   -1    0    0    0    0  0.00000000000E+00  0.00000000000E+00  0.45593999997E+02  0.45594000000E+02  0.51100000000E-03 0.  1.
         11   -1    0    0    0    0 -0.00000000000E+00 -0.00000000000E+00 -0.45593999997E+02  0.45594000000E+02  0.51100000000E-03 0. -1.
    9900012    2    1    2    0    0  0.40829904627E+01 -0.88069710142E+00  0.31611293239E+02  0.59301948210E+02  0.50000007627E+02 0.  0.
         12    1    1    2    0    0 -0.40829904627E+01  0.88069710142E+00 -0.31611293239E+02  0.31886051790E+02  0.00000000000E+00 0. -1.
         11    1    3    3    0    0  0.74275424796E+01 -0.91553147489E+00 -0.29619941768E+01  0.80486020483E+01  0.51100000000E-03 0. -1.
        -11    1    3    3    0    0 -0.14330525506E+02  0.14016660191E+02  0.18883349258E+02  0.27539273840E+02  0.51100000000E-03 0.  1.
        -12    1    3    3    0    0  0.10985973489E+02 -0.13981825817E+02  0.15689938158E+02  0.23714072322E+02  0.00000000000E+00 0.  1.
</event>
<event>
 7    1  0.4346085E-013  0.5930193E+02  0.7816164E-02  0.1266605E+00
        -11   -1    0    0    0    0  0.00000000000E+00  0.00000000000E+00  0.45593999997E+02  0.45594000000E+02  0.51100000000E-03 0.  1.
         11   -1    0    0    0    0 -0.00000000000E+00 -0.00000000000E+00 -0.45593999997E+02  0.45594000000E+02  0.51100000000E-03 0. -1.
    9900012    2    1    2    0    0 -0.15609484020E+02  0.12738608911E+02  0.24714230762E+02  0.59301931717E+02  0.49999977549E+02 0.  0.
         12    1    1    2    0    0  0.15609484020E+02 -0.12738608911E+02 -0.24714230762E+02  0.31886068283E+02  0.00000000000E+00 0. -1.
         11    1    3    3    0    0 -0.13494106698E+02 -0.10982177948E+02  0.20133555927E+02  0.26609382228E+02  0.51100000000E-03 0.  1.
        -11    1    3    3    0    0  0.34219642495E+01  0.23460091760E+02  0.92457021567E+01  0.25447372229E+02  0.51100000000E-03 0. -1.
        -12    1    3    3    0    0 -0.55373415721E+01  0.26069509867E+00 -0.46650273214E+01  0.72451772601E+01  0.00000000000E+00 0.  1.
</event>
<event>
 7    1  0.4346085E-013  0.5930197E+02  0.7816164E-02  0.1266605E+00
        -11   -1    0    0    0    0  0.00000000000E+00  0.00000000000E+00  0.45593999997E+02  0.45594000000E+02  0.51100000000E-03 0.  1.
         11   -1    0    0    0    0 -0.00000000000E+00 -0.00000000000E+00 -0.45593999997E+02  0.45594000000E+02  0.51100000000E-03 0. -1.
    9900012    2    1    2    0    0 -0.10946072882E+02  0.14360818424E+02  0.26280591795E+02  0.59301966656E+02  0.50000041268E+02 0.  0.
         12    1    1    2    0    0  0.10946072882E+02 -0.14360818424E+02 -0.26280591795E+02  0.31886033344E+02  0.00000000000E+00 0. -1.
         11    1    3    3    0    0 -0.21210889798E+02  0.10015838527E+02  0.24737801499E+02  0.34090727342E+02  0.51100000000E-03 0.  1.
        -11    1    3    3    0    0  0.69144920882E+01  0.11466161455E+02 -0.56656096610E+01  0.14538988701E+02  0.51100000000E-03 0. -1.
         12    1    3    3    0    0  0.33503248279E+01 -0.71211815573E+01  0.72083999564E+01  0.10672250613E+02  0.00000000000E+00 0. -1.
</event>
<event>
 7    1  0.4346085E-013  0.5930198E+02  0.7816164E-02  0.1266605E+00
        -11   -1    0    0    0    0  0.00000000000E+00  0.00000000000E+00  0.45593999997E+02  0.45594000000E+02  0.51100000000E-03 0.  1.
         11   -1    0    0    0    0 -0.00000000000E+00 -0.00000000000E+00 -0.45593999997E+02  0.45594000000E+02  0.51100000000E-03 0. -1.
    9900012    2    1    2    0    0 -0.23572634667E+02  0.10263474830E+02  0.18860287909E+02  0.59301976718E+02  0.50000059618E+02 0.  0.
         12    1    1    2    0    0  0.23572634667E+02 -0.10263474830E+02 -0.18860287909E+02  0.31886023282E+02  0.00000000000E+00 0. -1.
         11    1    3    3    0    0 -0.40873001439E+01 -0.13324793983E+02  0.21598749399E+02  0.25705293872E+02  0.51100000000E-03 0.  1.
        -11    1    3    3    0    0 -0.18478862015E+02  0.21797816613E+02 -0.65041281614E+01  0.29307282949E+02  0.51100000000E-03 0. -1.
         12    1    3    3    0    0 -0.10064725083E+01  0.17904522006E+01  0.37656666714E+01  0.42893998965E+01  0.00000000000E+00 0. -1.
</event>
<event>
 7    1  0.4346085E-013  0.5930194E+02  0.7816164E-02  0.1266605E+00
        -11   -1    0    0    0    0  0.00000000000E+00  0.00000000000E+00  0.45593999997E+02  0.45594000000E+02  0.51100000000E-03 0.  1.
         11   -1    0    0    0    0 -0.00000000000E+00 -0.00000000000E+00 -0.45593999997E+02  0.45594000000E+02  0.51100000000E-03 0. -1.
    9900012    2    1    2    0    0  0.18274505990E+02  0.24429059471E+02  0.92727763807E+01  0.59301938819E+02  0.49999990501E+02 0.  0.
         12    1    1    2    0    0 -0.18274505990E+02 -0.24429059471E+02 -0.92727763807E+01  0.31886061181E+02  0.00000000000E+00 0. -1.
         11    1    3    3    0    0  0.13802754937E+02 -0.31855087459E+01  0.62473383058E+01  0.15482013629E+02  0.51100000000E-03 0. -1.
        -11    1    3    3    0    0 -0.11581619645E+02  0.67653288045E+01 -0.76296460854E+01  0.15430978164E+02  0.51100000000E-03 0.  1.
        -12    1    3    3    0    0  0.16053370697E+02  0.20849239413E+02  0.10655084160E+02  0.28388947027E+02  0.00000000000E+00 0.  1.
</event>
<event>
 7    1  0.4346085E-013  0.5930194E+02  0.7816164E-02  0.1266605E+00
        -11   -1    0    0    0    0  0.00000000000E+00  0.00000000000E+00  0.45593999997E+02  0.45594000000E+02  0.51100000000E-03 0. -1.
         11   -1    0    0    0    0 -0.00000000000E+00 -0.00000000000E+00 -0.45593999997E+02  0.45594000000E+02  0.51100000000E-03 0.  1.
    9900012    2    1    2    0    0  0.18630566351E+01  0.30694973020E+02 -0.84302233650E+01  0.59301936984E+02  0.49999987153E+02 0.  0.
         12    1    1    2    0    0 -0.18630566351E+01 -0.30694973020E+02  0.84302233650E+01  0.31886063016E+02  0.00000000000E+00 0. -1.
         11    1    3    3    0    0  0.13907141198E+02  0.14866051825E+01 -0.18249045316E+01  0.14104922831E+02  0.51100000000E-03 0. -1.
        -11    1    3    3    0    0 -0.13877814573E+02  0.31636997528E+02 -0.13942056968E+02  0.37254185035E+02  0.51100000000E-03 0.  1.
        -12    1    3    3    0    0  0.18337300105E+01 -0.24286296904E+01  0.73367381348E+01  0.79428291171E+01  0.00000000000E+00 0.  1.
</event>
<event>
 7    1  0.4346085E-013  0.5930205E+02  0.7816164E-02  0.1266604E+00
        -11   -1    0    0    0    0  0.00000000000E+00  0.00000000000E+00  0.45593999997E+02  0.45594000000E+02  0.51100000000E-03 0.  1.
         11   -1    0    0    0    0 -0.00000000000E+00 -0.00000000000E+00 -0.45593999997E+02  0.45594000000E+02  0.51100000000E-03 0. -1.
    9900012    2    1    2    0    0 -0.27177729281E+02 -0.12505475271E+02  0.11031666433E+02  0.59302054116E+02  0.50000200774E+02 0.  0.
         12    1    1    2    0    0  0.27177729281E+02  0.12505475271E+02 -0.11031666433E+02  0.31885945884E+02  0.00000000000E+00 0. -1.
         11    1    3    3    0    0 -0.23446135237E+02 -0.38819150329E+01  0.68815284314E+01  0.24741583532E+02  0.51100000000E-03 0. -1.
        -11    1    3    3    0    0  0.49686947667E+01 -0.15257683143E+02  0.12869794620E+02  0.20569794272E+02  0.51100000000E-03 0.  1.
        -12    1    3    3    0    0 -0.87002888112E+01  0.66341229043E+01 -0.87196566189E+01  0.13990676312E+02  0.00000000000E+00 0.  1.
</event>
<event>
 7    1  0.4346085E-013  0.5930195E+02  0.7816164E-02  0.1266605E+00
        -11   -1    0    0    0    0  0.00000000000E+00  0.00000000000E+00  0.45593999997E+02  0.45594000000E+02  0.51100000000E-03 0. -1.
         11   -1    0    0    0    0 -0.00000000000E+00 -0.00000000000E+00 -0.45593999997E+02  0.45594000000E+02  0.51100000000E-03 0.  1.
    9900012    2    1    2    0    0 -0.11057114927E+01 -0.10498161286E+02 -0.30087975963E+02  0.59301948412E+02  0.50000007997E+02 0.  0.
         12    1    1    2    0    0  0.11057114927E+01  0.10498161286E+02  0.30087975963E+02  0.31886051588E+02  0.00000000000E+00 0. -1.
         11    1    3    3    0    0  0.83835585035E+01 -0.10076866831E+01  0.51873524235E+01  0.99100005581E+01  0.51100000000E-03 0. -1.
        -11    1    3    3    0    0 -0.11101792778E+02 -0.19396277030E+02 -0.31599200910E+02  0.38703680237E+02  0.51100000000E-03 0.  1.
        -12    1    3    3    0    0  0.16125227816E+01  0.99058024266E+01 -0.36761274768E+01  0.10688267617E+02  0.00000000000E+00 0.  1.
</event>
<event>
 7    1  0.4346085E-013  0.5930195E+02  0.7816164E-02  0.1266605E+00
        -11   -1    0    0    0    0  0.00000000000E+00  0.00000000000E+00  0.45593999997E+02  0.45594000000E+02  0.51100000000E-03 0.  1.
         11   -1    0    0    0    0 -0.00000000000E+00 -0.00000000000E+00 -0.45593999997E+02  0.45594000000E+02  0.51100000000E-03 0. -1.
    9900012    2    1    2    0    0  0.29045928709E+02 -0.94985149275E+01  0.91012201440E+01  0.59301953389E+02  0.50000017072E+02 0.  0.
         12    1    1    2    0    0 -0.29045928709E+02  0.94985149275E+01 -0.91012201440E+01  0.31886046611E+02  0.00000000000E+00 0. -1.
         11    1    3    3    0    0  0.14611542719E+02 -0.15603927487E+02 -0.12914996938E+01  0.21416061855E+02  0.51100000000E-03 0. -1.
        -11    1    3    3    0    0  0.17251642552E+02  0.21872941587E+01  0.20381800195E+02  0.26792185538E+02  0.51100000000E-03 0.  1.
        -12    1    3    3    0    0 -0.28172565623E+01  0.39181184007E+01 -0.99890803570E+01  0.11093705996E+02  0.00000000000E+00 0.  1.
</event>
<event>
 7    1  0.4346085E-013  0.5930197E+02  0.7816164E-02  0.1266605E+00
        -11   -1    0    0    0    0  0.00000000000E+00  0.00000000000E+00  0.45593999997E+02  0.45594000000E+02  0.51100000000E-03 0. -1.
         11   -1    0    0    0    0 -0.00000000000E+00 -0.00000000000E+00 -0.45593999997E+02  0.45594000000E+02  0.51100000000E-03 0.  1.
    9900012    2    1    2    0    0  0.14316840749E+02 -0.20694273289E+02 -0.19583002971E+02  0.59301970436E+02  0.50000048162E+02 0.  0.
         12    1    1    2    0    0 -0.14316840749E+02  0.20694273289E+02  0.19583002971E+02  0.31886029564E+02  0.00000000000E+00 0. -1.
         11    1    3    3    0    0  0.10384766148E+02 -0.10602047558E+02 -0.60725239005E+00  0.14853132198E+02  0.51100000000E-03 0. -1.
        -11    1    3    3    0    0 -0.18693346805E+01  0.14634688313E+02 -0.79669005151E+01  0.16767230489E+02  0.51100000000E-03 0.  1.
        -12    1    3    3    0    0  0.58014092815E+01 -0.24726914044E+02 -0.11008850066E+02  0.27681607749E+02  0.00000000000E+00 0.  1.
</event>
<event>
 7    1  0.4346085E-013  0.5930194E+02  0.7816164E-02  0.1266605E+00
        -11   -1    0    0    0    0  0.00000000000E+00  0.00000000000E+00  0.45593999997E+02  0.45594000000E+02  0.51100000000E-03 0.  1.
         11   -1    0    0    0    0 -0.00000000000E+00 -0.00000000000E+00 -0.45593999997E+02  0.45594000000E+02  0.51100000000E-03 0. -1.
    9900012    2    1    2    0    0 -0.27039117023E+02 -0.15529054771E+02  0.66674732165E+01  0.59301943634E+02  0.49999999283E+02 0.  0.
         12    1    1    2    0    0  0.27039117023E+02  0.15529054771E+02 -0.66674732165E+01  0.31886056366E+02  0.00000000000E+00 0. -1.
         11    1    3    3    0    0 -0.19702054769E+02  0.77260007839E+01 -0.14281177739E+02  0.25530649974E+02  0.51100000000E-03 0. -1.
        -11    1    3    3    0    0 -0.92455631094E+01 -0.21687771715E+02  0.16822888711E+02  0.28962898060E+02  0.51100000000E-03 0.  1.
        -12    1    3    3    0    0  0.19085008554E+01 -0.15672838398E+01  0.41257622448E+01  0.48083956004E+01  0.00000000000E+00 0.  1.
</event>
<event>
 7    1  0.4346085E-013  0.5930183E+02  0.7816164E-02  0.1266605E+00
        -11   -1    0    0    0    0  0.00000000000E+00  0.00000000000E+00  0.45593999997E+02  0.45594000000E+02  0.51100000000E-03 0. -1.
         11   -1    0    0    0    0 -0.00000000000E+00 -0.00000000000E+00 -0.45593999997E+02  0.45594000000E+02  0.51100000000E-03 0.  1.
    9900012    2    1    2    0    0  0.29930004945E+01 -0.20210480283E+02 -0.24480734351E+02  0.59301828710E+02  0.49999789687E+02 0.  0.
         12    1    1    2    0    0 -0.29930004945E+01  0.20210480283E+02  0.24480734351E+02  0.31886171290E+02  0.00000000000E+00 0. -1.
         11    1    3    3    0    0  0.38819824902E+01  0.19215864555E+01  0.10156716639E+02  0.11041792233E+02  0.51100000000E-03 0. -1.
        -11    1    3    3    0    0  0.44058780716E+01 -0.20053702705E+02 -0.36827942307E+02  0.42164678211E+02  0.51100000000E-03 0.  1.
        -12    1    3    3    0    0 -0.52948600673E+01 -0.20783640330E+01  0.21904913174E+01  0.60953582665E+01  0.00000000000E+00 0.  1.
</event>
<event>
 7    1  0.4346085E-013  0.5930191E+02  0.7816164E-02  0.1266605E+00
        -11   -1    0    0    0    0  0.00000000000E+00  0.00000000000E+00  0.45593999997E+02  0.45594000000E+02  0.51100000000E-03 0.  1.
         11   -1    0    0    0    0 -0.00000000000E+00 -0.00000000000E+00 -0.45593999997E+02  0.45594000000E+02  0.51100000000E-03 0. -1.
    9900012    2    1    2    0    0  0.16137759559E+02  0.17338862889E+02  0.21346177626E+02  0.59301909786E+02  0.49999937551E+02 0.  0.
         12    1    1    2    0    0 -0.16137759559E+02 -0.17338862889E+02 -0.21346177626E+02  0.31886090214E+02  0.00000000000E+00 0. -1.
         11    1    3    3    0    0 -0.22270831273E+01  0.37401163209E+01 -0.51038650116E+00  0.43827918033E+01  0.51100000000E-03 0. -1.
        -11    1    3    3    0    0  0.34248850364E+01 -0.89391180285E+01  0.25868751702E+02  0.27583146730E+02  0.51100000000E-03 0.  1.
        -12    1    3    3    0    0  0.14939957650E+02  0.22537864597E+02 -0.40121875746E+01  0.27335971252E+02  0.00000000000E+00 0.  1.
</event>
<event>
 7    1  0.4346085E-013  0.5930194E+02  0.7816164E-02  0.1266605E+00
        -11   -1    0    0    0    0  0.00000000000E+00  0.00000000000E+00  0.45593999997E+02  0.45594000000E+02  0.51100000000E-03 0. -1.
         11   -1    0    0    0    0 -0.00000000000E+00 -0.00000000000E+00 -0.45593999997E+02  0.45594000000E+02  0.51100000000E-03 0.  1.
    9900012    2    1    2    0    0 -0.75950547516E+01  0.24093211980E+02  0.19456436683E+02  0.59301942724E+02  0.49999997623E+02 0.  0.
         12    1    1    2    0    0  0.75950547516E+01 -0.24093211980E+02 -0.19456436683E+02  0.31886057276E+02  0.00000000000E+00 0. -1.
         11    1    3    3    0    0  0.14364189060E+02  0.96660941204E+01  0.17543504834E+02  0.24648283207E+02  0.51100000000E-03 0. -1.
        -11    1    3    3    0    0 -0.21806055823E+02  0.77914382508E+01 -0.63919719603E+01  0.24022237331E+02  0.51100000000E-03 0.  1.
        -12    1    3    3    0    0 -0.15318798869E+00  0.66356796090E+01  0.83049038089E+01  0.10631422186E+02  0.00000000000E+00 0.  1.
</event>
<event>
 7    1  0.4346085E-013  0.5930193E+02  0.7816164E-02  0.1266605E+00
        -11   -1    0    0    0    0  0.00000000000E+00  0.00000000000E+00  0.45593999997E+02  0.45594000000E+02  0.51100000000E-03 0.  1.
         11   -1    0    0    0    0 -0.00000000000E+00 -0.00000000000E+00 -0.45593999997E+02  0.45594000000E+02  0.51100000000E-03 0. -1.
    9900012    2    1    2    0    0 -0.18326324504E+02  0.14152543045E+02  0.21921977953E+02  0.59301925267E+02  0.49999965785E+02 0.  0.
         12    1    1    2    0    0  0.18326324504E+02 -0.14152543045E+02 -0.21921977953E+02  0.31886074733E+02  0.00000000000E+00 0. -1.
         11    1    3    3    0    0 -0.25649788087E+01  0.46680087016E+01 -0.19391676090E+01  0.56683148117E+01  0.51100000000E-03 0. -1.
        -11    1    3    3    0    0 -0.76289659512E+01 -0.66567823236E+01  0.32181175628E+02  0.33736359280E+02  0.51100000000E-03 0.  1.
        -12    1    3    3    0    0 -0.81323797445E+01  0.16141316667E+02 -0.83200300660E+01  0.19897251176E+02  0.00000000000E+00 0.  1.
</event>
<event>
 7    1  0.4346085E-013  0.5930199E+02  0.7816164E-02  0.1266605E+00
        -11   -1    0    0    0    0  0.00000000000E+00  0.00000000000E+00  0.45593999997E+02  0.45594000000E+02  0.51100000000E-03 0.  1.
         11   -1    0    0    0    0 -0.00000000000E+00 -0.00000000000E+00 -0.45593999997E+02  0.45594000000E+02  0.51100000000E-03 0. -1.
    9900012    2    1    2    0    0  0.19665262190E+02  0.21792726588E+02  0.12452804458E+02  0.59301987267E+02  0.50000078859E+02 0.  0.
         12    1    1    2    0    0 -0.19665262190E+02 -0.21792726588E+02 -0.12452804458E+02  0.31886012733E+02  0.00000000000E+00 0. -1.
         11    1    3    3    0    0  0.11697860551E+02 -0.11519234319E+02 -0.66765344431E+01  0.17723115223E+02  0.51100000000E-03 0. -1.
        -11    1    3    3    0    0 -0.17674346112E+01  0.21554417780E+02  0.10446982019E+02  0.24017830554E+02  0.51100000000E-03 0.  1.
         12    1    3    3    0    0  0.97348362498E+01  0.11757543127E+02  0.86823568819E+01  0.17561041490E+02  0.00000000000E+00 0. -1.
</event>
<event>
 7    1  0.4346085E-013  0.5930196E+02  0.7816164E-02  0.1266605E+00
        -11   -1    0    0    0    0  0.00000000000E+00  0.00000000000E+00  0.45593999997E+02  0.45594000000E+02  0.51100000000E-03 0. -1.
         11   -1    0    0    0    0 -0.00000000000E+00 -0.00000000000E+00 -0.45593999997E+02  0.45594000000E+02  0.51100000000E-03 0.  1.
    9900012    2    1    2    0    0 -0.16243362790E+02  0.44169155022E+01 -0.27080691368E+02  0.59301955682E+02  0.50000021254E+02 0.  0.
         12    1    1    2    0    0  0.16243362790E+02 -0.44169155022E+01  0.27080691368E+02  0.31886044318E+02  0.00000000000E+00 0. -1.
         11    1    3    3    0    0  0.12725342133E+02 -0.65540468453E+01 -0.11364657251E+02  0.18276906116E+02  0.51100000000E-03 0. -1.
        -11    1    3    3    0    0 -0.19672382522E+02  0.13067557755E+02 -0.19642602784E+02  0.30718000328E+02  0.51100000000E-03 0.  1.
         12    1    3    3    0    0 -0.92963224017E+01 -0.20965954075E+01  0.39265686672E+01  0.10307049238E+02  0.00000000000E+00 0. -1.
</event>
<event>
 7    1  0.4346085E-013  0.5930199E+02  0.7816164E-02  0.1266605E+00
        -11   -1    0    0    0    0  0.00000000000E+00  0.00000000000E+00  0.45593999997E+02  0.45594000000E+02  0.51100000000E-03 0.  1.
         11   -1    0    0    0    0 -0.00000000000E+00 -0.00000000000E+00 -0.45593999997E+02  0.45594000000E+02  0.51100000000E-03 0. -1.
    9900012    2    1    2    0    0 -0.23252295078E+01  0.90268474198E+01  0.30493067470E+02  0.59301986917E+02  0.50000078220E+02 0.  0.
         12    1    1    2    0    0  0.23252295078E+01 -0.90268474198E+01 -0.30493067470E+02  0.31886013083E+02  0.00000000000E+00 0. -1.
         11    1    3    3    0    0 -0.94989976117E+01  0.87999394832E+01 -0.26223236822E+01  0.13211603699E+02  0.51100000000E-03 0. -1.
        -11    1    3    3    0    0  0.16343195361E+02  0.76828716523E+01  0.27755954595E+02  0.33113736835E+02  0.51100000000E-03 0.  1.
         12    1    3    3    0    0 -0.91694272570E+01 -0.74559637157E+01  0.53594365572E+01  0.12976646384E+02  0.00000000000E+00 0. -1.
</event>
<event>
 7    1  0.4346085E-013  0.5930197E+02  0.7816164E-02  0.1266605E+00
        -11   -1    0    0    0    0  0.00000000000E+00  0.00000000000E+00  0.45593999997E+02  0.45594000000E+02  0.51100000000E-03 0.  1.
         11   -1    0    0    0    0 -0.00000000000E+00 -0.00000000000E+00 -0.45593999997E+02  0.45594000000E+02  0.51100000000E-03 0. -1.
    9900012    2    1    2    0    0  0.19764344183E+02  0.70546923464E+01  0.24006687179E+02  0.59301968350E+02  0.50000044357E+02 0.  0.
         12    1    1    2    0    0 -0.19764344183E+02 -0.70546923464E+01 -0.24006687179E+02  0.31886031650E+02  0.00000000000E+00 0. -1.
         11    1    3    3    0    0  0.19408467012E+02  0.14859080937E+02  0.19754053793E+02  0.31427750787E+02  0.51100000000E-03 0. -1.
        -11    1    3    3    0    0  0.64263803798E+01 -0.16051560466E+02  0.21933218106E+01  0.17428758390E+02  0.51100000000E-03 0.  1.
         12    1    3    3    0    0 -0.60705032086E+01  0.82471718757E+01  0.20593115760E+01  0.10445459172E+02  0.00000000000E+00 0. -1.
</event>
<event>
 7    1  0.4346085E-013  0.5930194E+02  0.7816164E-02  0.1266605E+00
        -11   -1    0    0    0    0  0.00000000000E+00  0.00000000000E+00  0.45593999997E+02  0.45594000000E+02  0.51100000000E-03 0.  1.
         11   -1    0    0    0    0 -0.00000000000E+00 -0.00000000000E+00 -0.45593999997E+02  0.45594000000E+02  0.51100000000E-03 0. -1.
    9900012    2    1    2    0    0  0.77654650165E-01 -0.30416554977E+02  0.95680700252E+01  0.59301940179E+02  0.49999992980E+02 0.  0.
         12    1    1    2    0    0 -0.77654650165E-01  0.30416554977E+02 -0.95680700252E+01  0.31886059821E+02  0.00000000000E+00 0. -1.
         11    1    3    3    0    0  0.40193489837E+01 -0.35555644521E+02 -0.80182173154E+00  0.35791087465E+02  0.51100000000E-03 0. -1.
        -11    1    3    3    0    0 -0.19422617026E+01  0.91327926921E+01 -0.26831084152E+01  0.97149037004E+01  0.51100000000E-03 0.  1.
         12    1    3    3    0    0 -0.19994326310E+01 -0.39937031479E+01  0.13053000172E+02  0.13795949013E+02  0.00000000000E+00 0. -1.
</event>
<event>
 7    1  0.4346085E-013  0.5930195E+02  0.7816164E-02  0.1266605E+00
        -11   -1    0    0    0    0  0.00000000000E+00  0.00000000000E+00  0.45593999997E+02  0.45594000000E+02  0.51100000000E-03 0.  1.
         11   -1    0    0    0    0 -0.00000000000E+00 -0.00000000000E+00 -0.45593999997E+02  0.45594000000E+02  0.51100000000E-03 0. -1.
    9900012    2    1    2    0    0  0.30409268100E+02 -0.28381218488E+01  0.91619710737E+01  0.59301949194E+02  0.50000009423E+02 0.  0.
         12    1    1    2    0    0 -0.30409268100E+02  0.28381218488E+01 -0.91619710737E+01  0.31886050806E+02  0.00000000000E+00 0. -1.
         11    1    3    3    0    0  0.25602425706E+02  0.61606650371E+01 -0.10095789950E+02  0.28202180247E+02  0.51100000000E-03 0. -1.
        -11    1    3    3    0    0 -0.41928496319E+01  0.24265635416E+01  0.15268240230E+02  0.16018344441E+02  0.51100000000E-03 0.  1.
        -12    1    3    3    0    0  0.89996920264E+01 -0.11425350428E+02  0.39895207935E+01  0.15081424506E+02  0.00000000000E+00 0.  1.
</event>
<event>
 7    1  0.4346085E-013  0.5930195E+02  0.7816164E-02  0.1266605E+00
        -11   -1    0    0    0    0  0.00000000000E+00  0.00000000000E+00  0.45593999997E+02  0.45594000000E+02  0.51100000000E-03 0. -1.
         11   -1    0    0    0    0 -0.00000000000E+00 -0.00000000000E+00 -0.45593999997E+02  0.45594000000E+02  0.51100000000E-03 0.  1.
    9900012    2    1    2    0    0 -0.48349415207E+01 -0.16518329229E+02 -0.26841907703E+02  0.59301954947E+02  0.50000019913E+02 0.  0.
         12    1    1    2    0    0  0.48349415207E+01  0.16518329229E+02  0.26841907703E+02  0.31886045053E+02  0.00000000000E+00 0. -1.
         11    1    3    3    0    0 -0.18410652862E+02 -0.73526600769E+01 -0.25270637179E+02  0.32118823962E+02  0.51100000000E-03 0.  1.
        -11    1    3    3    0    0  0.44523341622E+01 -0.13386068656E+02  0.52309206981E+01  0.15045685267E+02  0.51100000000E-03 0. -1.
         12    1    3    3    0    0  0.91233771790E+01  0.42203995036E+01 -0.68021912221E+01  0.12137445717E+02  0.00000000000E+00 0. -1.
</event>
<event>
 7    1  0.4346085E-013  0.5930196E+02  0.7816164E-02  0.1266605E+00
        -11   -1    0    0    0    0  0.00000000000E+00  0.00000000000E+00  0.45593999997E+02  0.45594000000E+02  0.51100000000E-03 0. -1.
         11   -1    0    0    0    0 -0.00000000000E+00 -0.00000000000E+00 -0.45593999997E+02  0.45594000000E+02  0.51100000000E-03 0.  1.
    9900012    2    1    2    0    0 -0.26920667392E+02  0.16108873084E+01 -0.17011819903E+02  0.59301963759E+02  0.50000035986E+02 0.  0.
         12    1    1    2    0    0  0.26920667392E+02 -0.16108873084E+01  0.17011819903E+02  0.31886036241E+02  0.00000000000E+00 0. -1.
         11    1    3    3    0    0 -0.11762711529E+02  0.13316374550E+02  0.26336091519E+01  0.17961712365E+02  0.51100000000E-03 0. -1.
        -11    1    3    3    0    0 -0.22657803858E+02 -0.15978335554E+02 -0.14433636861E+02  0.31257209665E+02  0.51100000000E-03 0.  1.
        -12    1    3    3    0    0  0.74998479950E+01  0.42728483121E+01 -0.52117921934E+01  0.10083041729E+02  0.00000000000E+00 0.  1.
</event>
<event>
 7    1  0.4346085E-013  0.5930200E+02  0.7816164E-02  0.1266605E+00
        -11   -1    0    0    0    0  0.00000000000E+00  0.00000000000E+00  0.45593999997E+02  0.45594000000E+02  0.51100000000E-03 0. -1.
         11   -1    0    0    0    0 -0.00000000000E+00 -0.00000000000E+00 -0.45593999997E+02  0.45594000000E+02  0.51100000000E-03 0.  1.
    9900012    2    1    2    0    0  0.15233241826E+02  0.13409663273E+02 -0.24593628376E+02  0.59301995510E+02  0.50000093892E+02 0.  0.
         12    1    1    2    0    0 -0.15233241826E+02 -0.13409663273E+02  0.24593628376E+02  0.31886004490E+02  0.00000000000E+00 0. -1.
         11    1    3    3    0    0  0.22083155967E+02  0.13683162311E+02 -0.76137136130E+01  0.27071448863E+02  0.51100000000E-03 0.  1.
        -11    1    3    3    0    0 -0.12895747423E+02  0.38000795374E+01 -0.20196848017E+02  0.24262184077E+02  0.51100000000E-03 0. -1.
         12    1    3    3    0    0  0.60458332820E+01 -0.40735785757E+01  0.32169332546E+01  0.79683625702E+01  0.00000000000E+00 0. -1.
</event>
<event>
 7    1  0.4346085E-013  0.5930195E+02  0.7816164E-02  0.1266605E+00
        -11   -1    0    0    0    0  0.00000000000E+00  0.00000000000E+00  0.45593999997E+02  0.45594000000E+02  0.51100000000E-03 0.  1.
         11   -1    0    0    0    0 -0.00000000000E+00 -0.00000000000E+00 -0.45593999997E+02  0.45594000000E+02  0.51100000000E-03 0. -1.
    9900012    2    1    2    0    0  0.17530892000E+02 -0.26624158764E+02 -0.73619947709E+00  0.59301952991E+02  0.50000016347E+02 0.  0.
         12    1    1    2    0    0 -0.17530892000E+02  0.26624158764E+02  0.73619947709E+00  0.31886047009E+02  0.00000000000E+00 0. -1.
         11    1    3    3    0    0 -0.41624939161E+00 -0.18407539343E+02 -0.15469497381E+02  0.24048204043E+02  0.51100000000E-03 0. -1.
        -11    1    3    3    0    0  0.21830130142E+02 -0.50201797489E+01  0.31430982175E+01  0.22619368988E+02  0.51100000000E-03 0.  1.
         12    1    3    3    0    0 -0.38829887506E+01 -0.31964396719E+01  0.11590199686E+02  0.12634379960E+02  0.00000000000E+00 0. -1.
</event>
<event>
 7    1  0.4346085E-013  0.5930199E+02  0.7816164E-02  0.1266605E+00
        -11   -1    0    0    0    0  0.00000000000E+00  0.00000000000E+00  0.45593999997E+02  0.45594000000E+02  0.51100000000E-03 0.  1.
         11   -1    0    0    0    0 -0.00000000000E+00 -0.00000000000E+00 -0.45593999997E+02  0.45594000000E+02  0.51100000000E-03 0. -1.
    9900012    2    1    2    0    0 -0.11790453457E+02 -0.88042616619E+01  0.28287594881E+02  0.59301986761E+02  0.50000077936E+02 0.  0.
         12    1    1    2    0    0  0.11790453457E+02  0.88042616619E+01 -0.28287594881E+02  0.31886013239E+02  0.00000000000E+00 0. -1.
         11    1    3    3    0    0  0.42742892465E+01  0.86857742140E+01  0.10267810843E+02  0.14111703017E+02  0.51100000000E-03 0.  1.
        -11    1    3    3    0    0 -0.25093095295E+02 -0.86381512438E+01  0.18799620365E+02  0.32522404808E+02  0.51100000000E-03 0. -1.
        -12    1    3    3    0    0  0.90283525916E+01 -0.88518846321E+01 -0.77983632697E+00  0.12667878937E+02  0.00000000000E+00 0.  1.
</event>
<event>
 7    1  0.4346085E-013  0.5930198E+02  0.7816164E-02  0.1266605E+00
        -11   -1    0    0    0    0  0.00000000000E+00  0.00000000000E+00  0.45593999997E+02  0.45594000000E+02  0.51100000000E-03 0.  1.
         11   -1    0    0    0    0 -0.00000000000E+00 -0.00000000000E+00 -0.45593999997E+02  0.45594000000E+02  0.51100000000E-03 0. -1.
    9900012    2    1    2    0    0  0.21042046813E+02 -0.19908158649E+02 -0.13327264138E+02  0.59301976662E+02  0.50000059518E+02 0.  0.
         12    1    1    2    0    0 -0.21042046813E+02  0.19908158649E+02  0.13327264138E+02  0.31886023338E+02  0.00000000000E+00 0. -1.
         11    1    3    3    0    0  0.19685484655E+02  0.25392305339E+00 -0.13393113488E+02  0.23810885582E+02  0.51100000000E-03 0. -1.
        -11    1    3    3    0    0  0.39697427340E+01 -0.18173629710E+02  0.12643298018E+02  0.22492057692E+02  0.51100000000E-03 0.  1.
         12    1    3    3    0    0 -0.26131805757E+01 -0.19884519926E+01 -0.12577448667E+02  0.12999033388E+02  0.00000000000E+00 0. -1.
</event>
<event>
 7    1  0.4346085E-013  0.5930194E+02  0.7816164E-02  0.1266605E+00
        -11   -1    0    0    0    0  0.00000000000E+00  0.00000000000E+00  0.45593999997E+02  0.45594000000E+02  0.51100000000E-03 0.  1.
         11   -1    0    0    0    0 -0.00000000000E+00 -0.00000000000E+00 -0.45593999997E+02  0.45594000000E+02  0.51100000000E-03 0. -1.
    9900012    2    1    2    0    0 -0.27199495051E+02  0.70634970073E+00  0.16625558526E+02  0.59301942588E+02  0.49999997375E+02 0.  0.
         12    1    1    2    0    0  0.27199495051E+02 -0.70634970073E+00 -0.16625558526E+02  0.31886057412E+02  0.00000000000E+00 0. -1.
         11    1    3    3    0    0 -0.88391295365E+01  0.49632980640E-02 -0.11883384600E+02  0.14810302678E+02  0.51100000000E-03 0. -1.
        -11    1    3    3    0    0 -0.63367427229E+01 -0.62346870997E+01  0.29269823050E+02  0.30590001197E+02  0.51100000000E-03 0.  1.
        -12    1    3    3    0    0 -0.12023622792E+02  0.69360735024E+01 -0.76087992431E+00  0.13901638714E+02  0.00000000000E+00 0.  1.
</event>
<event>
 7    1  0.4346085E-013  0.5930199E+02  0.7816164E-02  0.1266605E+00
        -11   -1    0    0    0    0  0.00000000000E+00  0.00000000000E+00  0.45593999997E+02  0.45594000000E+02  0.51100000000E-03 0.  1.
         11   -1    0    0    0    0 -0.00000000000E+00 -0.00000000000E+00 -0.45593999997E+02  0.45594000000E+02  0.51100000000E-03 0. -1.
    9900012    2    1    2    0    0  0.26625374712E+02  0.12026530209E+02  0.12773798891E+02  0.59301985110E+02  0.50000074925E+02 0.  0.
         12    1    1    2    0    0 -0.26625374712E+02 -0.12026530209E+02 -0.12773798891E+02  0.31886014890E+02  0.00000000000E+00 0. -1.
         11    1    3    3    0    0 -0.10055344021E+01  0.34998188501E+01 -0.10881538532E+02  0.11474655224E+02  0.51100000000E-03 0. -1.
        -11    1    3    3    0    0  0.26441293169E+02 -0.58637839006E+01  0.16475275245E+02  0.31701114187E+02  0.51100000000E-03 0.  1.
        -12    1    3    3    0    0  0.11896159457E+01  0.14390495260E+02  0.71800621775E+01  0.16126215700E+02  0.00000000000E+00 0.  1.
</event>
<event>
 7    1  0.4346085E-013  0.5930196E+02  0.7816164E-02  0.1266605E+00
        -11   -1    0    0    0    0  0.00000000000E+00  0.00000000000E+00  0.45593999997E+02  0.45594000000E+02  0.51100000000E-03 0.  1.
         11   -1    0    0    0    0 -0.00000000000E+00 -0.00000000000E+00 -0.45593999997E+02  0.45594000000E+02  0.51100000000E-03 0. -1.
    9900012    2    1    2    0    0  0.35797488282E+01 -0.12169250906E+02  0.29254301095E+02  0.59301962274E+02  0.50000033277E+02 0.  0.
         12    1    1    2    0    0 -0.35797488282E+01  0.12169250906E+02 -0.29254301095E+02  0.31886037726E+02  0.00000000000E+00 0. -1.
         11    1    3    3    0    0 -0.82638710697E+01 -0.27037097365E+00 -0.70552631135E-01  0.82685938015E+01  0.51100000000E-03 0. -1.
        -11    1    3    3    0    0  0.22627427471E+02 -0.11916803833E+02  0.30927293850E+02  0.40131137445E+02  0.51100000000E-03 0.  1.
        -12    1    3    3    0    0 -0.10783807573E+02  0.17923900396E-01 -0.16024401234E+01  0.10902231028E+02  0.00000000000E+00 0.  1.
</event>
<event>
 7    1  0.4346085E-013  0.5930191E+02  0.7816164E-02  0.1266605E+00
        -11   -1    0    0    0    0  0.00000000000E+00  0.00000000000E+00  0.45593999997E+02  0.45594000000E+02  0.51100000000E-03 0.  1.
         11   -1    0    0    0    0 -0.00000000000E+00 -0.00000000000E+00 -0.45593999997E+02  0.45594000000E+02  0.51100000000E-03 0. -1.
    9900012    2    1    2    0    0 -0.23164993390E+02 -0.16618511712E+02  0.14280430127E+02  0.59301913146E+02  0.49999943679E+02 0.  0.
         12    1    1    2    0    0  0.23164993390E+02  0.16618511712E+02 -0.14280430127E+02  0.31886086854E+02  0.00000000000E+00 0. -1.
         11    1    3    3    0    0 -0.18773168954E+02 -0.23681586575E+02  0.62859989186E+00  0.30226553780E+02  0.51100000000E-03 0. -1.
        -11    1    3    3    0    0 -0.93819974782E+01  0.14150611390E+02  0.84295056424E+01  0.18955691626E+02  0.51100000000E-03 0.  1.
         12    1    3    3    0    0  0.49901730427E+01 -0.70875365264E+01  0.52223245930E+01  0.10119667740E+02  0.00000000000E+00 0. -1.
</event>
<event>
 7    1  0.4346085E-013  0.5930189E+02  0.7816164E-02  0.1266605E+00
        -11   -1    0    0    0    0  0.00000000000E+00  0.00000000000E+00  0.45593999997E+02  0.45594000000E+02  0.51100000000E-03 0.  1.
         11   -1    0    0    0    0 -0.00000000000E+00 -0.00000000000E+00 -0.45593999997E+02  0.45594000000E+02  0.51100000000E-03 0. -1.
    9900012    2    1    2    0    0 -0.30701717475E+02 -0.44294719138E+01 -0.73829849035E+01  0.59301887922E+02  0.49999897676E+02 0.  0.
         12    1    1    2    0    0  0.30701717475E+02  0.44294719138E+01  0.73829849035E+01  0.31886112078E+02  0.00000000000E+00 0. -1.
         11    1    3    3    0    0 -0.19050386838E+02 -0.25705034361E+01 -0.23213467097E+02  0.30139505330E+02  0.51100000000E-03 0. -1.
        -11    1    3    3    0    0  0.16784628751E+01 -0.23515028253E+01  0.15554608686E+02  0.15820640151E+02  0.51100000000E-03 0.  1.
        -12    1    3    3    0    0 -0.13329793513E+02  0.49253434766E+00  0.27587350819E+00  0.13341742441E+02  0.00000000000E+00 0.  1.
</event>
<event>
 7    1  0.4346085E-013  0.5930195E+02  0.7816164E-02  0.1266605E+00
        -11   -1    0    0    0    0  0.00000000000E+00  0.00000000000E+00  0.45593999997E+02  0.45594000000E+02  0.51100000000E-03 0.  1.
         11   -1    0    0    0    0 -0.00000000000E+00 -0.00000000000E+00 -0.45593999997E+02  0.45594000000E+02  0.51100000000E-03 0. -1.
    9900012    2    1    2    0    0  0.15299611651E+02  0.82262691589E+01  0.26738927697E+02  0.59301954850E+02  0.50000019737E+02 0.  0.
         12    1    1    2    0    0 -0.15299611651E+02 -0.82262691589E+01 -0.26738927697E+02  0.31886045150E+02  0.00000000000E+00 0. -1.
         11    1    3    3    0    0  0.92198097278E+01  0.30099499512E+01 -0.55518320672E+01  0.11175308930E+02  0.51100000000E-03 0. -1.
        -11    1    3    3    0    0  0.38991416548E+01 -0.14846937724E+02  0.16182009757E+02  0.22304535536E+02  0.51100000000E-03 0.  1.
        -12    1    3    3    0    0  0.21806602684E+01  0.20063256931E+02  0.16108750007E+02  0.25822110384E+02  0.00000000000E+00 0.  1.
</event>
<event>
 7    1  0.4346085E-013  0.5930195E+02  0.7816164E-02  0.1266605E+00
        -11   -1    0    0    0    0  0.00000000000E+00  0.00000000000E+00  0.45593999997E+02  0.45594000000E+02  0.51100000000E-03 0.  1.
         11   -1    0    0    0    0 -0.00000000000E+00 -0.00000000000E+00 -0.45593999997E+02  0.45594000000E+02  0.51100000000E-03 0. -1.
    9900012    2    1    2    0    0  0.25254222117E+02 -0.91702498972E+01  0.17171216218E+02  0.59301954709E+02  0.50000019479E+02 0.  0.
         12    1    1    2    0    0 -0.25254222117E+02  0.91702498972E+01 -0.17171216218E+02  0.31886045291E+02  0.00000000000E+00 0. -1.
         11    1    3    3    0    0  0.21862673735E+02 -0.23142887728E+01  0.15139033383E+02  0.26693122099E+02  0.51100000000E-03 0. -1.
        -11    1    3    3    0    0  0.65545404417E+01 -0.18946345496E+02  0.12167631220E+01  0.20084982470E+02  0.51100000000E-03 0.  1.
         12    1    3    3    0    0 -0.31629920595E+01  0.12090384371E+02  0.81541971293E+00  0.12523850140E+02  0.00000000000E+00 0. -1.
</event>
<event>
 7    1  0.4346085E-013  0.5930158E+02  0.7816164E-02  0.1266606E+00
        -11   -1    0    0    0    0  0.00000000000E+00  0.00000000000E+00  0.45593999997E+02  0.45594000000E+02  0.51100000000E-03 0.  1.
         11   -1    0    0    0    0 -0.00000000000E+00 -0.00000000000E+00 -0.45593999997E+02  0.45594000000E+02  0.51100000000E-03 0. -1.
    9900012    2    1    2    0    0  0.63857967720E+01  0.29297954806E+02 -0.10844129107E+02  0.59301581381E+02  0.49999338616E+02 0.  0.
         12    1    1    2    0    0 -0.63857967720E+01 -0.29297954806E+02  0.10844129107E+02  0.31886418619E+02  0.00000000000E+00 0. -1.
         11    1    3    3    0    0  0.11752989321E+02  0.25947460829E+01 -0.18451143151E+02  0.22029755992E+02  0.51100000000E-03 0. -1.
        -11    1    3    3    0    0  0.89891588386E+01  0.16436085367E+02  0.53198540452E+01  0.19474360737E+02  0.51100000000E-03 0.  1.
        -12    1    3    3    0    0 -0.14356351388E+02  0.10267123356E+02  0.22871599990E+01  0.17797464652E+02  0.00000000000E+00 0.  1.
</event>
<event>
 7    1  0.4346085E-013  0.5930196E+02  0.7816164E-02  0.1266605E+00
        -11   -1    0    0    0    0  0.00000000000E+00  0.00000000000E+00  0.45593999997E+02  0.45594000000E+02  0.51100000000E-03 0.  1.
         11   -1    0    0    0    0 -0.00000000000E+00 -0.00000000000E+00 -0.45593999997E+02  0.45594000000E+02  0.51100000000E-03 0. -1.
    9900012    2    1    2    0    0  0.17602427100E+02 -0.22541750140E+02  0.14097642836E+02  0.59301961163E+02  0.50000031251E+02 0.  0.
         12    1    1    2    0    0 -0.17602427100E+02  0.22541750140E+02 -0.14097642836E+02  0.31886038837E+02  0.00000000000E+00 0. -1.
         11    1    3    3    0    0  0.72658138813E+01 -0.25472250456E+02  0.87375105825E+01  0.27892143806E+02  0.51100000000E-03 0. -1.
        -11    1    3    3    0    0  0.19048089441E+01  0.15495642638E+02  0.45248024577E+01  0.16254755471E+02  0.51100000000E-03 0.  1.
        -12    1    3    3    0    0  0.84318042750E+01 -0.12565142321E+02  0.83532979580E+00  0.15155061886E+02  0.00000000000E+00 0.  1.
</event>
<event>
 7    1  0.4346085E-013  0.5930196E+02  0.7816164E-02  0.1266605E+00
        -11   -1    0    0    0    0  0.00000000000E+00  0.00000000000E+00  0.45593999997E+02  0.45594000000E+02  0.51100000000E-03 0.  1.
         11   -1    0    0    0    0 -0.00000000000E+00 -0.00000000000E+00 -0.45593999997E+02  0.45594000000E+02  0.51100000000E-03 0. -1.
    9900012    2    1    2    0    0  0.40121166566E+01 -0.13709999984E+02  0.28507167191E+02  0.59301956644E+02  0.50000023009E+02 0.  0.
         12    1    1    2    0    0 -0.40121166566E+01  0.13709999984E+02 -0.28507167191E+02  0.31886043356E+02  0.00000000000E+00 0. -1.
         11    1    3    3    0    0 -0.76918458920E+01 -0.11308619292E+01 -0.94220790097E+01  0.12215519435E+02  0.51100000000E-03 0. -1.
        -11    1    3    3    0    0 -0.34529791611E+01 -0.58187247633E+01  0.25416544388E+02  0.26301736670E+02  0.51100000000E-03 0.  1.
         12    1    3    3    0    0  0.15156941710E+02 -0.67604132919E+01  0.12512701812E+02  0.20784700539E+02  0.00000000000E+00 0. -1.
</event>
<event>
 7    1  0.4346085E-013  0.5930195E+02  0.7816164E-02  0.1266605E+00
        -11   -1    0    0    0    0  0.00000000000E+00  0.00000000000E+00  0.45593999997E+02  0.45594000000E+02  0.51100000000E-03 0.  1.
         11   -1    0    0    0    0 -0.00000000000E+00 -0.00000000000E+00 -0.45593999997E+02  0.45594000000E+02  0.51100000000E-03 0. -1.
    9900012    2    1    2    0    0  0.25162143016E+02 -0.15516034874E+02  0.11951545615E+02  0.59301949414E+02  0.50000009824E+02 0.  0.
         12    1    1    2    0    0 -0.25162143016E+02  0.15516034874E+02 -0.11951545615E+02  0.31886050586E+02  0.00000000000E+00 0. -1.
         11    1    3    3    0    0  0.20269708358E+02 -0.24050069996E+00  0.11387223603E+02  0.23250543631E+02  0.51100000000E-03 0. -1.
        -11    1    3    3    0    0 -0.37320233690E+01 -0.12301057294E+02 -0.13911067500E+02  0.18941008638E+02  0.51100000000E-03 0.  1.
        -12    1    3    3    0    0  0.86244580271E+01 -0.29744768803E+01  0.14475389511E+02  0.17110397145E+02  0.00000000000E+00 0.  1.
</event>
<event>
 7    1  0.4346085E-013  0.5930192E+02  0.7816164E-02  0.1266605E+00
        -11   -1    0    0    0    0  0.00000000000E+00  0.00000000000E+00  0.45593999997E+02  0.45594000000E+02  0.51100000000E-03 0.  1.
         11   -1    0    0    0    0 -0.00000000000E+00 -0.00000000000E+00 -0.45593999997E+02  0.45594000000E+02  0.51100000000E-03 0. -1.
    9900012    2    1    2    0    0 -0.16840524668E+02 -0.20062062717E+02  0.18183297568E+02  0.59301922443E+02  0.49999960634E+02 0.  0.
         12    1    1    2    0    0  0.16840524668E+02  0.20062062717E+02 -0.18183297568E+02  0.31886077557E+02  0.00000000000E+00 0. -1.
         11    1    3    3    0    0  0.75898095969E+01 -0.98923204889E+01  0.10246111856E+02  0.16138340150E+02  0.51100000000E-03 0. -1.
        -11    1    3    3    0    0 -0.10327362596E+02 -0.12274228177E+02 -0.11005931993E+02  0.19453576402E+02  0.51100000000E-03 0.  1.
        -12    1    3    3    0    0 -0.14102971669E+02  0.21044859489E+01  0.18943117704E+02  0.23710005891E+02  0.00000000000E+00 0.  1.
</event>
<event>
 7    1  0.4346085E-013  0.5930194E+02  0.7816164E-02  0.1266605E+00
        -11   -1    0    0    0    0  0.00000000000E+00  0.00000000000E+00  0.45593999997E+02  0.45594000000E+02  0.51100000000E-03 0. -1.
         11   -1    0    0    0    0 -0.00000000000E+00 -0.00000000000E+00 -0.45593999997E+02  0.45594000000E+02  0.51100000000E-03 0.  1.
    9900012    2    1    2    0    0 -0.25366819660E+02 -0.18779854709E+02 -0.45345981016E+01  0.59301936234E+02  0.49999985786E+02 0.  0.
         12    1    1    2    0    0  0.25366819660E+02  0.18779854709E+02  0.45345981016E+01  0.31886063766E+02  0.00000000000E+00 0. -1.
         11    1    3    3    0    0  0.39902349883E+01 -0.11925581218E+02  0.98692424383E+01  0.15985725170E+02  0.51100000000E-03 0. -1.
        -11    1    3    3    0    0 -0.10838994407E+02  0.84568981079E+01 -0.13504784674E+02  0.19271277454E+02  0.51100000000E-03 0.  1.
        -12    1    3    3    0    0 -0.18518060241E+02 -0.15311171599E+02 -0.89905586557E+00  0.24044933609E+02  0.00000000000E+00 0.  1.
</event>
<event>
 7    1  0.4346085E-013  0.5930197E+02  0.7816164E-02  0.1266605E+00
        -11   -1    0    0    0    0  0.00000000000E+00  0.00000000000E+00  0.45593999997E+02  0.45594000000E+02  0.51100000000E-03 0.  1.
         11   -1    0    0    0    0 -0.00000000000E+00 -0.00000000000E+00 -0.45593999997E+02  0.45594000000E+02  0.51100000000E-03 0. -1.
    9900012    2    1    2    0    0  0.31041697900E+02 -0.22442586094E+01  0.69350761847E+01  0.59301968781E+02  0.50000045143E+02 0.  0.
         12    1    1    2    0    0 -0.31041697900E+02  0.22442586094E+01 -0.69350761847E+01  0.31886031219E+02  0.00000000000E+00 0. -1.
         11    1    3    3    0    0  0.69147779535E+01 -0.12512821503E+02 -0.10579350088E+02  0.17785035976E+02  0.51100000000E-03 0. -1.
        -11    1    3    3    0    0  0.23404014821E+02  0.12960467413E+02  0.32116065432E+01  0.26945055987E+02  0.51100000000E-03 0.  1.
         12    1    3    3    0    0  0.72290512619E+00 -0.26919045195E+01  0.14302819730E+02  0.14571876818E+02  0.00000000000E+00 0. -1.
</event>
<event>
 7    1  0.4346085E-013  0.5930197E+02  0.7816164E-02  0.1266605E+00
        -11   -1    0    0    0    0  0.00000000000E+00  0.00000000000E+00  0.45593999997E+02  0.45594000000E+02  0.51100000000E-03 0. -1.
         11   -1    0    0    0    0 -0.00000000000E+00 -0.00000000000E+00 -0.45593999997E+02  0.45594000000E+02  0.51100000000E-03 0.  1.
    9900012    2    1    2    0    0 -0.22205008159E+02 -0.22318427567E+02 -0.50541480735E+01  0.59301968432E+02  0.50000044508E+02 0.  0.
         12    1    1    2    0    0  0.22205008159E+02  0.22318427567E+02  0.50541480735E+01  0.31886031568E+02  0.00000000000E+00 0. -1.
         11    1    3    3    0    0  0.69832533527E+00 -0.79321775921E+01  0.17582066852E+02  0.19301196198E+02  0.51100000000E-03 0. -1.
        -11    1    3    3    0    0 -0.63416994772E+01 -0.13459394269E+02 -0.16740052049E+02  0.22396468230E+02  0.51100000000E-03 0.  1.
         12    1    3    3    0    0 -0.16561634017E+02 -0.92685570612E+00 -0.58961628764E+01  0.17604304004E+02  0.00000000000E+00 0. -1.
</event>
<event>
 7    1  0.4346085E-013  0.5930194E+02  0.7816164E-02  0.1266605E+00
        -11   -1    0    0    0    0  0.00000000000E+00  0.00000000000E+00  0.45593999997E+02  0.45594000000E+02  0.51100000000E-03 0.  1.
         11   -1    0    0    0    0 -0.00000000000E+00 -0.00000000000E+00 -0.45593999997E+02  0.45594000000E+02  0.51100000000E-03 0. -1.
    9900012    2    1    2    0    0  0.24579543603E+02  0.13153510748E+01  0.20269106636E+02  0.59301940413E+02  0.49999993407E+02 0.  0.
         12    1    1    2    0    0 -0.24579543603E+02 -0.13153510748E+01 -0.20269106636E+02  0.31886059587E+02  0.00000000000E+00 0. -1.
         11    1    3    3    0    0  0.86091598331E+00 -0.74697982758E+00 -0.68409598910E+01  0.69352640674E+01  0.51100000000E-03 0. -1.
        -11    1    3    3    0    0  0.32610496917E+02  0.15441278098E+01  0.11914728353E+02  0.34753267355E+02  0.51100000000E-03 0.  1.
        -12    1    3    3    0    0 -0.88918692974E+01  0.51820309253E+00  0.15195338174E+02  0.17613408991E+02  0.00000000000E+00 0.  1.
</event>
<event>
 7    1  0.4346085E-013  0.5930198E+02  0.7816164E-02  0.1266605E+00
        -11   -1    0    0    0    0  0.00000000000E+00  0.00000000000E+00  0.45593999997E+02  0.45594000000E+02  0.51100000000E-03 0.  1.
         11   -1    0    0    0    0 -0.00000000000E+00 -0.00000000000E+00 -0.45593999997E+02  0.45594000000E+02  0.51100000000E-03 0. -1.
    9900012    2    1    2    0    0  0.14507973943E+01 -0.88615834417E+01  0.30595520736E+02  0.59301978560E+02  0.50000062978E+02 0.  0.
         12    1    1    2    0    0 -0.14507973943E+01  0.88615834417E+01 -0.30595520736E+02  0.31886021440E+02  0.00000000000E+00 0. -1.
         11    1    3    3    0    0  0.11913361173E+02 -0.46230187404E+01  0.23082007105E+01  0.12985694725E+02  0.51100000000E-03 0. -1.
        -11    1    3    3    0    0 -0.22608837836E+02 -0.64637559402E+01  0.22969339468E+02  0.32871419881E+02  0.51100000000E-03 0.  1.
        -12    1    3    3    0    0  0.12146274057E+02  0.22251912389E+01  0.53179805582E+01  0.13444863954E+02  0.00000000000E+00 0.  1.
</event>
<event>
 7    1  0.4346085E-013  0.5930193E+02  0.7816164E-02  0.1266605E+00
        -11   -1    0    0    0    0  0.00000000000E+00  0.00000000000E+00  0.45593999997E+02  0.45594000000E+02  0.51100000000E-03 0.  1.
         11   -1    0    0    0    0 -0.00000000000E+00 -0.00000000000E+00 -0.45593999997E+02  0.45594000000E+02  0.51100000000E-03 0. -1.
    9900012    2    1    2    0    0  0.26674123952E+02 -0.10920886004E+02  0.13636233061E+02  0.59301929501E+02  0.49999973507E+02 0.  0.
         12    1    1    2    0    0 -0.26674123952E+02  0.10920886004E+02 -0.13636233061E+02  0.31886070499E+02  0.00000000000E+00 0. -1.
         11    1    3    3    0    0  0.10865245937E+02 -0.13149551010E+02 -0.29152287809E+00  0.17060165500E+02  0.51100000000E-03 0. -1.
        -11    1    3    3    0    0  0.20180368675E+02  0.72805398698E+01  0.22687894326E+02  0.31224895354E+02  0.51100000000E-03 0.  1.
        -12    1    3    3    0    0 -0.43714906598E+01 -0.50518748634E+01 -0.87601383870E+01  0.11016868647E+02  0.00000000000E+00 0.  1.
</event>
<event>
 7    1  0.4346085E-013  0.5930193E+02  0.7816164E-02  0.1266605E+00
        -11   -1    0    0    0    0  0.00000000000E+00  0.00000000000E+00  0.45593999997E+02  0.45594000000E+02  0.51100000000E-03 0. -1.
         11   -1    0    0    0    0 -0.00000000000E+00 -0.00000000000E+00 -0.45593999997E+02  0.45594000000E+02  0.51100000000E-03 0.  1.
    9900012    2    1    2    0    0  0.18234878411E+02  0.11524642416E+02 -0.23481771426E+02  0.59301925253E+02  0.49999965760E+02 0.  0.
         12    1    1    2    0    0 -0.18234878411E+02 -0.11524642416E+02  0.23481771426E+02  0.31886074747E+02  0.00000000000E+00 0. -1.
         11    1    3    3    0    0  0.88687410789E+01  0.22825440776E+02 -0.31052852139E+02  0.39546617317E+02  0.51100000000E-03 0.  1.
        -11    1    3    3    0    0  0.29327476513E+01 -0.68152877708E+01  0.91243744364E+01  0.11760245121E+02  0.51100000000E-03 0. -1.
        -12    1    3    3    0    0  0.64333896805E+01 -0.44855105898E+01 -0.15532937229E+01  0.79950628154E+01  0.00000000000E+00 0.  1.
</event>
<event>
 7    1  0.4346085E-013  0.5930196E+02  0.7816164E-02  0.1266605E+00
        -11   -1    0    0    0    0  0.00000000000E+00  0.00000000000E+00  0.45593999997E+02  0.45594000000E+02  0.51100000000E-03 0.  1.
         11   -1    0    0    0    0 -0.00000000000E+00 -0.00000000000E+00 -0.45593999997E+02  0.45594000000E+02  0.51100000000E-03 0. -1.
    9900012    2    1    2    0    0  0.12778536616E+02 -0.24655010801E+02  0.15670330602E+02  0.59301955767E+02  0.50000021409E+02 0.  0.
         12    1    1    2    0    0 -0.12778536616E+02  0.24655010801E+02 -0.15670330602E+02  0.31886044233E+02  0.00000000000E+00 0. -1.
         11    1    3    3    0    0  0.84786112217E+01  0.10582345983E+02  0.11771593440E+01  0.13610973482E+02  0.51100000000E-03 0. -1.
        -11    1    3    3    0    0  0.42428733620E+01 -0.11895486104E+02  0.18101385244E+02  0.22071808083E+02  0.51100000000E-03 0.  1.
         12    1    3    3    0    0  0.57052032080E-01 -0.23341870680E+02 -0.36082139865E+01  0.23619174202E+02  0.00000000000E+00 0. -1.
</event>
<event>
 7    1  0.4346085E-013  0.5930196E+02  0.7816164E-02  0.1266605E+00
        -11   -1    0    0    0    0  0.00000000000E+00  0.00000000000E+00  0.45593999997E+02  0.45594000000E+02  0.51100000000E-03 0. -1.
         11   -1    0    0    0    0 -0.00000000000E+00 -0.00000000000E+00 -0.45593999997E+02  0.45594000000E+02  0.51100000000E-03 0.  1.
    9900012    2    1    2    0    0 -0.16117563543E+02  0.23224929544E+02 -0.14749453265E+02  0.59301959504E+02  0.50000028226E+02 0.  0.
         12    1    1    2    0    0  0.16117563543E+02 -0.23224929544E+02  0.14749453265E+02  0.31886040496E+02  0.00000000000E+00 0. -1.
         11    1    3    3    0    0  0.11370995328E+02  0.15806281319E+02 -0.13798736632E+02  0.23865104164E+02  0.51100000000E-03 0. -1.
        -11    1    3    3    0    0 -0.15064496089E+02 -0.67444896968E+01  0.73276015861E+00  0.16521625870E+02  0.51100000000E-03 0.  1.
         12    1    3    3    0    0 -0.12424062782E+02  0.14163137922E+02 -0.16834767921E+01  0.18915229470E+02  0.00000000000E+00 0. -1.
</event>
<event>
 7    1  0.4346085E-013  0.5930191E+02  0.7816164E-02  0.1266605E+00
        -11   -1    0    0    0    0  0.00000000000E+00  0.00000000000E+00  0.45593999997E+02  0.45594000000E+02  0.51100000000E-03 0.  1.
         11   -1    0    0    0    0 -0.00000000000E+00 -0.00000000000E+00 -0.45593999997E+02  0.45594000000E+02  0.51100000000E-03 0. -1.
    9900012    2    1    2    0    0 -0.12233036466E+02 -0.51969065368E+01  0.28983924346E+02  0.59301907590E+02  0.49999933546E+02 0.  0.
         12    1    1    2    0    0  0.12233036466E+02  0.51969065368E+01 -0.28983924346E+02  0.31886092410E+02  0.00000000000E+00 0. -1.
         11    1    3    3    0    0  0.85163760332E+01  0.65107001666E+01 -0.40589749749E+01  0.11462685353E+02  0.51100000000E-03 0. -1.
        -11    1    3    3    0    0 -0.11958223061E+02 -0.12717407100E+02  0.34693365354E+02  0.38837625339E+02  0.51100000000E-03 0.  1.
         12    1    3    3    0    0 -0.87911894381E+01  0.10098003969E+01 -0.16504660334E+01  0.90015968976E+01  0.00000000000E+00 0. -1.
</event>
<event>
 7    1  0.4346085E-013  0.5930199E+02  0.7816164E-02  0.1266605E+00
        -11   -1    0    0    0    0  0.00000000000E+00  0.00000000000E+00  0.45593999997E+02  0.45594000000E+02  0.51100000000E-03 0. -1.
         11   -1    0    0    0    0 -0.00000000000E+00 -0.00000000000E+00 -0.45593999997E+02  0.45594000000E+02  0.51100000000E-03 0.  1.
    9900012    2    1    2    0    0 -0.29980203612E+02 -0.86440089124E+01 -0.65715944977E+01  0.59301994403E+02  0.50000091871E+02 0.  0.
         12    1    1    2    0    0  0.29980203612E+02  0.86440089124E+01  0.65715944977E+01  0.31886005597E+02  0.00000000000E+00 0. -1.
         11    1    3    3    0    0 -0.17879332444E+02 -0.95638185471E+01 -0.46052992326E+01  0.20792929931E+02  0.51100000000E-03 0. -1.
        -11    1    3    3    0    0 -0.47739426806E+00  0.85884487303E+01  0.14552075447E+02  0.16904208262E+02  0.51100000000E-03 0.  1.
        -12    1    3    3    0    0 -0.11623476900E+02 -0.76686390955E+01 -0.16518370712E+02  0.21604856209E+02  0.00000000000E+00 0.  1.
</event>
<event>
 7    1  0.4346085E-013  0.5930193E+02  0.7816164E-02  0.1266605E+00
        -11   -1    0    0    0    0  0.00000000000E+00  0.00000000000E+00  0.45593999997E+02  0.45594000000E+02  0.51100000000E-03 0.  1.
         11   -1    0    0    0    0 -0.00000000000E+00 -0.00000000000E+00 -0.45593999997E+02  0.45594000000E+02  0.51100000000E-03 0. -1.
    9900012    2    1    2    0    0  0.17782839756E+02  0.58936727040E+01  0.25802257657E+02  0.59301933013E+02  0.49999979912E+02 0.  0.
         12    1    1    2    0    0 -0.17782839756E+02 -0.58936727040E+01 -0.25802257657E+02  0.31886066987E+02  0.00000000000E+00 0. -1.
         11    1    3    3    0    0 -0.53702188266E+01  0.12599079405E+02 -0.40391682155E+01  0.14279038211E+02  0.51100000000E-03 0. -1.
        -11    1    3    3    0    0  0.19335684532E+02  0.43983386467E+00  0.31298274993E+02  0.36791903565E+02  0.51100000000E-03 0.  1.
         12    1    3    3    0    0  0.38173740508E+01 -0.71452405654E+01 -0.14568491209E+01  0.82309912370E+01  0.00000000000E+00 0. -1.
</event>
<event>
 7    1  0.4346085E-013  0.5930196E+02  0.7816164E-02  0.1266605E+00
        -11   -1    0    0    0    0  0.00000000000E+00  0.00000000000E+00  0.45593999997E+02  0.45594000000E+02  0.51100000000E-03 0.  1.
         11   -1    0    0    0    0 -0.00000000000E+00 -0.00000000000E+00 -0.45593999997E+02  0.45594000000E+02  0.51100000000E-03 0. -1.
    9900012    2    1    2    0    0  0.22321404684E+02  0.15046770883E+01  0.22720260580E+02  0.59301962287E+02  0.50000033300E+02 0.  0.
         12    1    1    2    0    0 -0.22321404684E+02 -0.15046770883E+01 -0.22720260580E+02  0.31886037713E+02  0.00000000000E+00 0. -1.
         11    1    3    3    0    0 -0.27727860285E+01  0.27310736941E+01 -0.75872200145E+01  0.85271926032E+01  0.51100000000E-03 0. -1.
        -11    1    3    3    0    0  0.30011135312E+02 -0.75906651566E+01  0.29380643365E+02  0.42679135945E+02  0.51100000000E-03 0.  1.
        -12    1    3    3    0    0 -0.49169445990E+01  0.63642685508E+01  0.92683722956E+00  0.80956337384E+01  0.00000000000E+00 0.  1.
</event>
<event>
 7    1  0.4346085E-013  0.5930195E+02  0.7816164E-02  0.1266605E+00
        -11   -1    0    0    0    0  0.00000000000E+00  0.00000000000E+00  0.45593999997E+02  0.45594000000E+02  0.51100000000E-03 0.  1.
         11   -1    0    0    0    0 -0.00000000000E+00 -0.00000000000E+00 -0.45593999997E+02  0.45594000000E+02  0.51100000000E-03 0. -1.
    9900012    2    1    2    0    0  0.25421229617E+02 -0.49980924324E+01  0.18587639990E+02  0.59301949702E+02  0.50000010349E+02 0.  0.
         12    1    1    2    0    0 -0.25421229617E+02  0.49980924324E+01 -0.18587639990E+02  0.31886050298E+02  0.00000000000E+00 0. -1.
         11    1    3    3    0    0  0.28873486589E+02  0.12902730912E+02  0.12748086842E+02  0.34097982509E+02  0.51100000000E-03 0. -1.
        -11    1    3    3    0    0 -0.58851290456E+01  0.19450309795E+00  0.33563585190E+01  0.67777369460E+01  0.51100000000E-03 0.  1.
         12    1    3    3    0    0  0.24328720729E+01 -0.18095326442E+02  0.24831946286E+01  0.18426230247E+02  0.00000000000E+00 0. -1.
</event>
<event>
 7    1  0.4346085E-013  0.5930195E+02  0.7816164E-02  0.1266605E+00
        -11   -1    0    0    0    0  0.00000000000E+00  0.00000000000E+00  0.45593999997E+02  0.45594000000E+02  0.51100000000E-03 0. -1.
         11   -1    0    0    0    0 -0.00000000000E+00 -0.00000000000E+00 -0.45593999997E+02  0.45594000000E+02  0.51100000000E-03 0.  1.
    9900012    2    1    2    0    0  0.24413027908E+02  0.14080206297E+02  0.14915487876E+02  0.59301954156E+02  0.50000018472E+02 0.  0.
         12    1    1    2    0    0 -0.24413027908E+02 -0.14080206297E+02 -0.14915487876E+02  0.31886045844E+02  0.00000000000E+00 0. -1.
         11    1    3    3    0    0  0.80170645029E+01 -0.62566500605E+01  0.17231609152E+02  0.20008681802E+02  0.51100000000E-03 0. -1.
        -11    1    3    3    0    0  0.37164905552E+01  0.19780546252E+02 -0.11907258916E+02  0.23385147578E+02  0.51100000000E-03 0.  1.
        -12    1    3    3    0    0  0.12679472849E+02  0.55631010524E+00  0.95911376391E+01  0.15908124776E+02  0.00000000000E+00 0.  1.
</event>
<event>
 7    1  0.4346085E-013  0.5930195E+02  0.7816164E-02  0.1266605E+00
        -11   -1    0    0    0    0  0.00000000000E+00  0.00000000000E+00  0.45593999997E+02  0.45594000000E+02  0.51100000000E-03 0.  1.
         11   -1    0    0    0    0 -0.00000000000E+00 -0.00000000000E+00 -0.45593999997E+02  0.45594000000E+02  0.51100000000E-03 0. -1.
    9900012    2    1    2    0    0  0.30911175246E+02  0.65075398274E+01  0.43441498182E+01  0.59301945566E+02  0.50000002806E+02 0.  0.
         12    1    1    2    0    0 -0.30911175246E+02 -0.65075398274E+01 -0.43441498182E+01  0.31886054434E+02  0.00000000000E+00 0. -1.
         11    1    3    3    0    0 -0.26401602102E+01 -0.48872671141E+01 -0.57663422991E+00  0.55846515626E+01  0.51100000000E-03 0. -1.
        -11    1    3    3    0    0  0.40287170748E+02  0.45057811440E+01  0.11394836077E+02  0.42109387078E+02  0.51100000000E-03 0.  1.
        -12    1    3    3    0    0 -0.67358352922E+01  0.68890257974E+01 -0.64740520288E+01  0.11607906926E+02  0.00000000000E+00 0.  1.
</event>
<event>
 7    1  0.4346085E-013  0.5930196E+02  0.7816164E-02  0.1266605E+00
        -11   -1    0    0    0    0  0.00000000000E+00  0.00000000000E+00  0.45593999997E+02  0.45594000000E+02  0.51100000000E-03 0. -1.
         11   -1    0    0    0    0 -0.00000000000E+00 -0.00000000000E+00 -0.45593999997E+02  0.45594000000E+02  0.51100000000E-03 0.  1.
    9900012    2    1    2    0    0 -0.29983411453E+02  0.78986224828E+01  0.74381835594E+01  0.59301956436E+02  0.50000022630E+02 0.  0.
         12    1    1    2    0    0  0.29983411453E+02 -0.78986224828E+01 -0.74381835594E+01  0.31886043564E+02  0.00000000000E+00 0. -1.
         11    1    3    3    0    0 -0.92307527711E+01  0.14000945154E+02  0.13033652898E+02  0.21239335443E+02  0.51100000000E-03 0. -1.
        -11    1    3    3    0    0 -0.21950751400E+02  0.54735463900E+01 -0.11087851010E+02  0.25193960335E+02  0.51100000000E-03 0.  1.
        -12    1    3    3    0    0  0.11980927175E+01 -0.11575869062E+02  0.54923816717E+01  0.12868660658E+02  0.00000000000E+00 0.  1.
</event>
<event>
 7    1  0.4346085E-013  0.5930194E+02  0.7816164E-02  0.1266605E+00
        -11   -1    0    0    0    0  0.00000000000E+00  0.00000000000E+00  0.45593999997E+02  0.45594000000E+02  0.51100000000E-03 0.  1.
         11   -1    0    0    0    0 -0.00000000000E+00 -0.00000000000E+00 -0.45593999997E+02  0.45594000000E+02  0.51100000000E-03 0. -1.
    9900012    2    1    2    0    0  0.13004942164E+02 -0.96306552490E+01  0.27474405129E+02  0.59301937552E+02  0.49999988190E+02 0.  0.
         12    1    1    2    0    0 -0.13004942164E+02  0.96306552490E+01 -0.27474405129E+02  0.31886062448E+02  0.00000000000E+00 0. -1.
         11    1    3    3    0    0 -0.97138007119E+01 -0.51885355703E+01 -0.70880386526E+01  0.13096530756E+02  0.51100000000E-03 0. -1.
        -11    1    3    3    0    0  0.22788947625E+01 -0.47010510449E+01  0.21080766153E+02  0.21718470115E+02  0.51100000000E-03 0.  1.
         12    1    3    3    0    0  0.20439848114E+02  0.25893136615E+00  0.13481677629E+02  0.24486936682E+02  0.00000000000E+00 0. -1.
</event>
<event>
 7    1  0.4346085E-013  0.5930194E+02  0.7816164E-02  0.1266605E+00
        -11   -1    0    0    0    0  0.00000000000E+00  0.00000000000E+00  0.45593999997E+02  0.45594000000E+02  0.51100000000E-03 0. -1.
         11   -1    0    0    0    0 -0.00000000000E+00 -0.00000000000E+00 -0.45593999997E+02  0.45594000000E+02  0.51100000000E-03 0.  1.
    9900012    2    1    2    0    0  0.30051232048E+02  0.10251539059E+02 -0.29240470508E+01  0.59301942673E+02  0.49999997530E+02 0.  0.
         12    1    1    2    0    0 -0.30051232048E+02 -0.10251539059E+02  0.29240470508E+01  0.31886057327E+02  0.00000000000E+00 0. -1.
         11    1    3    3    0    0 -0.84316911641E+01 -0.93862610495E+00  0.11439034835E+02  0.14241697689E+02  0.51100000000E-03 0. -1.
        -11    1    3    3    0    0  0.34065689165E+02  0.13502063642E+02 -0.15749911271E+02  0.39885293107E+02  0.51100000000E-03 0.  1.
         12    1    3    3    0    0  0.44172340465E+01 -0.23118984776E+01  0.13868293856E+01  0.51749518778E+01  0.00000000000E+00 0. -1.
</event>
<event>
 7    1  0.4346085E-013  0.5930200E+02  0.7816164E-02  0.1266605E+00
        -11   -1    0    0    0    0  0.00000000000E+00  0.00000000000E+00  0.45593999997E+02  0.45594000000E+02  0.51100000000E-03 0.  1.
         11   -1    0    0    0    0 -0.00000000000E+00 -0.00000000000E+00 -0.45593999997E+02  0.45594000000E+02  0.51100000000E-03 0. -1.
    9900012    2    1    2    0    0 -0.17455936109E+02  0.24090998715E+01  0.26574492323E+02  0.59301998214E+02  0.50000098823E+02 0.  0.
         12    1    1    2    0    0  0.17455936109E+02 -0.24090998715E+01 -0.26574492323E+02  0.31886001786E+02  0.00000000000E+00 0. -1.
         11    1    3    3    0    0 -0.73726138317E+01  0.14912659100E+02 -0.73699976274E+00  0.16651906949E+02  0.51100000000E-03 0. -1.
        -11    1    3    3    0    0 -0.52807441128E+01 -0.91993258950E+01  0.32904193395E+02  0.34571661784E+02  0.51100000000E-03 0.  1.
         12    1    3    3    0    0 -0.48025781649E+01 -0.33042333330E+01 -0.55927013087E+01  0.80784294809E+01  0.00000000000E+00 0. -1.
</event>
<event>
 7    1  0.4346085E-013  0.5930196E+02  0.7816164E-02  0.1266605E+00
        -11   -1    0    0    0    0  0.00000000000E+00  0.00000000000E+00  0.45593999997E+02  0.45594000000E+02  0.51100000000E-03 0. -1.
         11   -1    0    0    0    0 -0.00000000000E+00 -0.00000000000E+00 -0.45593999997E+02  0.45594000000E+02  0.51100000000E-03 0.  1.
    9900012    2    1    2    0    0  0.17426446606E+02  0.68466830690E+01 -0.25810098592E+02  0.59301963877E+02  0.50000036199E+02 0.  0.
         12    1    1    2    0    0 -0.17426446606E+02 -0.68466830690E+01  0.25810098592E+02  0.31886036123E+02  0.00000000000E+00 0. -1.
         11    1    3    3    0    0 -0.60669727225E+01  0.14532853929E+02  0.54015706284E+01  0.16648992968E+02  0.51100000000E-03 0. -1.
        -11    1    3    3    0    0  0.71202334767E+01  0.11190441129E+01 -0.19228292276E+02  0.20534780461E+02  0.51100000000E-03 0.  1.
         12    1    3    3    0    0  0.16373185852E+02 -0.88052149732E+01 -0.11983376944E+02  0.22118190447E+02  0.00000000000E+00 0. -1.
</event>
<event>
 7    1  0.4346085E-013  0.5930186E+02  0.7816164E-02  0.1266605E+00
        -11   -1    0    0    0    0  0.00000000000E+00  0.00000000000E+00  0.45593999997E+02  0.45594000000E+02  0.51100000000E-03 0. -1.
         11   -1    0    0    0    0 -0.00000000000E+00 -0.00000000000E+00 -0.45593999997E+02  0.45594000000E+02  0.51100000000E-03 0.  1.
    9900012    2    1    2    0    0 -0.16227698433E+02 -0.16176889545E+02 -0.22174225636E+02  0.59301855135E+02  0.49999837881E+02 0.  0.
         12    1    1    2    0    0  0.16227698433E+02  0.16176889545E+02  0.22174225636E+02  0.31886144865E+02  0.00000000000E+00 0. -1.
         11    1    3    3    0    0  0.64472789868E+01 -0.85982777316E+00 -0.14465758967E+02  0.15860797360E+02  0.51100000000E-03 0. -1.
        -11    1    3    3    0    0 -0.27530957487E+02 -0.99354756105E+00 -0.37133030077E+01  0.27798010296E+02  0.51100000000E-03 0.  1.
        -12    1    3    3    0    0  0.48559800671E+01 -0.14323514211E+02 -0.39951636607E+01  0.15643047479E+02  0.00000000000E+00 0.  1.
</event>
<event>
 7    1  0.4346085E-013  0.5930194E+02  0.7816164E-02  0.1266605E+00
        -11   -1    0    0    0    0  0.00000000000E+00  0.00000000000E+00  0.45593999997E+02  0.45594000000E+02  0.51100000000E-03 0. -1.
         11   -1    0    0    0    0 -0.00000000000E+00 -0.00000000000E+00 -0.45593999997E+02  0.45594000000E+02  0.51100000000E-03 0.  1.
    9900012    2    1    2    0    0  0.27312945122E+02 -0.14229893127E+02 -0.82603768913E+01  0.59301942607E+02  0.49999997410E+02 0.  0.
         12    1    1    2    0    0 -0.27312945122E+02  0.14229893127E+02  0.82603768913E+01  0.31886057393E+02  0.00000000000E+00 0. -1.
         11    1    3    3    0    0  0.19550378947E+02 -0.23412260124E+02 -0.56542827501E+01  0.31021317747E+02  0.51100000000E-03 0. -1.
        -11    1    3    3    0    0 -0.29908482160E+01  0.91578881528E+01 -0.11012189768E+02  0.14631487013E+02  0.51100000000E-03 0.  1.
        -12    1    3    3    0    0  0.10753414391E+02  0.24478844492E-01  0.84060956267E+01  0.13649137847E+02  0.00000000000E+00 0.  1.
</event>
<event>
 7    1  0.4346085E-013  0.5930200E+02  0.7816164E-02  0.1266605E+00
        -11   -1    0    0    0    0  0.00000000000E+00  0.00000000000E+00  0.45593999997E+02  0.45594000000E+02  0.51100000000E-03 0.  1.
         11   -1    0    0    0    0 -0.00000000000E+00 -0.00000000000E+00 -0.45593999997E+02  0.45594000000E+02  0.51100000000E-03 0. -1.
    9900012    2    1    2    0    0 -0.11690726210E+02 -0.13558216791E+02  0.26385955416E+02  0.59302000484E+02  0.50000102963E+02 0.  0.
         12    1    1    2    0    0  0.11690726210E+02  0.13558216791E+02 -0.26385955416E+02  0.31885999516E+02  0.00000000000E+00 0. -1.
         11    1    3    3    0    0 -0.10134830300E+02 -0.85595920870E+01 -0.44296934956E+01  0.13985835214E+02  0.51100000000E-03 0. -1.
        -11    1    3    3    0    0  0.14641209211E+02  0.11380924491E+01  0.81669451685E+01  0.16803548888E+02  0.51100000000E-03 0.  1.
        -12    1    3    3    0    0 -0.16197105121E+02 -0.61367171529E+01  0.22648703744E+02  0.28512616382E+02  0.00000000000E+00 0.  1.
</event>
<event>
 7    1  0.4346085E-013  0.5930195E+02  0.7816164E-02  0.1266605E+00
        -11   -1    0    0    0    0  0.00000000000E+00  0.00000000000E+00  0.45593999997E+02  0.45594000000E+02  0.51100000000E-03 0. -1.
         11   -1    0    0    0    0 -0.00000000000E+00 -0.00000000000E+00 -0.45593999997E+02  0.45594000000E+02  0.51100000000E-03 0.  1.
    9900012    2    1    2    0    0 -0.14522969678E+02  0.26338410193E+02 -0.10587340239E+02  0.59301948612E+02  0.50000008360E+02 0.  0.
         12    1    1    2    0    0  0.14522969678E+02 -0.26338410193E+02  0.10587340239E+02  0.31886051388E+02  0.00000000000E+00 0. -1.
         11    1    3    3    0    0 -0.50298490566E+01 -0.22342982921E+01 -0.72081709474E+01  0.90691344161E+01  0.51100000000E-03 0. -1.
        -11    1    3    3    0    0 -0.53092593181E+01  0.37781825997E+02 -0.82054487537E+01  0.39025427605E+02  0.51100000000E-03 0.  1.
        -12    1    3    3    0    0 -0.41838613037E+01 -0.92091175120E+01  0.48262794622E+01  0.11207386591E+02  0.00000000000E+00 0.  1.
</event>
<event>
 7    1  0.4346085E-013  0.5930194E+02  0.7816164E-02  0.1266605E+00
        -11   -1    0    0    0    0  0.00000000000E+00  0.00000000000E+00  0.45593999997E+02  0.45594000000E+02  0.51100000000E-03 0.  1.
         11   -1    0    0    0    0 -0.00000000000E+00 -0.00000000000E+00 -0.45593999997E+02  0.45594000000E+02  0.51100000000E-03 0. -1.
    9900012    2    1    2    0    0  0.33984024329E+01 -0.22209220171E+02  0.22625694683E+02  0.59301942552E+02  0.49999997308E+02 0.  0.
         12    1    1    2    0    0 -0.33984024329E+01  0.22209220171E+02 -0.22625694683E+02  0.31886057448E+02  0.00000000000E+00 0. -1.
         11    1    3    3    0    0 -0.82941740017E+01  0.53914762820E+01 -0.76594837109E+00  0.99220973609E+01  0.51100000000E-03 0. -1.
        -11    1    3    3    0    0  0.18236936117E+02 -0.14766794246E+02  0.25687233597E+02  0.34791924658E+02  0.51100000000E-03 0.  1.
        -12    1    3    3    0    0 -0.65443596827E+01 -0.12833902208E+02 -0.22955905433E+01  0.14587920533E+02  0.00000000000E+00 0.  1.
</event>
<event>
 7    1  0.4346085E-013  0.5930195E+02  0.7816164E-02  0.1266605E+00
        -11   -1    0    0    0    0  0.00000000000E+00  0.00000000000E+00  0.45593999997E+02  0.45594000000E+02  0.51100000000E-03 0.  1.
         11   -1    0    0    0    0 -0.00000000000E+00 -0.00000000000E+00 -0.45593999997E+02  0.45594000000E+02  0.51100000000E-03 0. -1.
    9900012    2    1    2    0    0  0.13888598690E+02 -0.15383018970E+02  0.24232001886E+02  0.59301947225E+02  0.50000005830E+02 0.  0.
         12    1    1    2    0    0 -0.13888598690E+02  0.15383018970E+02 -0.24232001886E+02  0.31886052775E+02  0.00000000000E+00 0. -1.
         11    1    3    3    0    0  0.88837593466E+01  0.11326177837E+02  0.39196894571E+01  0.14918694655E+02  0.51100000000E-03 0. -1.
        -11    1    3    3    0    0 -0.90918264173E+01 -0.22709184790E+02  0.98112374551E+01  0.26355810785E+02  0.51100000000E-03 0.  1.
         12    1    3    3    0    0  0.14096665760E+02 -0.40000120161E+01  0.10501074974E+02  0.18027441785E+02  0.00000000000E+00 0. -1.
</event>
<event>
 7    1  0.4346085E-013  0.5930194E+02  0.7816164E-02  0.1266605E+00
        -11   -1    0    0    0    0  0.00000000000E+00  0.00000000000E+00  0.45593999997E+02  0.45594000000E+02  0.51100000000E-03 0.  1.
         11   -1    0    0    0    0 -0.00000000000E+00 -0.00000000000E+00 -0.45593999997E+02  0.45594000000E+02  0.51100000000E-03 0. -1.
    9900012    2    1    2    0    0 -0.27745437375E+02 -0.12330103418E+02  0.97406425383E+01  0.59301939370E+02  0.49999991506E+02 0.  0.
         12    1    1    2    0    0  0.27745437375E+02  0.12330103418E+02 -0.97406425383E+01  0.31886060630E+02  0.00000000000E+00 0. -1.
         11    1    3    3    0    0 -0.70033360255E+01 -0.26287849532E+02 -0.46467940706E+01  0.27598739897E+02  0.51100000000E-03 0. -1.
        -11    1    3    3    0    0 -0.89829555103E+01  0.13645773814E+02  0.67413746526E+01  0.17673334862E+02  0.51100000000E-03 0.  1.
         12    1    3    3    0    0 -0.11759145839E+02  0.31197229989E+00  0.76460619564E+01  0.14029864612E+02  0.00000000000E+00 0. -1.
</event>
<event>
 7    1  0.4346085E-013  0.5930194E+02  0.7816164E-02  0.1266605E+00
        -11   -1    0    0    0    0  0.00000000000E+00  0.00000000000E+00  0.45593999997E+02  0.45594000000E+02  0.51100000000E-03 0.  1.
         11   -1    0    0    0    0 -0.00000000000E+00 -0.00000000000E+00 -0.45593999997E+02  0.45594000000E+02  0.51100000000E-03 0. -1.
    9900012    2    1    2    0    0 -0.79931309001E+01  0.20740037558E+02  0.22862234835E+02  0.59301935942E+02  0.49999985253E+02 0.  0.
         12    1    1    2    0    0  0.79931309001E+01 -0.20740037558E+02 -0.22862234835E+02  0.31886064058E+02  0.00000000000E+00 0. -1.
         11    1    3    3    0    0 -0.18739441903E+02  0.25715087262E+02  0.24555981438E+02  0.40192395057E+02  0.51100000000E-03 0. -1.
        -11    1    3    3    0    0  0.20888340001E+01 -0.30671714147E+01  0.62089115128E+01  0.72333498742E+01  0.51100000000E-03 0.  1.
         12    1    3    3    0    0  0.86574770032E+01 -0.19078782896E+01 -0.79026581161E+01  0.11876191011E+02  0.00000000000E+00 0. -1.
</event>
<event>
 7    1  0.4346085E-013  0.5930194E+02  0.7816164E-02  0.1266605E+00
        -11   -1    0    0    0    0  0.00000000000E+00  0.00000000000E+00  0.45593999997E+02  0.45594000000E+02  0.51100000000E-03 0.  1.
         11   -1    0    0    0    0 -0.00000000000E+00 -0.00000000000E+00 -0.45593999997E+02  0.45594000000E+02  0.51100000000E-03 0. -1.
    9900012    2    1    2    0    0 -0.27974670870E+02  0.14112913903E+02  0.59130827652E+01  0.59301935694E+02  0.49999984801E+02 0.  0.
         12    1    1    2    0    0  0.27974670870E+02 -0.14112913903E+02 -0.59130827652E+01  0.31886064306E+02  0.00000000000E+00 0. -1.
         11    1    3    3    0    0  0.22527441564E+01 -0.56445126821E+01 -0.42925193744E+01  0.74405041828E+01  0.51100000000E-03 0. -1.
        -11    1    3    3    0    0 -0.31861925993E+02  0.27472847758E+02  0.12049284350E+02  0.43762140550E+02  0.51100000000E-03 0.  1.
        -12    1    3    3    0    0  0.16345109667E+01 -0.77154211728E+01 -0.18436822102E+01  0.80992909607E+01  0.00000000000E+00 0.  1.
</event>
<event>
 7    1  0.4346085E-013  0.5930193E+02  0.7816164E-02  0.1266605E+00
        -11   -1    0    0    0    0  0.00000000000E+00  0.00000000000E+00  0.45593999997E+02  0.45594000000E+02  0.51100000000E-03 0.  1.
         11   -1    0    0    0    0 -0.00000000000E+00 -0.00000000000E+00 -0.45593999997E+02  0.45594000000E+02  0.51100000000E-03 0. -1.
    9900012    2    1    2    0    0 -0.29052788236E+02 -0.93254659156E+00 -0.13106754435E+02  0.59301934717E+02  0.49999983019E+02 0.  0.
         12    1    1    2    0    0  0.29052788236E+02  0.93254659156E+00  0.13106754435E+02  0.31886065283E+02  0.00000000000E+00 0. -1.
         11    1    3    3    0    0 -0.49964616286E+01 -0.11239436977E+02 -0.18918497278E+02  0.22565440653E+02  0.51100000000E-03 0. -1.
        -11    1    3    3    0    0 -0.17563610840E+02  0.14728765357E+02  0.12772892149E+02  0.26240497876E+02  0.51100000000E-03 0.  1.
        -12    1    3    3    0    0 -0.64927157675E+01 -0.44218749723E+01 -0.69611493057E+01  0.10495996187E+02  0.00000000000E+00 0.  1.
</event>
<event>
 7    1  0.4346085E-013  0.5930187E+02  0.7816164E-02  0.1266605E+00
        -11   -1    0    0    0    0  0.00000000000E+00  0.00000000000E+00  0.45593999997E+02  0.45594000000E+02  0.51100000000E-03 0. -1.
         11   -1    0    0    0    0 -0.00000000000E+00 -0.00000000000E+00 -0.45593999997E+02  0.45594000000E+02  0.51100000000E-03 0.  1.
    9900012    2    1    2    0    0  0.63050680570E+01  0.26462929797E+02 -0.16633844648E+02  0.59301869403E+02  0.49999863903E+02 0.  0.
         12    1    1    2    0    0 -0.63050680570E+01 -0.26462929797E+02  0.16633844648E+02  0.31886130597E+02  0.00000000000E+00 0. -1.
         11    1    3    3    0    0  0.15411632929E+02  0.24155493482E+02 -0.94805578422E+01  0.30180909068E+02  0.51100000000E-03 0. -1.
        -11    1    3    3    0    0 -0.79399473273E+01  0.69298926176E+01  0.80026745216E+01  0.13232874783E+02  0.51100000000E-03 0.  1.
        -12    1    3    3    0    0 -0.11666175446E+01 -0.46224563026E+01 -0.15155961328E+02  0.15888085553E+02  0.00000000000E+00 0.  1.
</event>
<event>
 7    1  0.4346085E-013  0.5930154E+02  0.7816164E-02  0.1266606E+00
        -11   -1    0    0    0    0  0.00000000000E+00  0.00000000000E+00  0.45593999997E+02  0.45594000000E+02  0.51100000000E-03 0.  1.
         11   -1    0    0    0    0 -0.00000000000E+00 -0.00000000000E+00 -0.45593999997E+02  0.45594000000E+02  0.51100000000E-03 0. -1.
    9900012    2    1    2    0    0  0.47048577619E+01  0.26170547515E+02  0.17598673548E+02  0.59301536501E+02  0.49999256764E+02 0.  0.
         12    1    1    2    0    0 -0.47048577619E+01 -0.26170547515E+02 -0.17598673548E+02  0.31886463499E+02  0.00000000000E+00 0. -1.
         11    1    3    3    0    0 -0.16567763339E+02  0.30350761632E+01  0.11587447101E+02  0.20444348851E+02  0.51100000000E-03 0. -1.
        -11    1    3    3    0    0  0.10499432874E+02 -0.79091446164E+00  0.69233023681E+01  0.12601418662E+02  0.51100000000E-03 0.  1.
         12    1    3    3    0    0  0.10773188227E+02  0.23926385813E+02 -0.91207592070E+00  0.26255768988E+02  0.00000000000E+00 0. -1.
</event>
<event>
 7    1  0.4346085E-013  0.5930196E+02  0.7816164E-02  0.1266605E+00
        -11   -1    0    0    0    0  0.00000000000E+00  0.00000000000E+00  0.45593999997E+02  0.45594000000E+02  0.51100000000E-03 0.  1.
         11   -1    0    0    0    0 -0.00000000000E+00 -0.00000000000E+00 -0.45593999997E+02  0.45594000000E+02  0.51100000000E-03 0. -1.
    9900012    2    1    2    0    0  0.12085950439E+02  0.28573583612E+02  0.73620615691E+01  0.59301955577E+02  0.50000021063E+02 0.  0.
         12    1    1    2    0    0 -0.12085950439E+02 -0.28573583612E+02 -0.73620615691E+01  0.31886044423E+02  0.00000000000E+00 0. -1.
         11    1    3    3    0    0  0.41864074112E+01  0.11710882096E+02 -0.18540083904E+02  0.22324996706E+02  0.51100000000E-03 0. -1.
        -11    1    3    3    0    0  0.87307481898E+01  0.16612350181E+02  0.28563819083E+02  0.34177300996E+02  0.51100000000E-03 0.  1.
        -12    1    3    3    0    0 -0.83120516211E+00  0.25035133430E+00 -0.26616736096E+01  0.27996578748E+01  0.00000000000E+00 0.  1.
</event>
<event>
 7    1  0.4346085E-013  0.5930170E+02  0.7816164E-02  0.1266606E+00
        -11   -1    0    0    0    0  0.00000000000E+00  0.00000000000E+00  0.45593999997E+02  0.45594000000E+02  0.51100000000E-03 0.  1.
         11   -1    0    0    0    0 -0.00000000000E+00 -0.00000000000E+00 -0.45593999997E+02  0.45594000000E+02  0.51100000000E-03 0. -1.
    9900012    2    1    2    0    0 -0.25927156829E+02 -0.76827119013E+00  0.18545310665E+02  0.59301698089E+02  0.49999551466E+02 0.  0.
         12    1    1    2    0    0  0.25927156829E+02  0.76827119013E+00 -0.18545310665E+02  0.31886301911E+02  0.00000000000E+00 0. -1.
         11    1    3    3    0    0 -0.78881336741E+01  0.43608879963E+01  0.26534993338E+02  0.28024023064E+02  0.51100000000E-03 0. -1.
        -11    1    3    3    0    0 -0.14905980929E+02 -0.12763309015E+02 -0.10996691522E+02  0.22494833833E+02  0.51100000000E-03 0.  1.
         12    1    3    3    0    0 -0.31330422256E+01  0.76341498285E+01  0.30070088497E+01  0.87828411925E+01  0.00000000000E+00 0. -1.
</event>
<event>
 7    1  0.4346085E-013  0.5930196E+02  0.7816164E-02  0.1266605E+00
        -11   -1    0    0    0    0  0.00000000000E+00  0.00000000000E+00  0.45593999997E+02  0.45594000000E+02  0.51100000000E-03 0.  1.
         11   -1    0    0    0    0 -0.00000000000E+00 -0.00000000000E+00 -0.45593999997E+02  0.45594000000E+02  0.51100000000E-03 0. -1.
    9900012    2    1    2    0    0  0.32774254947E+01 -0.31289394183E+02  0.51915170191E+01  0.59301959870E+02  0.50000028893E+02 0.  0.
         12    1    1    2    0    0 -0.32774254947E+01  0.31289394183E+02 -0.51915170191E+01  0.31886040130E+02  0.00000000000E+00 0. -1.
         11    1    3    3    0    0 -0.20700519759E+01 -0.19515971585E+02 -0.12697887894E+01  0.19666484839E+02  0.51100000000E-03 0. -1.
        -11    1    3    3    0    0 -0.88318828906E+01  0.16616471895E+01  0.15651521630E+02  0.18048084562E+02  0.51100000000E-03 0.  1.
        -12    1    3    3    0    0  0.14179360361E+02 -0.13435069788E+02 -0.91902158210E+01  0.21587390470E+02  0.00000000000E+00 0.  1.
</event>
<event>
 7    1  0.4346085E-013  0.5930201E+02  0.7816164E-02  0.1266605E+00
        -11   -1    0    0    0    0  0.00000000000E+00  0.00000000000E+00  0.45593999997E+02  0.45594000000E+02  0.51100000000E-03 0.  1.
         11   -1    0    0    0    0 -0.00000000000E+00 -0.00000000000E+00 -0.45593999997E+02  0.45594000000E+02  0.51100000000E-03 0. -1.
    9900012    2    1    2    0    0 -0.12167644567E+02 -0.18377194069E+01  0.29415771834E+02  0.59302009040E+02  0.50000118567E+02 0.  0.
         12    1    1    2    0    0  0.12167644567E+02  0.18377194069E+01 -0.29415771834E+02  0.31885990960E+02  0.00000000000E+00 0. -1.
         11    1    3    3    0    0 -0.87638128389E+01 -0.20792532690E+02  0.21938682044E+02  0.31471250392E+02  0.51100000000E-03 0.  1.
        -11    1    3    3    0    0  0.30028810544E+01  0.20079486953E+02  0.56911934383E+01  0.21085368717E+02  0.51100000000E-03 0. -1.
         12    1    3    3    0    0 -0.64067127825E+01 -0.11246736703E+01  0.17858963519E+01  0.67453899311E+01  0.00000000000E+00 0. -1.
</event>
<event>
 7    1  0.4346085E-013  0.5930194E+02  0.7816164E-02  0.1266605E+00
        -11   -1    0    0    0    0  0.00000000000E+00  0.00000000000E+00  0.45593999997E+02  0.45594000000E+02  0.51100000000E-03 0. -1.
         11   -1    0    0    0    0 -0.00000000000E+00 -0.00000000000E+00 -0.45593999997E+02  0.45594000000E+02  0.51100000000E-03 0.  1.
    9900012    2    1    2    0    0 -0.18095750447E+02 -0.16006014876E+02 -0.20810385480E+02  0.59301939718E+02  0.49999992141E+02 0.  0.
         12    1    1    2    0    0  0.18095750447E+02  0.16006014876E+02  0.20810385480E+02  0.31886060282E+02  0.00000000000E+00 0. -1.
         11    1    3    3    0    0  0.65588414374E+01 -0.16675044965E+02  0.22262898774E+01  0.18056353244E+02  0.51100000000E-03 0. -1.
        -11    1    3    3    0    0 -0.26016148443E+02  0.27443897342E+00 -0.95967100652E+01  0.27731068153E+02  0.51100000000E-03 0.  1.
         12    1    3    3    0    0  0.13615565578E+01  0.39459111594E+00 -0.13439965292E+02  0.13514518322E+02  0.00000000000E+00 0. -1.
</event>
<event>
 7    1  0.4346085E-013  0.5930194E+02  0.7816164E-02  0.1266605E+00
        -11   -1    0    0    0    0  0.00000000000E+00  0.00000000000E+00  0.45593999997E+02  0.45594000000E+02  0.51100000000E-03 0.  1.
         11   -1    0    0    0    0 -0.00000000000E+00 -0.00000000000E+00 -0.45593999997E+02  0.45594000000E+02  0.51100000000E-03 0. -1.
    9900012    2    1    2    0    0  0.22464628224E+02 -0.21995780949E+02  0.53148021500E+01  0.59301936858E+02  0.49999986924E+02 0.  0.
         12    1    1    2    0    0 -0.22464628224E+02  0.21995780949E+02 -0.53148021500E+01  0.31886063142E+02  0.00000000000E+00 0. -1.
         11    1    3    3    0    0  0.25360679976E+00  0.20921964074E+01 -0.41398796784E+01  0.46454500567E+01  0.51100000000E-03 0. -1.
        -11    1    3    3    0    0  0.34133803767E+02 -0.23817720616E+02  0.96619590672E+01  0.42728840707E+02  0.51100000000E-03 0.  1.
        -12    1    3    3    0    0 -0.11922782343E+02 -0.27025674060E+00 -0.20727723874E+00  0.11927646094E+02  0.00000000000E+00 0.  1.
</event>
<event>
 7    1  0.4346085E-013  0.5930192E+02  0.7816164E-02  0.1266605E+00
        -11   -1    0    0    0    0  0.00000000000E+00  0.00000000000E+00  0.45593999997E+02  0.45594000000E+02  0.51100000000E-03 0. -1.
         11   -1    0    0    0    0 -0.00000000000E+00 -0.00000000000E+00 -0.45593999997E+02  0.45594000000E+02  0.51100000000E-03 0.  1.
    9900012    2    1    2    0    0 -0.12665968596E+02  0.25619432443E+02  0.14140015497E+02  0.59301919692E+02  0.49999955617E+02 0.  0.
         12    1    1    2    0    0  0.12665968596E+02 -0.25619432443E+02 -0.14140015497E+02  0.31886080308E+02  0.00000000000E+00 0. -1.
         11    1    3    3    0    0  0.10346072094E+02  0.20908405130E+02  0.12598191044E+01  0.23362143680E+02  0.51100000000E-03 0. -1.
        -11    1    3    3    0    0 -0.22924959787E+02  0.96214736328E+01  0.31767852833E+01  0.25064287365E+02  0.51100000000E-03 0.  1.
         12    1    3    3    0    0 -0.87080902511E-01 -0.49104463204E+01  0.97034111098E+01  0.10875488647E+02  0.00000000000E+00 0. -1.
</event>
<event>
 7    1  0.4346085E-013  0.5930194E+02  0.7816164E-02  0.1266605E+00
        -11   -1    0    0    0    0  0.00000000000E+00  0.00000000000E+00  0.45593999997E+02  0.45594000000E+02  0.51100000000E-03 0.  1.
         11   -1    0    0    0    0 -0.00000000000E+00 -0.00000000000E+00 -0.45593999997E+02  0.45594000000E+02  0.51100000000E-03 0. -1.
    9900012    2    1    2    0    0 -0.24461080890E+02 -0.10802747579E+02  0.17368844696E+02  0.59301943492E+02  0.49999999022E+02 0.  0.
         12    1    1    2    0    0  0.24461080890E+02  0.10802747579E+02 -0.17368844696E+02  0.31886056508E+02  0.00000000000E+00 0. -1.
         11    1    3    3    0    0 -0.11001562699E+01 -0.18510279772E+02  0.73501288828E+01  0.19946558498E+02  0.51100000000E-03 0. -1.
        -11    1    3    3    0    0 -0.29225596864E+02  0.20826974026E+01  0.47801066226E+01  0.29687077325E+02  0.51100000000E-03 0.  1.
         12    1    3    3    0    0  0.58646722434E+01  0.56248347897E+01  0.52386091905E+01  0.96683076691E+01  0.00000000000E+00 0. -1.
</event>
<event>
 7    1  0.4346085E-013  0.5930190E+02  0.7816164E-02  0.1266605E+00
        -11   -1    0    0    0    0  0.00000000000E+00  0.00000000000E+00  0.45593999997E+02  0.45594000000E+02  0.51100000000E-03 0.  1.
         11   -1    0    0    0    0 -0.00000000000E+00 -0.00000000000E+00 -0.45593999997E+02  0.45594000000E+02  0.51100000000E-03 0. -1.
    9900012    2    1    2    0    0 -0.23083693690E+01 -0.97182767947E+01  0.30281176028E+02  0.59301904368E+02  0.49999927671E+02 0.  0.
         12    1    1    2    0    0  0.23083693690E+01  0.97182767947E+01 -0.30281176028E+02  0.31886095632E+02  0.00000000000E+00 0. -1.
         11    1    3    3    0    0 -0.50439974826E+01 -0.13429877154E+02 -0.58560524277E+01  0.15495059254E+02  0.51100000000E-03 0. -1.
        -11    1    3    3    0    0  0.12101539525E+02  0.32214293718E+01  0.30234075371E+02  0.32724977920E+02  0.51100000000E-03 0.  1.
        -12    1    3    3    0    0 -0.93659114116E+01  0.49017098782E+00  0.59031530845E+01  0.11081867194E+02  0.00000000000E+00 0.  1.
</event>
<event>
 7    1  0.4346085E-013  0.5930194E+02  0.7816164E-02  0.1266605E+00
        -11   -1    0    0    0    0  0.00000000000E+00  0.00000000000E+00  0.45593999997E+02  0.45594000000E+02  0.51100000000E-03 0.  1.
         11   -1    0    0    0    0 -0.00000000000E+00 -0.00000000000E+00 -0.45593999997E+02  0.45594000000E+02  0.51100000000E-03 0. -1.
    9900012    2    1    2    0    0 -0.18048371544E+02  0.26226203344E+02  0.17786133015E+01  0.59301938429E+02  0.49999989790E+02 0.  0.
         12    1    1    2    0    0  0.18048371544E+02 -0.26226203344E+02 -0.17786133015E+01  0.31886061571E+02  0.00000000000E+00 0. -1.
         11    1    3    3    0    0 -0.37243927310E+01  0.20679145416E+02 -0.23554880657E+01  0.21143473712E+02  0.51100000000E-03 0. -1.
        -11    1    3    3    0    0 -0.70262982025E+01 -0.67305505560E+01 -0.12753287433E+02  0.16041057254E+02  0.51100000000E-03 0.  1.
        -12    1    3    3    0    0 -0.72976806110E+01  0.12277608484E+02  0.16887388800E+02  0.22117407463E+02  0.00000000000E+00 0.  1.
</event>
<event>
 7    1  0.4346085E-013  0.5930191E+02  0.7816164E-02  0.1266605E+00
        -11   -1    0    0    0    0  0.00000000000E+00  0.00000000000E+00  0.45593999997E+02  0.45594000000E+02  0.51100000000E-03 0.  1.
         11   -1    0    0    0    0 -0.00000000000E+00 -0.00000000000E+00 -0.45593999997E+02  0.45594000000E+02  0.51100000000E-03 0. -1.
    9900012    2    1    2    0    0  0.28791706392E+02 -0.13446318047E+02  0.26375529566E+01  0.59301913511E+02  0.49999944345E+02 0.  0.
         12    1    1    2    0    0 -0.28791706392E+02  0.13446318047E+02 -0.26375529566E+01  0.31886086489E+02  0.00000000000E+00 0. -1.
         11    1    3    3    0    0  0.15007113520E+02 -0.20606628125E+02  0.59675079134E+01  0.26181247675E+02  0.51100000000E-03 0. -1.
        -11    1    3    3    0    0  0.12376147295E+02  0.93114634288E+01  0.10720955589E+02  0.18836434430E+02  0.51100000000E-03 0.  1.
        -12    1    3    3    0    0  0.14084455769E+01 -0.21511533507E+01 -0.14050910546E+02  0.14284231406E+02  0.00000000000E+00 0.  1.
</event>
<event>
 7    1  0.4346085E-013  0.5930199E+02  0.7816164E-02  0.1266605E+00
        -11   -1    0    0    0    0  0.00000000000E+00  0.00000000000E+00  0.45593999997E+02  0.45594000000E+02  0.51100000000E-03 0. -1.
         11   -1    0    0    0    0 -0.00000000000E+00 -0.00000000000E+00 -0.45593999997E+02  0.45594000000E+02  0.51100000000E-03 0.  1.
    9900012    2    1    2    0    0  0.50317161302E+01  0.30368451972E+02 -0.83160567513E+01  0.59301986729E+02  0.50000077877E+02 0.  0.
         12    1    1    2    0    0 -0.50317161302E+01 -0.30368451972E+02  0.83160567513E+01  0.31886013271E+02  0.00000000000E+00 0. -1.
         11    1    3    3    0    0  0.11202925494E+02  0.19113278592E+02 -0.11438202562E+02  0.24933018996E+02  0.51100000000E-03 0.  1.
        -11    1    3    3    0    0 -0.12113077620E+02 -0.38816071375E+01  0.10517663909E+02  0.16504992510E+02  0.51100000000E-03 0. -1.
         12    1    3    3    0    0  0.59418682567E+01  0.15136780517E+02 -0.73955180987E+01  0.17863975223E+02  0.00000000000E+00 0. -1.
</event>
<event>
 7    1  0.4346085E-013  0.5930194E+02  0.7816164E-02  0.1266605E+00
        -11   -1    0    0    0    0  0.00000000000E+00  0.00000000000E+00  0.45593999997E+02  0.45594000000E+02  0.51100000000E-03 0. -1.
         11   -1    0    0    0    0 -0.00000000000E+00 -0.00000000000E+00 -0.45593999997E+02  0.45594000000E+02  0.51100000000E-03 0.  1.
    9900012    2    1    2    0    0  0.36641742523E+01 -0.21497481549E+02  0.23262698989E+02  0.59301936428E+02  0.49999986139E+02 0.  0.
         12    1    1    2    0    0 -0.36641742523E+01  0.21497481549E+02 -0.23262698989E+02  0.31886063572E+02  0.00000000000E+00 0. -1.
         11    1    3    3    0    0  0.46659514026E+01  0.10734389517E+01 -0.84661519677E+01  0.97262070241E+01  0.51100000000E-03 0. -1.
        -11    1    3    3    0    0 -0.12129153271E+02 -0.23978850615E+02  0.22041082981E+02  0.34755013669E+02  0.51100000000E-03 0.  1.
         12    1    3    3    0    0  0.11127376121E+02  0.14079301146E+01  0.96877679751E+01  0.14820715734E+02  0.00000000000E+00 0. -1.
</event>
<event>
 7    1  0.4346085E-013  0.5930191E+02  0.7816164E-02  0.1266605E+00
        -11   -1    0    0    0    0  0.00000000000E+00  0.00000000000E+00  0.45593999997E+02  0.45594000000E+02  0.51100000000E-03 0.  1.
         11   -1    0    0    0    0 -0.00000000000E+00 -0.00000000000E+00 -0.45593999997E+02  0.45594000000E+02  0.51100000000E-03 0. -1.
    9900012    2    1    2    0    0  0.47677220422E+00  0.23916332707E+02  0.21083278804E+02  0.59301906997E+02  0.49999932465E+02 0.  0.
         12    1    1    2    0    0 -0.47677220422E+00 -0.23916332707E+02 -0.21083278804E+02  0.31886093003E+02  0.00000000000E+00 0. -1.
         11    1    3    3    0    0  0.47211262975E+01  0.55632927200E+01  0.25321446050E+02  0.26351753068E+02  0.51100000000E-03 0.  1.
        -11    1    3    3    0    0 -0.12844251008E+02  0.49581819934E+00 -0.18656309613E+01  0.12988502561E+02  0.51100000000E-03 0. -1.
        -12    1    3    3    0    0  0.85998969147E+01  0.17857221787E+02 -0.23725362853E+01  0.19961651368E+02  0.00000000000E+00 0.  1.
</event>
<event>
 7    1  0.4346085E-013  0.5930203E+02  0.7816164E-02  0.1266604E+00
        -11   -1    0    0    0    0  0.00000000000E+00  0.00000000000E+00  0.45593999997E+02  0.45594000000E+02  0.51100000000E-03 0. -1.
         11   -1    0    0    0    0 -0.00000000000E+00 -0.00000000000E+00 -0.45593999997E+02  0.45594000000E+02  0.51100000000E-03 0.  1.
    9900012    2    1    2    0    0  0.13306738653E+02  0.28837805596E+02  0.28331534225E+01  0.59302029990E+02  0.50000156774E+02 0.  0.
         12    1    1    2    0    0 -0.13306738653E+02 -0.28837805596E+02 -0.28331534225E+01  0.31885970010E+02  0.00000000000E+00 0. -1.
         11    1    3    3    0    0  0.10648392802E+02  0.20041230568E+02  0.14072762190E+02  0.26703592041E+02  0.51100000000E-03 0. -1.
        -11    1    3    3    0    0  0.12696339271E+02 -0.47389915304E+01 -0.68491214820E+01  0.15184384642E+02  0.51100000000E-03 0.  1.
         12    1    3    3    0    0 -0.10037993420E+02  0.13535566558E+02 -0.43904872858E+01  0.17414053307E+02  0.00000000000E+00 0. -1.
</event>
<event>
 7    1  0.4346085E-013  0.5930194E+02  0.7816164E-02  0.1266605E+00
        -11   -1    0    0    0    0  0.00000000000E+00  0.00000000000E+00  0.45593999997E+02  0.45594000000E+02  0.51100000000E-03 0.  1.
         11   -1    0    0    0    0 -0.00000000000E+00 -0.00000000000E+00 -0.45593999997E+02  0.45594000000E+02  0.51100000000E-03 0. -1.
    9900012    2    1    2    0    0  0.20526206624E+02  0.19496302778E+02  0.14672755259E+02  0.59301941490E+02  0.49999995373E+02 0.  0.
         12    1    1    2    0    0 -0.20526206624E+02 -0.19496302778E+02 -0.14672755259E+02  0.31886058510E+02  0.00000000000E+00 0. -1.
         11    1    3    3    0    0  0.91974281707E+01 -0.15532420664E+02  0.11354156212E+02  0.21325234821E+02  0.51100000000E-03 0. -1.
        -11    1    3    3    0    0  0.79667756520E+01  0.15146391955E+02  0.47518078575E+01  0.17761260701E+02  0.51100000000E-03 0.  1.
         12    1    3    3    0    0  0.33620028015E+01  0.19882331487E+02 -0.14332088103E+01  0.20215445968E+02  0.00000000000E+00 0. -1.
</event>
<event>
 7    1  0.4346085E-013  0.5930197E+02  0.7816164E-02  0.1266605E+00
        -11   -1    0    0    0    0  0.00000000000E+00  0.00000000000E+00  0.45593999997E+02  0.45594000000E+02  0.51100000000E-03 0.  1.
         11   -1    0    0    0    0 -0.00000000000E+00 -0.00000000000E+00 -0.45593999997E+02  0.45594000000E+02  0.51100000000E-03 0. -1.
    9900012    2    1    2    0    0 -0.36069461132E+01  0.87027002510E+00  0.31669412199E+02  0.59301967020E+02  0.50000041933E+02 0.  0.
         12    1    1    2    0    0  0.36069461132E+01 -0.87027002510E+00 -0.31669412199E+02  0.31886032980E+02  0.00000000000E+00 0. -1.
         11    1    3    3    0    0  0.61612897149E+01 -0.47094664725E+01 -0.82903011795E+00  0.77992215384E+01  0.51100000000E-03 0. -1.
        -11    1    3    3    0    0 -0.14399345670E+02  0.16376109732E+02  0.33214613683E+02  0.39733218949E+02  0.51100000000E-03 0.  1.
        -12    1    3    3    0    0  0.46311098420E+01 -0.10796373234E+02 -0.71617136638E+00  0.11769526533E+02  0.00000000000E+00 0.  1.
</event>
<event>
 7    1  0.4346085E-013  0.5930195E+02  0.7816164E-02  0.1266605E+00
        -11   -1    0    0    0    0  0.00000000000E+00  0.00000000000E+00  0.45593999997E+02  0.45594000000E+02  0.51100000000E-03 0. -1.
         11   -1    0    0    0    0 -0.00000000000E+00 -0.00000000000E+00 -0.45593999997E+02  0.45594000000E+02  0.51100000000E-03 0.  1.
    9900012    2    1    2    0    0 -0.27699196448E+01  0.31325706566E+02 -0.52676394674E+01  0.59301947058E+02  0.50000005526E+02 0.  0.
         12    1    1    2    0    0  0.27699196448E+01 -0.31325706566E+02  0.52676394674E+01  0.31886052942E+02  0.00000000000E+00 0. -1.
         11    1    3    3    0    0 -0.71210234767E+01  0.16004215250E+02  0.15363140078E+02  0.23299569833E+02  0.51100000000E-03 0. -1.
        -11    1    3    3    0    0  0.85688109081E+01 -0.19675985942E+01 -0.46649217488E-01  0.87919361358E+01  0.51100000000E-03 0.  1.
         12    1    3    3    0    0 -0.42177070762E+01  0.17289089910E+02 -0.20584130328E+02  0.27210441089E+02  0.00000000000E+00 0. -1.
</event>
<event>
 7    1  0.5748958E-013  0.5930194E+02  0.7816164E-02  0.1266605E+00
        -11   -1    0    0    0    0  0.00000000000E+00  0.00000000000E+00  0.45593999997E+02  0.45594000000E+02  0.51100000000E-03 0. -1.
         11   -1    0    0    0    0 -0.00000000000E+00 -0.00000000000E+00 -0.45593999997E+02  0.45594000000E+02  0.51100000000E-03 0.  1.
    9900012    2    1    2    0    0 -0.15793843984E+02  0.25581096473E+02 -0.10624637182E+02  0.59301938472E+02  0.49999989867E+02 0.  0.
         12    1    1    2    0    0  0.15793843984E+02 -0.25581096473E+02  0.10624637182E+02  0.31886061528E+02  0.00000000000E+00 0. -1.
         11    1    3    3    0    0 -0.74571957657E+00 -0.10814512158E+02 -0.78517953268E+01  0.13385083526E+02  0.51100000000E-03 0. -1.
        -11    1    3    3    0    0 -0.54116948509E+01  0.24544576777E+02 -0.12230071309E+02  0.27951696456E+02  0.51100000000E-03 0.  1.
         12    1    3    3    0    0 -0.96364295561E+01  0.11851031854E+02  0.94572294540E+01  0.17965158489E+02  0.00000000000E+00 0. -1.
</event>
<event>
 7    1  0.4346085E-013  0.5930195E+02  0.7816164E-02  0.1266605E+00
        -11   -1    0    0    0    0  0.00000000000E+00  0.00000000000E+00  0.45593999997E+02  0.45594000000E+02  0.51100000000E-03 0. -1.
         11   -1    0    0    0    0 -0.00000000000E+00 -0.00000000000E+00 -0.45593999997E+02  0.45594000000E+02  0.51100000000E-03 0.  1.
    9900012    2    1    2    0    0 -0.13352639185E+02  0.11757800573E+02 -0.26460940542E+02  0.59301949416E+02  0.50000009826E+02 0.  0.
         12    1    1    2    0    0  0.13352639185E+02 -0.11757800573E+02  0.26460940542E+02  0.31886050584E+02  0.00000000000E+00 0. -1.
         11    1    3    3    0    0 -0.39904818542E+01  0.19656787879E+02 -0.22715322808E+02  0.30303451052E+02  0.51100000000E-03 0. -1.
        -11    1    3    3    0    0 -0.15260372810E+02 -0.13295743188E+02 -0.51418484927E+01  0.20882872681E+02  0.51100000000E-03 0.  1.
        -12    1    3    3    0    0  0.58982154795E+01  0.53967558815E+01  0.13962307591E+01  0.81156256825E+01  0.00000000000E+00 0.  1.
</event>
<event>
 7    1  0.4346085E-013  0.5930195E+02  0.7816164E-02  0.1266605E+00
        -11   -1    0    0    0    0  0.00000000000E+00  0.00000000000E+00  0.45593999997E+02  0.45594000000E+02  0.51100000000E-03 0. -1.
         11   -1    0    0    0    0 -0.00000000000E+00 -0.00000000000E+00 -0.45593999997E+02  0.45594000000E+02  0.51100000000E-03 0.  1.
    9900012    2    1    2    0    0  0.14976486749E+02 -0.19724999026E+02 -0.20083554768E+02  0.59301954243E+02  0.50000018630E+02 0.  0.
         12    1    1    2    0    0 -0.14976486749E+02  0.19724999026E+02  0.20083554768E+02  0.31886045757E+02  0.00000000000E+00 0. -1.
         11    1    3    3    0    0  0.97373717102E+01  0.55989667170E+01 -0.92947965086E+01  0.14579371678E+02  0.51100000000E-03 0. -1.
        -11    1    3    3    0    0  0.56545733491E+00 -0.23679234570E+02  0.82253588062E+01  0.25073540228E+02  0.51100000000E-03 0.  1.
        -12    1    3    3    0    0  0.46736577037E+01 -0.16447311729E+01 -0.19014117066E+02  0.19649042337E+02  0.00000000000E+00 0.  1.
</event>
<event>
 7    1  0.4346085E-013  0.5930193E+02  0.7816164E-02  0.1266605E+00
        -11   -1    0    0    0    0  0.00000000000E+00  0.00000000000E+00  0.45593999997E+02  0.45594000000E+02  0.51100000000E-03 0.  1.
         11   -1    0    0    0    0 -0.00000000000E+00 -0.00000000000E+00 -0.45593999997E+02  0.45594000000E+02  0.51100000000E-03 0. -1.
    9900012    2    1    2    0    0 -0.10508893575E+02 -0.14795546138E+02  0.26217867097E+02  0.59301928043E+02  0.49999970848E+02 0.  0.
         12    1    1    2    0    0  0.10508893575E+02  0.14795546138E+02 -0.26217867097E+02  0.31886071957E+02  0.00000000000E+00 0. -1.
         11    1    3    3    0    0 -0.96954882251E+01  0.17641916835E+02  0.12176908218E+02  0.23526938082E+02  0.51100000000E-03 0.  1.
        -11    1    3    3    0    0  0.19415110311E+01 -0.15547508717E+02  0.82571047208E+01  0.17710851787E+02  0.51100000000E-03 0. -1.
        -12    1    3    3    0    0 -0.27549163812E+01 -0.16889954256E+02  0.57838541590E+01  0.18064138174E+02  0.00000000000E+00 0.  1.
</event>
<event>
 7    1  0.4346085E-013  0.5930195E+02  0.7816164E-02  0.1266605E+00
        -11   -1    0    0    0    0  0.00000000000E+00  0.00000000000E+00  0.45593999997E+02  0.45594000000E+02  0.51100000000E-03 0. -1.
         11   -1    0    0    0    0 -0.00000000000E+00 -0.00000000000E+00 -0.45593999997E+02  0.45594000000E+02  0.51100000000E-03 0.  1.
    9900012    2    1    2    0    0  0.26126602418E+02 -0.17665576625E+02  0.46955751353E+01  0.59301946979E+02  0.50000005383E+02 0.  0.
         12    1    1    2    0    0 -0.26126602418E+02  0.17665576625E+02 -0.46955751353E+01  0.31886053021E+02  0.00000000000E+00 0. -1.
         11    1    3    3    0    0 -0.10174764959E+02 -0.11916946402E+02  0.11508982468E+02  0.19442122601E+02  0.51100000000E-03 0. -1.
        -11    1    3    3    0    0  0.30671904025E+02 -0.93093713399E+01 -0.30229079554E+01  0.32195777115E+02  0.51100000000E-03 0.  1.
         12    1    3    3    0    0  0.56294633516E+01  0.35607411171E+01 -0.37904993770E+01  0.76640472635E+01  0.00000000000E+00 0. -1.
</event>
<event>
 7    1  0.4346085E-013  0.5930193E+02  0.7816164E-02  0.1266605E+00
        -11   -1    0    0    0    0  0.00000000000E+00  0.00000000000E+00  0.45593999997E+02  0.45594000000E+02  0.51100000000E-03 0. -1.
         11   -1    0    0    0    0 -0.00000000000E+00 -0.00000000000E+00 -0.45593999997E+02  0.45594000000E+02  0.51100000000E-03 0.  1.
    9900012    2    1    2    0    0  0.27125334485E+01  0.28030889894E+02 -0.14954356383E+02  0.59301930929E+02  0.49999976111E+02 0.  0.
         12    1    1    2    0    0 -0.27125334485E+01 -0.28030889894E+02  0.14954356383E+02  0.31886069071E+02  0.00000000000E+00 0. -1.
         11    1    3    3    0    0 -0.15050914851E+01  0.13817288980E+02  0.12233962136E+02  0.18516279458E+02  0.51100000000E-03 0. -1.
        -11    1    3    3    0    0  0.70119869327E+01  0.13450616979E+02 -0.31861243317E+02  0.35287758272E+02  0.51100000000E-03 0.  1.
         12    1    3    3    0    0 -0.27943619990E+01  0.76298393464E+00  0.46729247979E+01  0.54978931995E+01  0.00000000000E+00 0. -1.
</event>
<event>
 7    1  0.4346085E-013  0.5930194E+02  0.7816164E-02  0.1266605E+00
        -11   -1    0    0    0    0  0.00000000000E+00  0.00000000000E+00  0.45593999997E+02  0.45594000000E+02  0.51100000000E-03 0.  1.
         11   -1    0    0    0    0 -0.00000000000E+00 -0.00000000000E+00 -0.45593999997E+02  0.45594000000E+02  0.51100000000E-03 0. -1.
    9900012    2    1    2    0    0  0.15079020682E+01  0.10304324742E+02  0.30137479241E+02  0.59301944552E+02  0.50000000955E+02 0.  0.
         12    1    1    2    0    0 -0.15079020682E+01 -0.10304324742E+02 -0.30137479241E+02  0.31886055448E+02  0.00000000000E+00 0. -1.
         11    1    3    3    0    0  0.91159594886E+01 -0.13364591662E+02  0.16813261452E+02  0.23332354974E+02  0.51100000000E-03 0. -1.
        -11    1    3    3    0    0 -0.14310485295E+02  0.11359051282E+02  0.12069520370E+02  0.21897291103E+02  0.51100000000E-03 0.  1.
         12    1    3    3    0    0  0.67024278751E+01  0.12309865122E+02  0.12546974185E+01  0.14072298474E+02  0.00000000000E+00 0. -1.
</event>
<event>
 7    1  0.4346085E-013  0.5930201E+02  0.7816164E-02  0.1266605E+00
        -11   -1    0    0    0    0  0.00000000000E+00  0.00000000000E+00  0.45593999997E+02  0.45594000000E+02  0.51100000000E-03 0.  1.
         11   -1    0    0    0    0 -0.00000000000E+00 -0.00000000000E+00 -0.45593999997E+02  0.45594000000E+02  0.51100000000E-03 0. -1.
    9900012    2    1    2    0    0 -0.60002909504E+00 -0.25899082975E+01  0.31774966393E+02  0.59302013279E+02  0.50000126298E+02 0.  0.
         12    1    1    2    0    0  0.60002909504E+00  0.25899082975E+01 -0.31774966393E+02  0.31885986721E+02  0.00000000000E+00 0. -1.
         11    1    3    3    0    0  0.14731749178E+02  0.12124372927E+02  0.56061382449E+01  0.19886016167E+02  0.51100000000E-03 0. -1.
        -11    1    3    3    0    0 -0.10509095980E+02 -0.12859692646E+02  0.45943223726E+01  0.17231383914E+02  0.51100000000E-03 0.  1.
         12    1    3    3    0    0 -0.48226822930E+01 -0.18545885785E+01  0.21574505775E+02  0.22184613198E+02  0.00000000000E+00 0. -1.
</event>
<event>
 7    1  0.4346085E-013  0.5930193E+02  0.7816164E-02  0.1266605E+00
        -11   -1    0    0    0    0  0.00000000000E+00  0.00000000000E+00  0.45593999997E+02  0.45594000000E+02  0.51100000000E-03 0.  1.
         11   -1    0    0    0    0 -0.00000000000E+00 -0.00000000000E+00 -0.45593999997E+02  0.45594000000E+02  0.51100000000E-03 0. -1.
    9900012    2    1    2    0    0 -0.19533301209E+01 -0.14882462144E+02  0.28132156314E+02  0.59301930990E+02  0.49999976223E+02 0.  0.
         12    1    1    2    0    0  0.19533301209E+01  0.14882462144E+02 -0.28132156314E+02  0.31886069010E+02  0.00000000000E+00 0. -1.
         11    1    3    3    0    0 -0.43781391730E+01  0.93851742698E+00 -0.80888062818E+01  0.92454153451E+01  0.51100000000E-03 0. -1.
        -11    1    3    3    0    0  0.11400077959E+02 -0.18729832237E+02  0.33845423286E+02  0.40327175338E+02  0.51100000000E-03 0.  1.
        -12    1    3    3    0    0 -0.89752689071E+01  0.29088526664E+01  0.23755393098E+01  0.97293403066E+01  0.00000000000E+00 0.  1.
</event>
<event>
 7    1  0.4346085E-013  0.5930193E+02  0.7816164E-02  0.1266605E+00
        -11   -1    0    0    0    0  0.00000000000E+00  0.00000000000E+00  0.45593999997E+02  0.45594000000E+02  0.51100000000E-03 0. -1.
         11   -1    0    0    0    0 -0.00000000000E+00 -0.00000000000E+00 -0.45593999997E+02  0.45594000000E+02  0.51100000000E-03 0.  1.
    9900012    2    1    2    0    0  0.27657023710E+02  0.12242015966E+02 -0.10096706988E+02  0.59301930826E+02  0.49999975922E+02 0.  0.
         12    1    1    2    0    0 -0.27657023710E+02 -0.12242015966E+02  0.10096706988E+02  0.31886069174E+02  0.00000000000E+00 0. -1.
         11    1    3    3    0    0  0.14059450297E+02 -0.40309925425E+01  0.87757939479E+01  0.17056717246E+02  0.51100000000E-03 0.  1.
        -11    1    3    3    0    0 -0.23859268970E+01  0.65867518836E+00 -0.19729559653E+02  0.19884215462E+02  0.51100000000E-03 0. -1.
         12    1    3    3    0    0  0.15983500309E+02  0.15614333320E+02  0.85705871683E+00  0.22360998118E+02  0.00000000000E+00 0. -1.
</event>
<event>
 7    1  0.4346085E-013  0.5930193E+02  0.7816164E-02  0.1266605E+00
        -11   -1    0    0    0    0  0.00000000000E+00  0.00000000000E+00  0.45593999997E+02  0.45594000000E+02  0.51100000000E-03 0. -1.
         11   -1    0    0    0    0 -0.00000000000E+00 -0.00000000000E+00 -0.45593999997E+02  0.45594000000E+02  0.51100000000E-03 0.  1.
    9900012    2    1    2    0    0  0.27451087663E+02  0.55154681615E+01 -0.15255775333E+02  0.59301932762E+02  0.49999979453E+02 0.  0.
         12    1    1    2    0    0 -0.27451087663E+02 -0.55154681615E+01  0.15255775333E+02  0.31886067238E+02  0.00000000000E+00 0. -1.
         11    1    3    3    0    0  0.51167358649E-01 -0.11885242871E+02 -0.22492040379E+02  0.25439211797E+02  0.51100000000E-03 0. -1.
        -11    1    3    3    0    0  0.43817715845E+01  0.39215450571E+01 -0.95846133917E+00  0.59579431227E+01  0.51100000000E-03 0.  1.
         12    1    3    3    0    0  0.23018148720E+02  0.13479165975E+02  0.81947263849E+01  0.27904777841E+02  0.00000000000E+00 0. -1.
</event>
<event>
 7    1  0.4346085E-013  0.5930195E+02  0.7816164E-02  0.1266605E+00
        -11   -1    0    0    0    0  0.00000000000E+00  0.00000000000E+00  0.45593999997E+02  0.45594000000E+02  0.51100000000E-03 0.  1.
         11   -1    0    0    0    0 -0.00000000000E+00 -0.00000000000E+00 -0.45593999997E+02  0.45594000000E+02  0.51100000000E-03 0. -1.
    9900012    2    1    2    0    0  0.12211431933E+02  0.58572086243E+01  0.28866834992E+02  0.59301950932E+02  0.50000012592E+02 0.  0.
         12    1    1    2    0    0 -0.12211431933E+02 -0.58572086243E+01 -0.28866834992E+02  0.31886049068E+02  0.00000000000E+00 0. -1.
         11    1    3    3    0    0  0.29626519069E+01 -0.95275466366E+01 -0.28397459861E+01  0.10373794328E+02  0.51100000000E-03 0. -1.
        -11    1    3    3    0    0  0.62603582999E+01  0.21692692921E+02  0.34646796704E+02  0.41354147728E+02  0.51100000000E-03 0.  1.
        -12    1    3    3    0    0  0.29884217262E+01 -0.63079376601E+01 -0.29402157262E+01  0.75740088760E+01  0.00000000000E+00 0.  1.
</event>
<event>
 7    1  0.4346085E-013  0.5930199E+02  0.7816164E-02  0.1266605E+00
        -11   -1    0    0    0    0  0.00000000000E+00  0.00000000000E+00  0.45593999997E+02  0.45594000000E+02  0.51100000000E-03 0.  1.
         11   -1    0    0    0    0 -0.00000000000E+00 -0.00000000000E+00 -0.45593999997E+02  0.45594000000E+02  0.51100000000E-03 0. -1.
    9900012    2    1    2    0    0  0.21811036131E+02  0.68840470463E+01  0.22217245526E+02  0.59301993671E+02  0.50000090538E+02 0.  0.
         12    1    1    2    0    0 -0.21811036131E+02 -0.68840470463E+01 -0.22217245526E+02  0.31886006329E+02  0.00000000000E+00 0. -1.
         11    1    3    3    0    0  0.14239586704E+02 -0.16934385716E+02  0.19146888951E+02  0.29259914659E+02  0.51100000000E-03 0. -1.
        -11    1    3    3    0    0  0.11445326153E+02  0.11929631159E+02  0.52579700176E+01  0.17348136479E+02  0.51100000000E-03 0.  1.
         12    1    3    3    0    0 -0.38738767259E+01  0.11888801603E+02 -0.21876134428E+01  0.12693942533E+02  0.00000000000E+00 0. -1.
</event>
<event>
 7    1  0.4346085E-013  0.5930193E+02  0.7816164E-02  0.1266605E+00
        -11   -1    0    0    0    0  0.00000000000E+00  0.00000000000E+00  0.45593999997E+02  0.45594000000E+02  0.51100000000E-03 0.  1.
         11   -1    0    0    0    0 -0.00000000000E+00 -0.00000000000E+00 -0.45593999997E+02  0.45594000000E+02  0.51100000000E-03 0. -1.
    9900012    2    1    2    0    0  0.25690428530E+02  0.38604029177E+01  0.18488397595E+02  0.59301926639E+02  0.49999968287E+02 0.  0.
         12    1    1    2    0    0 -0.25690428530E+02 -0.38604029177E+01 -0.18488397595E+02  0.31886073361E+02  0.00000000000E+00 0. -1.
         11    1    3    3    0    0  0.32857959379E+00  0.46420086889E+01 -0.13003853954E+01  0.48318952447E+01  0.51100000000E-03 0. -1.
        -11    1    3    3    0    0  0.22718927230E+02  0.13218896701E+02  0.27689342855E+02  0.38178378599E+02  0.51100000000E-03 0.  1.
        -12    1    3    3    0    0  0.26429217070E+01 -0.14000502472E+02 -0.79005598645E+01  0.16291652795E+02  0.00000000000E+00 0.  1.
</event>
<event>
 7    1  0.4346085E-013  0.5930191E+02  0.7816164E-02  0.1266605E+00
        -11   -1    0    0    0    0  0.00000000000E+00  0.00000000000E+00  0.45593999997E+02  0.45594000000E+02  0.51100000000E-03 0. -1.
         11   -1    0    0    0    0 -0.00000000000E+00 -0.00000000000E+00 -0.45593999997E+02  0.45594000000E+02  0.51100000000E-03 0.  1.
    9900012    2    1    2    0    0  0.27886668549E+02  0.14128992554E+02 -0.62791676941E+01  0.59301911179E+02  0.49999940092E+02 0.  0.
         12    1    1    2    0    0 -0.27886668549E+02 -0.14128992554E+02  0.62791676941E+01  0.31886088821E+02  0.00000000000E+00 0. -1.
         11    1    3    3    0    0  0.55991607268E+01  0.22536817139E+02  0.13925803155E+02  0.27077420878E+02  0.51100000000E-03 0. -1.
        -11    1    3    3    0    0  0.67365258539E+01 -0.64458561173E+01 -0.89847757702E+01  0.12948205959E+02  0.51100000000E-03 0.  1.
         12    1    3    3    0    0  0.15550981968E+02 -0.19619684677E+01 -0.11220195079E+02  0.19276284342E+02  0.00000000000E+00 0. -1.
</event>
<event>
 7    1  0.4346085E-013  0.5930194E+02  0.7816164E-02  0.1266605E+00
        -11   -1    0    0    0    0  0.00000000000E+00  0.00000000000E+00  0.45593999997E+02  0.45594000000E+02  0.51100000000E-03 0.  1.
         11   -1    0    0    0    0 -0.00000000000E+00 -0.00000000000E+00 -0.45593999997E+02  0.45594000000E+02  0.51100000000E-03 0. -1.
    9900012    2    1    2    0    0  0.10127414493E+02 -0.27573036743E+02 -0.12404992521E+02  0.59301941620E+02  0.49999995610E+02 0.  0.
         12    1    1    2    0    0 -0.10127414493E+02  0.27573036743E+02  0.12404992521E+02  0.31886058380E+02  0.00000000000E+00 0. -1.
         11    1    3    3    0    0 -0.69231029748E+01  0.71236827944E+01 -0.10430263382E+02  0.14403701116E+02  0.51100000000E-03 0. -1.
        -11    1    3    3    0    0  0.12557455374E+02 -0.20615360205E+02  0.97482788149E+01  0.26032896534E+02  0.51100000000E-03 0.  1.
         12    1    3    3    0    0  0.44930620932E+01 -0.14081359333E+02 -0.11723007954E+02  0.18865343970E+02  0.00000000000E+00 0. -1.
</event>
<event>
 7    1  0.4346085E-013  0.5930193E+02  0.7816164E-02  0.1266605E+00
        -11   -1    0    0    0    0  0.00000000000E+00  0.00000000000E+00  0.45593999997E+02  0.45594000000E+02  0.51100000000E-03 0.  1.
         11   -1    0    0    0    0 -0.00000000000E+00 -0.00000000000E+00 -0.45593999997E+02  0.45594000000E+02  0.51100000000E-03 0. -1.
    9900012    2    1    2    0    0  0.15310046508E+02 -0.87430270855E+01  0.26568465631E+02  0.59301930743E+02  0.49999975772E+02 0.  0.
         12    1    1    2    0    0 -0.15310046508E+02  0.87430270855E+01 -0.26568465631E+02  0.31886069257E+02  0.00000000000E+00 0. -1.
         11    1    3    3    0    0  0.10617491331E+02 -0.90036993303E+01 -0.57780123277E+01  0.15072596011E+02  0.51100000000E-03 0. -1.
        -11    1    3    3    0    0  0.94851966717E+01  0.30755599648E+01  0.36146310477E+02  0.37496450317E+02  0.51100000000E-03 0.  1.
        -12    1    3    3    0    0 -0.47926414946E+01 -0.28148877200E+01 -0.37998325189E+01  0.67328844149E+01  0.00000000000E+00 0.  1.
</event>
<event>
 7    1  0.4346085E-013  0.5930194E+02  0.7816164E-02  0.1266605E+00
        -11   -1    0    0    0    0  0.00000000000E+00  0.00000000000E+00  0.45593999997E+02  0.45594000000E+02  0.51100000000E-03 0.  1.
         11   -1    0    0    0    0 -0.00000000000E+00 -0.00000000000E+00 -0.45593999997E+02  0.45594000000E+02  0.51100000000E-03 0. -1.
    9900012    2    1    2    0    0 -0.33458711281E+01  0.11208509990E+02  0.29663028224E+02  0.59301940457E+02  0.49999993487E+02 0.  0.
         12    1    1    2    0    0  0.33458711281E+01 -0.11208509990E+02 -0.29663028224E+02  0.31886059543E+02  0.00000000000E+00 0. -1.
         11    1    3    3    0    0 -0.89716441884E+01 -0.83868241236E+01  0.89670559361E+01  0.15206489100E+02  0.51100000000E-03 0. -1.
        -11    1    3    3    0    0  0.13690207435E+02  0.78069703658E+01 -0.33645596777E+01  0.16114925628E+02  0.51100000000E-03 0.  1.
        -12    1    3    3    0    0 -0.80644343744E+01  0.11788363748E+02  0.24060531965E+02  0.27980525729E+02  0.00000000000E+00 0.  1.
</event>
<event>
 7    1  0.4346085E-013  0.5930192E+02  0.7816164E-02  0.1266605E+00
        -11   -1    0    0    0    0  0.00000000000E+00  0.00000000000E+00  0.45593999997E+02  0.45594000000E+02  0.51100000000E-03 0. -1.
         11   -1    0    0    0    0 -0.00000000000E+00 -0.00000000000E+00 -0.45593999997E+02  0.45594000000E+02  0.51100000000E-03 0.  1.
    9900012    2    1    2    0    0 -0.15909963203E+02 -0.26734612054E+02  0.69896855356E+01  0.59301919735E+02  0.49999955696E+02 0.  0.
         12    1    1    2    0    0  0.15909963203E+02  0.26734612054E+02 -0.69896855356E+01  0.31886080265E+02  0.00000000000E+00 0. -1.
         11    1    3    3    0    0 -0.16654008851E+02  0.65017646230E+01 -0.36815957125E+01  0.18253303846E+02  0.51100000000E-03 0. -1.
        -11    1    3    3    0    0  0.22688385756E+00 -0.22182799170E+02 -0.41330902293E+01  0.22565692775E+02  0.51100000000E-03 0.  1.
         12    1    3    3    0    0  0.51716179094E+00 -0.11053577507E+02  0.14804371477E+02  0.18482923115E+02  0.00000000000E+00 0. -1.
</event>
<event>
 7    1  0.4346085E-013  0.5930194E+02  0.7816164E-02  0.1266605E+00
        -11   -1    0    0    0    0  0.00000000000E+00  0.00000000000E+00  0.45593999997E+02  0.45594000000E+02  0.51100000000E-03 0.  1.
         11   -1    0    0    0    0 -0.00000000000E+00 -0.00000000000E+00 -0.45593999997E+02  0.45594000000E+02  0.51100000000E-03 0. -1.
    9900012    2    1    2    0    0  0.41515545863E+01 -0.22683371331E+02  0.22021578500E+02  0.59301942544E+02  0.49999997295E+02 0.  0.
         12    1    1    2    0    0 -0.41515545863E+01  0.22683371331E+02 -0.22021578500E+02  0.31886057456E+02  0.00000000000E+00 0. -1.
         11    1    3    3    0    0 -0.75791498489E+01  0.31073014555E+01 -0.64485706703E+01  0.10425109051E+02  0.51100000000E-03 0. -1.
        -11    1    3    3    0    0  0.69191634510E+01 -0.31030098173E+02  0.19015544752E+02  0.37045009893E+02  0.51100000000E-03 0.  1.
         12    1    3    3    0    0  0.48115409842E+01  0.52394253860E+01  0.94546044184E+01  0.11831823601E+02  0.00000000000E+00 0. -1.
</event>
<event>
 7    1  0.4346085E-013  0.5930194E+02  0.7816164E-02  0.1266605E+00
        -11   -1    0    0    0    0  0.00000000000E+00  0.00000000000E+00  0.45593999997E+02  0.45594000000E+02  0.51100000000E-03 0. -1.
         11   -1    0    0    0    0 -0.00000000000E+00 -0.00000000000E+00 -0.45593999997E+02  0.45594000000E+02  0.51100000000E-03 0.  1.
    9900012    2    1    2    0    0  0.23062417489E+02 -0.16272353977E+02  0.14834285551E+02  0.59301942982E+02  0.49999998092E+02 0.  0.
         12    1    1    2    0    0 -0.23062417489E+02  0.16272353977E+02 -0.14834285551E+02  0.31886057018E+02  0.00000000000E+00 0. -1.
         11    1    3    3    0    0 -0.54740152030E+01  0.12245542845E+02  0.50409734800E+01  0.14329325731E+02  0.51100000000E-03 0. -1.
        -11    1    3    3    0    0  0.23376212657E+02 -0.29757891471E+02  0.11233296534E+02  0.39473616179E+02  0.51100000000E-03 0.  1.
        -12    1    3    3    0    0  0.51602200344E+01  0.12399946482E+01 -0.14399844638E+01  0.54990010718E+01  0.00000000000E+00 0.  1.
</event>
<event>
 7    1  0.4346085E-013  0.5930192E+02  0.7816164E-02  0.1266605E+00
        -11   -1    0    0    0    0  0.00000000000E+00  0.00000000000E+00  0.45593999997E+02  0.45594000000E+02  0.51100000000E-03 0.  1.
         11   -1    0    0    0    0 -0.00000000000E+00 -0.00000000000E+00 -0.45593999997E+02  0.45594000000E+02  0.51100000000E-03 0. -1.
    9900012    2    1    2    0    0 -0.72387294040E+01  0.60274301259E+01  0.30462982282E+02  0.59301915154E+02  0.49999947341E+02 0.  0.
         12    1    1    2    0    0  0.72387294040E+01 -0.60274301259E+01 -0.30462982282E+02  0.31886084846E+02  0.00000000000E+00 0. -1.
         11    1    3    3    0    0 -0.34631145696E+01  0.92121365210E+01 -0.54465535956E+01  0.11248180659E+02  0.51100000000E-03 0. -1.
        -11    1    3    3    0    0 -0.96659834087E+01 -0.12857991815E+02  0.32438897933E+02  0.36208304132E+02  0.51100000000E-03 0.  1.
        -12    1    3    3    0    0  0.58903685742E+01  0.96732854194E+01  0.34706379444E+01  0.11845430363E+02  0.00000000000E+00 0.  1.
</event>
<event>
 7    1  0.4346085E-013  0.5930196E+02  0.7816164E-02  0.1266605E+00
        -11   -1    0    0    0    0  0.00000000000E+00  0.00000000000E+00  0.45593999997E+02  0.45594000000E+02  0.51100000000E-03 0.  1.
         11   -1    0    0    0    0 -0.00000000000E+00 -0.00000000000E+00 -0.45593999997E+02  0.45594000000E+02  0.51100000000E-03 0. -1.
    9900012    2    1    2    0    0 -0.20863289585E+02 -0.51806169818E+01  0.23550028033E+02  0.59301961285E+02  0.50000031473E+02 0.  0.
         12    1    1    2    0    0  0.20863289585E+02  0.51806169818E+01 -0.23550028033E+02  0.31886038715E+02  0.00000000000E+00 0. -1.
         11    1    3    3    0    0 -0.34831271064E+01 -0.25260432055E+02  0.17215570011E+02  0.30766823903E+02  0.51100000000E-03 0. -1.
        -11    1    3    3    0    0 -0.96162147730E+01  0.12453011132E+02 -0.39623844510E+00  0.15738680948E+02  0.51100000000E-03 0.  1.
         12    1    3    3    0    0 -0.77639477055E+01  0.76268039408E+01  0.67306964666E+01  0.12796456433E+02  0.00000000000E+00 0. -1.
</event>
<event>
 7    1  0.4346085E-013  0.5930195E+02  0.7816164E-02  0.1266605E+00
        -11   -1    0    0    0    0  0.00000000000E+00  0.00000000000E+00  0.45593999997E+02  0.45594000000E+02  0.51100000000E-03 0. -1.
         11   -1    0    0    0    0 -0.00000000000E+00 -0.00000000000E+00 -0.45593999997E+02  0.45594000000E+02  0.51100000000E-03 0.  1.
    9900012    2    1    2    0    0  0.80771109384E+00 -0.31515877555E+02  0.47767406305E+01  0.59301949973E+02  0.50000010843E+02 0.  0.
         12    1    1    2    0    0 -0.80771109384E+00  0.31515877555E+02 -0.47767406305E+01  0.31886050027E+02  0.00000000000E+00 0. -1.
         11    1    3    3    0    0  0.30823875239E+01  0.11298103325E+02  0.95818039601E+01  0.15131398448E+02  0.51100000000E-03 0. -1.
        -11    1    3    3    0    0 -0.99106345206E+00 -0.41203622993E+02 -0.62055891320E+01  0.41680092266E+02  0.51100000000E-03 0.  1.
         12    1    3    3    0    0 -0.12836129780E+01 -0.16103578867E+01  0.14005258024E+01  0.24904592596E+01  0.00000000000E+00 0. -1.
</event>
<event>
 7    1  0.4346085E-013  0.5930196E+02  0.7816164E-02  0.1266605E+00
        -11   -1    0    0    0    0  0.00000000000E+00  0.00000000000E+00  0.45593999997E+02  0.45594000000E+02  0.51100000000E-03 0. -1.
         11   -1    0    0    0    0 -0.00000000000E+00 -0.00000000000E+00 -0.45593999997E+02  0.45594000000E+02  0.51100000000E-03 0.  1.
    9900012    2    1    2    0    0 -0.19769245244E+02  0.18374707735E+02 -0.16978423413E+02  0.59301955977E+02  0.50000021792E+02 0.  0.
         12    1    1    2    0    0  0.19769245244E+02 -0.18374707735E+02  0.16978423413E+02  0.31886044023E+02  0.00000000000E+00 0. -1.
         11    1    3    3    0    0 -0.12268378574E+02  0.23445758572E+02  0.97932120880E+01  0.28215664286E+02  0.51100000000E-03 0. -1.
        -11    1    3    3    0    0 -0.10876076527E+02 -0.20535376026E+01 -0.21123309355E+02  0.23847437088E+02  0.51100000000E-03 0.  1.
        -12    1    3    3    0    0  0.33752098574E+01 -0.30175132341E+01 -0.56483261458E+01  0.72388546021E+01  0.00000000000E+00 0.  1.
</event>
<event>
 7    1  0.4346085E-013  0.5930191E+02  0.7816164E-02  0.1266605E+00
        -11   -1    0    0    0    0  0.00000000000E+00  0.00000000000E+00  0.45593999997E+02  0.45594000000E+02  0.51100000000E-03 0.  1.
         11   -1    0    0    0    0 -0.00000000000E+00 -0.00000000000E+00 -0.45593999997E+02  0.45594000000E+02  0.51100000000E-03 0. -1.
    9900012    2    1    2    0    0 -0.10274593401E+02 -0.95778907315E+01  0.28625498802E+02  0.59301914601E+02  0.49999946333E+02 0.  0.
         12    1    1    2    0    0  0.10274593401E+02  0.95778907315E+01 -0.28625498802E+02  0.31886085399E+02  0.00000000000E+00 0. -1.
         11    1    3    3    0    0 -0.22865593283E+01 -0.53845968847E+01  0.28023130247E+02  0.28627225962E+02  0.51100000000E-03 0. -1.
        -11    1    3    3    0    0 -0.18732755078E+02 -0.27645281786E+01 -0.31670573944E+01  0.19198671351E+02  0.51100000000E-03 0.  1.
         12    1    3    3    0    0  0.10744721005E+02 -0.14287656683E+01  0.37694259489E+01  0.11476017288E+02  0.00000000000E+00 0. -1.
</event>
<event>
 7    1  0.4346085E-013  0.5930194E+02  0.7816164E-02  0.1266605E+00
        -11   -1    0    0    0    0  0.00000000000E+00  0.00000000000E+00  0.45593999997E+02  0.45594000000E+02  0.51100000000E-03 0.  1.
         11   -1    0    0    0    0 -0.00000000000E+00 -0.00000000000E+00 -0.45593999997E+02  0.45594000000E+02  0.51100000000E-03 0. -1.
    9900012    2    1    2    0    0 -0.14063713845E+02 -0.22808272929E+02  0.17283382993E+02  0.59301942094E+02  0.49999996473E+02 0.  0.
         12    1    1    2    0    0  0.14063713845E+02  0.22808272929E+02 -0.17283382993E+02  0.31886057906E+02  0.00000000000E+00 0. -1.
         11    1    3    3    0    0 -0.25285858146E+02 -0.48418957403E+01  0.50699496770E+01  0.26239721159E+02  0.51100000000E-03 0. -1.
        -11    1    3    3    0    0  0.11808436478E+02 -0.12392269056E+02  0.18115103252E+02  0.24923171357E+02  0.51100000000E-03 0.  1.
         12    1    3    3    0    0 -0.58629217744E+00 -0.55741081324E+01 -0.59016699358E+01  0.81390495772E+01  0.00000000000E+00 0. -1.
</event>
<event>
 7    1  0.4346085E-013  0.5930195E+02  0.7816164E-02  0.1266605E+00
        -11   -1    0    0    0    0  0.00000000000E+00  0.00000000000E+00  0.45593999997E+02  0.45594000000E+02  0.51100000000E-03 0. -1.
         11   -1    0    0    0    0 -0.00000000000E+00 -0.00000000000E+00 -0.45593999997E+02  0.45594000000E+02  0.51100000000E-03 0.  1.
    9900012    2    1    2    0    0 -0.26496133899E+02  0.14282666090E+02 -0.10520478669E+02  0.59301950799E+02  0.50000012349E+02 0.  0.
         12    1    1    2    0    0  0.26496133899E+02 -0.14282666090E+02  0.10520478669E+02  0.31886049201E+02  0.00000000000E+00 0. -1.
         11    1    3    3    0    0  0.12869237353E+02  0.34537413393E+01 -0.12069026649E+02  0.17977958833E+02  0.51100000000E-03 0. -1.
        -11    1    3    3    0    0 -0.73027638769E+01  0.38300451284E+01  0.20708337550E+01  0.85022325674E+01  0.51100000000E-03 0.  1.
         12    1    3    3    0    0 -0.32062607375E+02  0.69988796219E+01 -0.52228577580E+00  0.32821759399E+02  0.00000000000E+00 0. -1.
</event>
<event>
 7    1  0.4346085E-013  0.5930192E+02  0.7816164E-02  0.1266605E+00
        -11   -1    0    0    0    0  0.00000000000E+00  0.00000000000E+00  0.45593999997E+02  0.45594000000E+02  0.51100000000E-03 0. -1.
         11   -1    0    0    0    0 -0.00000000000E+00 -0.00000000000E+00 -0.45593999997E+02  0.45594000000E+02  0.51100000000E-03 0.  1.
    9900012    2    1    2    0    0 -0.68946731194E+01 -0.69186609851E+01 -0.30353215842E+02  0.59301919977E+02  0.49999956137E+02 0.  0.
         12    1    1    2    0    0  0.68946731194E+01  0.69186609851E+01  0.30353215842E+02  0.31886080023E+02  0.00000000000E+00 0. -1.
         11    1    3    3    0    0  0.77199608545E+01  0.11313537834E+02 -0.97798906934E+01  0.16829741416E+02  0.51100000000E-03 0. -1.
        -11    1    3    3    0    0  0.19733433313E+01 -0.20329365088E+02 -0.10779170335E+02  0.23094754430E+02  0.51100000000E-03 0.  1.
         12    1    3    3    0    0 -0.16587977305E+02  0.20971662695E+01 -0.97941548135E+01  0.19377424131E+02  0.00000000000E+00 0. -1.
</event>
<event>
 7    1  0.4346085E-013  0.5930206E+02  0.7816164E-02  0.1266604E+00
        -11   -1    0    0    0    0  0.00000000000E+00  0.00000000000E+00  0.45593999997E+02  0.45594000000E+02  0.51100000000E-03 0. -1.
         11   -1    0    0    0    0 -0.00000000000E+00 -0.00000000000E+00 -0.45593999997E+02  0.45594000000E+02  0.51100000000E-03 0.  1.
    9900012    2    1    2    0    0  0.97797210241E+01  0.14267017968E+02 -0.26786614923E+02  0.59302055070E+02  0.50000202514E+02 0.  0.
         12    1    1    2    0    0 -0.97797210241E+01 -0.14267017968E+02  0.26786614923E+02  0.31885944930E+02  0.00000000000E+00 0. -1.
         11    1    3    3    0    0  0.60183010237E+01  0.27809055829E+02 -0.33697653427E+01  0.28651681487E+02  0.51100000000E-03 0. -1.
        -11    1    3    3    0    0  0.50542295618E+01 -0.13601468618E+02 -0.11108399792E+02  0.18274072650E+02  0.51100000000E-03 0.  1.
         12    1    3    3    0    0 -0.12928095614E+01  0.59430756683E-01 -0.12308449788E+02  0.12376300932E+02  0.00000000000E+00 0. -1.
</event>
<event>
 7    1  0.4346085E-013  0.5930194E+02  0.7816164E-02  0.1266605E+00
        -11   -1    0    0    0    0  0.00000000000E+00  0.00000000000E+00  0.45593999997E+02  0.45594000000E+02  0.51100000000E-03 0.  1.
         11   -1    0    0    0    0 -0.00000000000E+00 -0.00000000000E+00 -0.45593999997E+02  0.45594000000E+02  0.51100000000E-03 0. -1.
    9900012    2    1    2    0    0 -0.16522382849E+01  0.12971583830E+02  0.29081420567E+02  0.59301938772E+02  0.49999990416E+02 0.  0.
         12    1    1    2    0    0  0.16522382849E+01 -0.12971583830E+02 -0.29081420567E+02  0.31886061228E+02  0.00000000000E+00 0. -1.
         11    1    3    3    0    0 -0.16644829336E+02 -0.12969634078E+02  0.10226705861E+02  0.23448822247E+02  0.51100000000E-03 0. -1.
        -11    1    3    3    0    0  0.12351143545E+02  0.16075100025E+02  0.12953370053E+02  0.24057210637E+02  0.51100000000E-03 0.  1.
         12    1    3    3    0    0  0.26414475058E+01  0.98661178831E+01  0.59013446536E+01  0.11795905889E+02  0.00000000000E+00 0. -1.
</event>
<event>
 7    1  0.4346085E-013  0.5930217E+02  0.7816164E-02  0.1266604E+00
        -11   -1    0    0    0    0  0.00000000000E+00  0.00000000000E+00  0.45593999997E+02  0.45594000000E+02  0.51100000000E-03 0. -1.
         11   -1    0    0    0    0 -0.00000000000E+00 -0.00000000000E+00 -0.45593999997E+02  0.45594000000E+02  0.51100000000E-03 0.  1.
    9900012    2    1    2    0    0  0.16592522422E+02 -0.15953954517E+02 -0.22065026294E+02  0.59302174773E+02  0.50000420822E+02 0.  0.
         12    1    1    2    0    0 -0.16592522422E+02  0.15953954517E+02  0.22065026294E+02  0.31885825227E+02  0.00000000000E+00 0. -1.
         11    1    3    3    0    0 -0.60162855714E+01 -0.63995808775E+01  0.11344605514E+02  0.14347487655E+02  0.51100000000E-03 0. -1.
        -11    1    3    3    0    0  0.21646196420E+02 -0.61539434814E+01 -0.17092423905E+02  0.28259154182E+02  0.51100000000E-03 0.  1.
         12    1    3    3    0    0  0.96261157301E+00 -0.34004301578E+01 -0.16317207903E+02  0.16695532937E+02  0.00000000000E+00 0. -1.
</event>
<event>
 7    1  0.4346085E-013  0.5930193E+02  0.7816164E-02  0.1266605E+00
        -11   -1    0    0    0    0  0.00000000000E+00  0.00000000000E+00  0.45593999997E+02  0.45594000000E+02  0.51100000000E-03 0. -1.
         11   -1    0    0    0    0 -0.00000000000E+00 -0.00000000000E+00 -0.45593999997E+02  0.45594000000E+02  0.51100000000E-03 0.  1.
    9900012    2    1    2    0    0 -0.31089529367E+02  0.33744942737E+01 -0.62269830134E+01  0.59301931486E+02  0.49999977126E+02 0.  0.
         12    1    1    2    0    0  0.31089529367E+02 -0.33744942737E+01  0.62269830134E+01  0.31886068514E+02  0.00000000000E+00 0. -1.
         11    1    3    3    0    0 -0.16037891542E+02  0.10295382228E+02  0.17597881421E+02  0.25940206073E+02  0.51100000000E-03 0. -1.
        -11    1    3    3    0    0  0.11977222371E+00 -0.71991578975E+01 -0.35230596551E+01  0.80158698476E+01  0.51100000000E-03 0.  1.
         12    1    3    3    0    0 -0.15171410048E+02  0.27826994307E+00 -0.20301804779E+02  0.25345855565E+02  0.00000000000E+00 0. -1.
</event>
<event>
 7    1  0.4346085E-013  0.5930195E+02  0.7816164E-02  0.1266605E+00
        -11   -1    0    0    0    0  0.00000000000E+00  0.00000000000E+00  0.45593999997E+02  0.45594000000E+02  0.51100000000E-03 0. -1.
         11   -1    0    0    0    0 -0.00000000000E+00 -0.00000000000E+00 -0.45593999997E+02  0.45594000000E+02  0.51100000000E-03 0.  1.
    9900012    2    1    2    0    0  0.22892607312E+02  0.50012383067E+00 -0.22190054394E+02  0.59301951210E+02  0.50000013099E+02 0.  0.
         12    1    1    2    0    0 -0.22892607312E+02 -0.50012383067E+00  0.22190054394E+02  0.31886048790E+02  0.00000000000E+00 0. -1.
         11    1    3    3    0    0  0.11275083505E+02 -0.10243102913E+02  0.13122212918E+02  0.20105748865E+02  0.51100000000E-03 0. -1.
        -11    1    3    3    0    0  0.52593519531E+01  0.46037986698E+01 -0.23009387845E+02  0.24047612656E+02  0.51100000000E-03 0.  1.
         12    1    3    3    0    0  0.63581718547E+01  0.61394280734E+01 -0.12302879467E+02  0.15148589689E+02  0.00000000000E+00 0. -1.
</event>
<event>
 7    1  0.4346085E-013  0.5930197E+02  0.7816164E-02  0.1266605E+00
        -11   -1    0    0    0    0  0.00000000000E+00  0.00000000000E+00  0.45593999997E+02  0.45594000000E+02  0.51100000000E-03 0. -1.
         11   -1    0    0    0    0 -0.00000000000E+00 -0.00000000000E+00 -0.45593999997E+02  0.45594000000E+02  0.51100000000E-03 0.  1.
    9900012    2    1    2    0    0  0.25568904098E+00  0.18701203435E+02 -0.25824768384E+02  0.59301967809E+02  0.50000043371E+02 0.  0.
         12    1    1    2    0    0 -0.25568904098E+00 -0.18701203435E+02  0.25824768384E+02  0.31886032191E+02  0.00000000000E+00 0. -1.
         11    1    3    3    0    0  0.18531612760E+02  0.49837563053E+01  0.27714667276E+01  0.19389160025E+02  0.51100000000E-03 0. -1.
        -11    1    3    3    0    0 -0.13921832531E+02  0.16424807887E+02 -0.17707577171E+02  0.27877410652E+02  0.51100000000E-03 0.  1.
        -12    1    3    3    0    0 -0.43540911886E+01 -0.27073607576E+01 -0.10888657941E+02  0.12035397131E+02  0.00000000000E+00 0.  1.
</event>
<event>
 7    1  0.4346085E-013  0.5930193E+02  0.7816164E-02  0.1266605E+00
        -11   -1    0    0    0    0  0.00000000000E+00  0.00000000000E+00  0.45593999997E+02  0.45594000000E+02  0.51100000000E-03 0.  1.
         11   -1    0    0    0    0 -0.00000000000E+00 -0.00000000000E+00 -0.45593999997E+02  0.45594000000E+02  0.51100000000E-03 0. -1.
    9900012    2    1    2    0    0 -0.31501012396E+02 -0.34318095584E+01  0.35539003398E+01  0.59301932408E+02  0.49999978809E+02 0.  0.
         12    1    1    2    0    0  0.31501012396E+02  0.34318095584E+01 -0.35539003398E+01  0.31886067592E+02  0.00000000000E+00 0. -1.
         11    1    3    3    0    0 -0.14705701536E+02 -0.31589282714E+01 -0.18708681094E+02  0.24005233472E+02  0.51100000000E-03 0. -1.
        -11    1    3    3    0    0 -0.17661756624E+02 -0.74890963323E+01  0.19931795071E+02  0.27664068138E+02  0.51100000000E-03 0.  1.
        -12    1    3    3    0    0  0.86644576330E+00  0.72162150453E+01  0.23307863629E+01  0.76326307988E+01  0.00000000000E+00 0.  1.
</event>
<event>
 7    1  0.4346085E-013  0.5930195E+02  0.7816164E-02  0.1266605E+00
        -11   -1    0    0    0    0  0.00000000000E+00  0.00000000000E+00  0.45593999997E+02  0.45594000000E+02  0.51100000000E-03 0.  1.
         11   -1    0    0    0    0 -0.00000000000E+00 -0.00000000000E+00 -0.45593999997E+02  0.45594000000E+02  0.51100000000E-03 0. -1.
    9900012    2    1    2    0    0 -0.60330445714E+01 -0.21973148284E+02  0.22304788621E+02  0.59301945560E+02  0.50000002795E+02 0.  0.
         12    1    1    2    0    0  0.60330445714E+01  0.21973148284E+02 -0.22304788621E+02  0.31886054440E+02  0.00000000000E+00 0. -1.
         11    1    3    3    0    0  0.40535907315E+01 -0.20634119375E+02  0.22768882333E+02  0.30993878156E+02  0.51100000000E-03 0. -1.
        -11    1    3    3    0    0  0.63813185655E+01 -0.75588446157E+00  0.76082196258E+01  0.99587948111E+01  0.51100000000E-03 0.  1.
         12    1    3    3    0    0 -0.16467953868E+02 -0.58314444704E+00 -0.80723133375E+01  0.18349272593E+02  0.00000000000E+00 0. -1.
</event>
<event>
 7    1  0.4346085E-013  0.5930194E+02  0.7816164E-02  0.1266605E+00
        -11   -1    0    0    0    0  0.00000000000E+00  0.00000000000E+00  0.45593999997E+02  0.45594000000E+02  0.51100000000E-03 0.  1.
         11   -1    0    0    0    0 -0.00000000000E+00 -0.00000000000E+00 -0.45593999997E+02  0.45594000000E+02  0.51100000000E-03 0. -1.
    9900012    2    1    2    0    0  0.43790861954E+01  0.21258941664E+02  0.23358122586E+02  0.59301938981E+02  0.49999990795E+02 0.  0.
         12    1    1    2    0    0 -0.43790861954E+01 -0.21258941664E+02 -0.23358122586E+02  0.31886061019E+02  0.00000000000E+00 0. -1.
         11    1    3    3    0    0  0.13467224626E+02  0.14020733687E+02 -0.25485599205E+01  0.19607199448E+02  0.51100000000E-03 0. -1.
        -11    1    3    3    0    0 -0.47064496050E+01 -0.61426770607E+01  0.24324893606E+02  0.25526135598E+02  0.51100000000E-03 0.  1.
        -12    1    3    3    0    0 -0.43816888254E+01  0.13380885037E+02  0.15817889011E+01  0.14168603935E+02  0.00000000000E+00 0.  1.
</event>
<event>
 7    1  0.4346085E-013  0.5930199E+02  0.7816164E-02  0.1266605E+00
        -11   -1    0    0    0    0  0.00000000000E+00  0.00000000000E+00  0.45593999997E+02  0.45594000000E+02  0.51100000000E-03 0.  1.
         11   -1    0    0    0    0 -0.00000000000E+00 -0.00000000000E+00 -0.45593999997E+02  0.45594000000E+02  0.51100000000E-03 0. -1.
    9900012    2    1    2    0    0 -0.10198243937E+02 -0.30192505918E+02  0.10610639666E+01  0.59301992885E+02  0.50000089103E+02 0.  0.
         12    1    1    2    0    0  0.10198243937E+02  0.30192505918E+02 -0.10610639666E+01  0.31886007115E+02  0.00000000000E+00 0. -1.
         11    1    3    3    0    0 -0.37859556454E+01 -0.10762909307E+02  0.14703968257E+02  0.18611296561E+02  0.51100000000E-03 0. -1.
        -11    1    3    3    0    0 -0.15522853993E+02 -0.21170521879E+02 -0.16474269133E+02  0.30992765872E+02  0.51100000000E-03 0.  1.
         12    1    3    3    0    0  0.91105657008E+01  0.17409252676E+01  0.28313648422E+01  0.96979304517E+01  0.00000000000E+00 0. -1.
</event>
<event>
 7    1  0.4346085E-013  0.5930197E+02  0.7816164E-02  0.1266605E+00
        -11   -1    0    0    0    0  0.00000000000E+00  0.00000000000E+00  0.45593999997E+02  0.45594000000E+02  0.51100000000E-03 0.  1.
         11   -1    0    0    0    0 -0.00000000000E+00 -0.00000000000E+00 -0.45593999997E+02  0.45594000000E+02  0.51100000000E-03 0. -1.
    9900012    2    1    2    0    0  0.27648733485E+02  0.27552119456E+01  0.15642105164E+02  0.59301966848E+02  0.50000041619E+02 0.  0.
         12    1    1    2    0    0 -0.27648733485E+02 -0.27552119456E+01 -0.15642105164E+02  0.31886033152E+02  0.00000000000E+00 0. -1.
         11    1    3    3    0    0 -0.52284045933E+01 -0.40348399729E+00 -0.43043832286E+01  0.67843001973E+01  0.51100000000E-03 0. -1.
        -11    1    3    3    0    0  0.34606344542E+02  0.13980039627E+02  0.17800384024E+02  0.41350867732E+02  0.51100000000E-03 0.  1.
        -12    1    3    3    0    0 -0.17292064637E+01 -0.10821343684E+02  0.21461043696E+01  0.11166798919E+02  0.00000000000E+00 0.  1.
</event>
<event>
 7    1  0.4346085E-013  0.5930209E+02  0.7816164E-02  0.1266604E+00
        -11   -1    0    0    0    0  0.00000000000E+00  0.00000000000E+00  0.45593999997E+02  0.45594000000E+02  0.51100000000E-03 0. -1.
         11   -1    0    0    0    0 -0.00000000000E+00 -0.00000000000E+00 -0.45593999997E+02  0.45594000000E+02  0.51100000000E-03 0.  1.
    9900012    2    1    2    0    0 -0.17086183703E+01 -0.11590832831E+02 -0.29655427354E+02  0.59302091607E+02  0.50000269149E+02 0.  0.
         12    1    1    2    0    0  0.17086183703E+01  0.11590832831E+02  0.29655427354E+02  0.31885908393E+02  0.00000000000E+00 0. -1.
         11    1    3    3    0    0 -0.40606744474E+01  0.52291697806E-01  0.13392762275E+02  0.13994923830E+02  0.51100000000E-03 0. -1.
        -11    1    3    3    0    0  0.14277131971E+00 -0.11708055010E+02 -0.32911231080E+02  0.34932049285E+02  0.51100000000E-03 0.  1.
         12    1    3    3    0    0  0.22092847574E+01  0.64930481104E-01 -0.10136958549E+02  0.10375118493E+02  0.00000000000E+00 0. -1.
</event>
<event>
 7    1  0.4346085E-013  0.5930195E+02  0.7816164E-02  0.1266605E+00
        -11   -1    0    0    0    0  0.00000000000E+00  0.00000000000E+00  0.45593999997E+02  0.45594000000E+02  0.51100000000E-03 0.  1.
         11   -1    0    0    0    0 -0.00000000000E+00 -0.00000000000E+00 -0.45593999997E+02  0.45594000000E+02  0.51100000000E-03 0. -1.
    9900012    2    1    2    0    0 -0.20109281367E+02  0.21840326937E+02  0.11633437586E+02  0.59301953712E+02  0.50000017662E+02 0.  0.
         12    1    1    2    0    0  0.20109281367E+02 -0.21840326937E+02 -0.11633437586E+02  0.31886046288E+02  0.00000000000E+00 0. -1.
         11    1    3    3    0    0  0.86929224651E+00 -0.56717800018E+00 -0.12291702512E+02  0.12335449356E+02  0.51100000000E-03 0. -1.
        -11    1    3    3    0    0 -0.13938790781E+02  0.11098678352E+02 -0.18894047611E+01  0.17917600292E+02  0.51100000000E-03 0.  1.
         12    1    3    3    0    0 -0.70397828323E+01  0.11308826585E+02  0.25814544859E+02  0.29048904065E+02  0.00000000000E+00 0. -1.
</event>
<event>
 7    1  0.4346085E-013  0.5930197E+02  0.7816164E-02  0.1266605E+00
        -11   -1    0    0    0    0  0.00000000000E+00  0.00000000000E+00  0.45593999997E+02  0.45594000000E+02  0.51100000000E-03 0.  1.
         11   -1    0    0    0    0 -0.00000000000E+00 -0.00000000000E+00 -0.45593999997E+02  0.45594000000E+02  0.51100000000E-03 0. -1.
    9900012    2    1    2    0    0  0.19654910784E+02  0.98780126024E+01  0.23083071726E+02  0.59301970909E+02  0.50000049024E+02 0.  0.
         12    1    1    2    0    0 -0.19654910784E+02 -0.98780126024E+01 -0.23083071726E+02  0.31886029091E+02  0.00000000000E+00 0. -1.
         11    1    3    3    0    0 -0.83921645025E+01  0.99717379400E+01 -0.84066014856E+01  0.15509188611E+02  0.51100000000E-03 0. -1.
        -11    1    3    3    0    0  0.75555651042E+01  0.27850338049E+01  0.16110444523E+02  0.18010813428E+02  0.51100000000E-03 0.  1.
         12    1    3    3    0    0  0.20491510182E+02 -0.28787591424E+01  0.15379228689E+02  0.25781968870E+02  0.00000000000E+00 0. -1.
</event>
<event>
 7    1  0.4346085E-013  0.5930195E+02  0.7816164E-02  0.1266605E+00
        -11   -1    0    0    0    0  0.00000000000E+00  0.00000000000E+00  0.45593999997E+02  0.45594000000E+02  0.51100000000E-03 0.  1.
         11   -1    0    0    0    0 -0.00000000000E+00 -0.00000000000E+00 -0.45593999997E+02  0.45594000000E+02  0.51100000000E-03 0. -1.
    9900012    2    1    2    0    0  0.21174404024E+02 -0.23764100511E+02 -0.19059241906E+01  0.59301946530E+02  0.50000004564E+02 0.  0.
         12    1    1    2    0    0 -0.21174404024E+02  0.23764100511E+02  0.19059241906E+01  0.31886053470E+02  0.00000000000E+00 0. -1.
         11    1    3    3    0    0  0.89138398959E+01  0.17957370448E+01  0.18622434726E+02  0.20723809703E+02  0.51100000000E-03 0.  1.
        -11    1    3    3    0    0  0.91830280469E+01 -0.61970324158E+01 -0.14128897806E+02  0.17954302224E+02  0.51100000000E-03 0. -1.
         12    1    3    3    0    0  0.30775360809E+01 -0.19362805140E+02 -0.63994611110E+01  0.20623834603E+02  0.00000000000E+00 0. -1.
</event>
<event>
 7    1  0.4346085E-013  0.5930193E+02  0.7816164E-02  0.1266605E+00
        -11   -1    0    0    0    0  0.00000000000E+00  0.00000000000E+00  0.45593999997E+02  0.45594000000E+02  0.51100000000E-03 0.  1.
         11   -1    0    0    0    0 -0.00000000000E+00 -0.00000000000E+00 -0.45593999997E+02  0.45594000000E+02  0.51100000000E-03 0. -1.
    9900012    2    1    2    0    0 -0.71253613808E+01 -0.31072599627E+02 -0.66648763757E+00  0.59301930500E+02  0.49999975329E+02 0.  0.
         12    1    1    2    0    0  0.71253613808E+01  0.31072599627E+02  0.66648763757E+00  0.31886069500E+02  0.00000000000E+00 0. -1.
         11    1    3    3    0    0  0.81634073592E+01  0.96243665777E+01 -0.66839561585E+01  0.14280928609E+02  0.51100000000E-03 0. -1.
        -11    1    3    3    0    0 -0.14159451843E+02 -0.24621949484E+02  0.52792788513E+01  0.28889466218E+02  0.51100000000E-03 0.  1.
         12    1    3    3    0    0 -0.11293168969E+01 -0.16075016720E+02  0.73818966964E+00  0.16131535674E+02  0.00000000000E+00 0. -1.
</event>
<event>
 7    1  0.4346085E-013  0.5930195E+02  0.7816164E-02  0.1266605E+00
        -11   -1    0    0    0    0  0.00000000000E+00  0.00000000000E+00  0.45593999997E+02  0.45594000000E+02  0.51100000000E-03 0. -1.
         11   -1    0    0    0    0 -0.00000000000E+00 -0.00000000000E+00 -0.45593999997E+02  0.45594000000E+02  0.51100000000E-03 0.  1.
    9900012    2    1    2    0    0  0.30616713454E+02  0.42318398588E+01 -0.78376253848E+01  0.59301953162E+02  0.50000016658E+02 0.  0.
         12    1    1    2    0    0 -0.30616713454E+02 -0.42318398588E+01  0.78376253848E+01  0.31886046838E+02  0.00000000000E+00 0. -1.
         11    1    3    3    0    0 -0.11205777663E+02  0.28820698731E+01 -0.71504109833E+01  0.13601623332E+02  0.51100000000E-03 0. -1.
        -11    1    3    3    0    0  0.33987519738E+02  0.27009018259E+01 -0.78637922992E+01  0.34989792771E+02  0.51100000000E-03 0.  1.
         12    1    3    3    0    0  0.78349713789E+01 -0.13511318402E+01  0.71765778977E+01  0.10710537058E+02  0.00000000000E+00 0. -1.
</event>
<event>
 7    1  0.4346085E-013  0.5930193E+02  0.7816164E-02  0.1266605E+00
        -11   -1    0    0    0    0  0.00000000000E+00  0.00000000000E+00  0.45593999997E+02  0.45594000000E+02  0.51100000000E-03 0. -1.
         11   -1    0    0    0    0 -0.00000000000E+00 -0.00000000000E+00 -0.45593999997E+02  0.45594000000E+02  0.51100000000E-03 0.  1.
    9900012    2    1    2    0    0  0.13744471899E+01  0.24739377119E+02 -0.20069775375E+02  0.59301925157E+02  0.49999965584E+02 0.  0.
         12    1    1    2    0    0 -0.13744471899E+01 -0.24739377119E+02  0.20069775375E+02  0.31886074843E+02  0.00000000000E+00 0. -1.
         11    1    3    3    0    0 -0.98071953011E+00 -0.39173638682E+01  0.64075967203E+01  0.75739584408E+01  0.51100000000E-03 0. -1.
        -11    1    3    3    0    0 -0.11008898047E+02  0.29018569157E+02 -0.17593009066E+02  0.35676142735E+02  0.51100000000E-03 0.  1.
        -12    1    3    3    0    0  0.13364064767E+02 -0.36182817058E+00 -0.88843630287E+01  0.16051823982E+02  0.00000000000E+00 0.  1.
</event>
<event>
 7    1  0.4346085E-013  0.5930194E+02  0.7816164E-02  0.1266605E+00
        -11   -1    0    0    0    0  0.00000000000E+00  0.00000000000E+00  0.45593999997E+02  0.45594000000E+02  0.51100000000E-03 0. -1.
         11   -1    0    0    0    0 -0.00000000000E+00 -0.00000000000E+00 -0.45593999997E+02  0.45594000000E+02  0.51100000000E-03 0.  1.
    9900012    2    1    2    0    0  0.20795630737E+02 -0.12207301503E+02 -0.20862509734E+02  0.59301940661E+02  0.49999993861E+02 0.  0.
         12    1    1    2    0    0 -0.20795630737E+02  0.12207301503E+02  0.20862509734E+02  0.31886059339E+02  0.00000000000E+00 0. -1.
         11    1    3    3    0    0  0.27212352789E+00  0.10609897323E+02  0.55942131847E+01  0.11997466142E+02  0.51100000000E-03 0. -1.
        -11    1    3    3    0    0 -0.53722633987E+01 -0.59026229811E+01 -0.79236835424E+01  0.11246640975E+02  0.51100000000E-03 0.  1.
         12    1    3    3    0    0  0.25895770608E+02 -0.16914575845E+02 -0.18533039376E+02  0.36057833544E+02  0.00000000000E+00 0. -1.
</event>
<event>
 7    1  0.4346085E-013  0.5930193E+02  0.7816164E-02  0.1266605E+00
        -11   -1    0    0    0    0  0.00000000000E+00  0.00000000000E+00  0.45593999997E+02  0.45594000000E+02  0.51100000000E-03 0.  1.
         11   -1    0    0    0    0 -0.00000000000E+00 -0.00000000000E+00 -0.45593999997E+02  0.45594000000E+02  0.51100000000E-03 0. -1.
    9900012    2    1    2    0    0 -0.23537732224E+02  0.18523839546E+02 -0.10934519641E+02  0.59301934241E+02  0.49999982152E+02 0.  0.
         12    1    1    2    0    0  0.23537732224E+02 -0.18523839546E+02  0.10934519641E+02  0.31886065759E+02  0.00000000000E+00 0. -1.
         11    1    3    3    0    0 -0.34516571893E+02  0.22769823683E+02 -0.11527721996E+02  0.42927228894E+02  0.51100000000E-03 0.  1.
        -11    1    3    3    0    0  0.67501340691E+00 -0.30125812846E+01 -0.39777289213E+01  0.50352375047E+01  0.51100000000E-03 0. -1.
         12    1    3    3    0    0  0.10303826262E+02 -0.12334028529E+01  0.45709312761E+01  0.11339467843E+02  0.00000000000E+00 0. -1.
</event>
<event>
 7    1  0.4346085E-013  0.5930195E+02  0.7816164E-02  0.1266605E+00
        -11   -1    0    0    0    0  0.00000000000E+00  0.00000000000E+00  0.45593999997E+02  0.45594000000E+02  0.51100000000E-03 0. -1.
         11   -1    0    0    0    0 -0.00000000000E+00 -0.00000000000E+00 -0.45593999997E+02  0.45594000000E+02  0.51100000000E-03 0.  1.
    9900012    2    1    2    0    0 -0.30956360170E+02  0.75551068086E+01 -0.11595133186E+01  0.59301947485E+02  0.50000006305E+02 0.  0.
         12    1    1    2    0    0  0.30956360170E+02 -0.75551068086E+01  0.11595133186E+01  0.31886052515E+02  0.00000000000E+00 0. -1.
         11    1    3    3    0    0  0.82769489006E+01 -0.28302808917E+01  0.32694841931E+01  0.93385170225E+01  0.51100000000E-03 0. -1.
        -11    1    3    3    0    0 -0.27470642777E+02  0.14934125515E+02 -0.13873694826E+02  0.34207363650E+02  0.51100000000E-03 0.  1.
         12    1    3    3    0    0 -0.11762666294E+02 -0.45487378144E+01  0.94446973144E+01  0.15756066813E+02  0.00000000000E+00 0. -1.
</event>
<event>
 7    1  0.4346085E-013  0.5930196E+02  0.7816164E-02  0.1266605E+00
        -11   -1    0    0    0    0  0.00000000000E+00  0.00000000000E+00  0.45593999997E+02  0.45594000000E+02  0.51100000000E-03 0.  1.
         11   -1    0    0    0    0 -0.00000000000E+00 -0.00000000000E+00 -0.45593999997E+02  0.45594000000E+02  0.51100000000E-03 0. -1.
    9900012    2    1    2    0    0  0.52449526983E+01  0.31180954043E+02  0.41180618111E+01  0.59301955138E+02  0.50000020263E+02 0.  0.
         12    1    1    2    0    0 -0.52449526983E+01 -0.31180954043E+02 -0.41180618111E+01  0.31886044862E+02  0.00000000000E+00 0. -1.
         11    1    3    3    0    0 -0.53772089953E+01  0.18557380507E+02 -0.79354721976E+01  0.20886897020E+02  0.51100000000E-03 0. -1.
        -11    1    3    3    0    0  0.19831471775E+02  0.35125383889E+01 -0.81312407531E+00  0.20156546572E+02  0.51100000000E-03 0.  1.
        -12    1    3    3    0    0 -0.92093100812E+01  0.91110351477E+01  0.12866658084E+02  0.18258511546E+02  0.00000000000E+00 0.  1.
</event>
<event>
 7    1  0.4346085E-013  0.5930195E+02  0.7816164E-02  0.1266605E+00
        -11   -1    0    0    0    0  0.00000000000E+00  0.00000000000E+00  0.45593999997E+02  0.45594000000E+02  0.51100000000E-03 0. -1.
         11   -1    0    0    0    0 -0.00000000000E+00 -0.00000000000E+00 -0.45593999997E+02  0.45594000000E+02  0.51100000000E-03 0.  1.
    9900012    2    1    2    0    0 -0.25057444351E+02  0.19561095654E+02 -0.24916076740E+01  0.59301951493E+02  0.50000013615E+02 0.  0.
         12    1    1    2    0    0  0.25057444351E+02 -0.19561095654E+02  0.24916076740E+01  0.31886048507E+02  0.00000000000E+00 0. -1.
         11    1    3    3    0    0  0.26166313753E+00  0.30617866550E+02  0.35391502815E+01  0.30822845499E+02  0.51100000000E-03 0. -1.
        -11    1    3    3    0    0 -0.43574670975E+01 -0.21311949696E+01 -0.23888740281E+01  0.54070538084E+01  0.51100000000E-03 0.  1.
         12    1    3    3    0    0 -0.20961640391E+02 -0.89255759265E+01 -0.36418839274E+01  0.23072052185E+02  0.00000000000E+00 0. -1.
</event>
<event>
 7    1  0.4346085E-013  0.5930195E+02  0.7816164E-02  0.1266605E+00
        -11   -1    0    0    0    0  0.00000000000E+00  0.00000000000E+00  0.45593999997E+02  0.45594000000E+02  0.51100000000E-03 0.  1.
         11   -1    0    0    0    0 -0.00000000000E+00 -0.00000000000E+00 -0.45593999997E+02  0.45594000000E+02  0.51100000000E-03 0. -1.
    9900012    2    1    2    0    0  0.26596988364E+02  0.17530421631E+02  0.14158762682E+01  0.59301950100E+02  0.50000011074E+02 0.  0.
         12    1    1    2    0    0 -0.26596988364E+02 -0.17530421631E+02 -0.14158762682E+01  0.31886049900E+02  0.00000000000E+00 0. -1.
         11    1    3    3    0    0  0.22553669424E+01 -0.15136351529E+02 -0.14613542319E+01  0.15373073021E+02  0.51100000000E-03 0. -1.
        -11    1    3    3    0    0  0.18911824660E+02  0.26705234965E+02 -0.44608294346E+01  0.33026136408E+02  0.51100000000E-03 0.  1.
         12    1    3    3    0    0  0.54297967616E+01  0.59615381953E+01  0.73380599347E+01  0.10902740671E+02  0.00000000000E+00 0. -1.
</event>
<event>
 7    1  0.4346085E-013  0.5930194E+02  0.7816164E-02  0.1266605E+00
        -11   -1    0    0    0    0  0.00000000000E+00  0.00000000000E+00  0.45593999997E+02  0.45594000000E+02  0.51100000000E-03 0.  1.
         11   -1    0    0    0    0 -0.00000000000E+00 -0.00000000000E+00 -0.45593999997E+02  0.45594000000E+02  0.51100000000E-03 0. -1.
    9900012    2    1    2    0    0 -0.27368191270E+02 -0.16357926948E+02 -0.34774887371E+00  0.59301943538E+02  0.49999999107E+02 0.  0.
         12    1    1    2    0    0  0.27368191270E+02  0.16357926948E+02  0.34774887371E+00  0.31886056462E+02  0.00000000000E+00 0. -1.
         11    1    3    3    0    0 -0.12104729366E+02 -0.22366312907E+02  0.42715078977E+01  0.25788024470E+02  0.51100000000E-03 0. -1.
        -11    1    3    3    0    0 -0.98468962238E+01  0.17684784207E+02 -0.39626679104E+01  0.20625607746E+02  0.51100000000E-03 0.  1.
        -12    1    3    3    0    0 -0.54165656807E+01 -0.11676398247E+02 -0.65658886101E+00  0.12888311322E+02  0.00000000000E+00 0.  1.
</event>
<event>
 7    1  0.4346085E-013  0.5930192E+02  0.7816164E-02  0.1266605E+00
        -11   -1    0    0    0    0  0.00000000000E+00  0.00000000000E+00  0.45593999997E+02  0.45594000000E+02  0.51100000000E-03 0. -1.
         11   -1    0    0    0    0 -0.00000000000E+00 -0.00000000000E+00 -0.45593999997E+02  0.45594000000E+02  0.51100000000E-03 0.  1.
    9900012    2    1    2    0    0 -0.24458871903E+02  0.91885760888E+01 -0.18277192078E+02  0.59301920035E+02  0.49999956243E+02 0.  0.
         12    1    1    2    0    0  0.24458871903E+02 -0.91885760888E+01  0.18277192078E+02  0.31886079965E+02  0.00000000000E+00 0. -1.
         11    1    3    3    0    0 -0.13702121376E+02  0.73948628728E+01  0.17688693327E+01  0.15670386916E+02  0.51100000000E-03 0. -1.
        -11    1    3    3    0    0 -0.17156133969E+02  0.55714107011E+00 -0.28309526019E+02  0.33106987217E+02  0.51100000000E-03 0.  1.
         12    1    3    3    0    0  0.63993834423E+01  0.12365721459E+01  0.82634646080E+01  0.10524545902E+02  0.00000000000E+00 0. -1.
</event>
<event>
 7    1  0.4346085E-013  0.5930195E+02  0.7816164E-02  0.1266605E+00
        -11   -1    0    0    0    0  0.00000000000E+00  0.00000000000E+00  0.45593999997E+02  0.45594000000E+02  0.51100000000E-03 0.  1.
         11   -1    0    0    0    0 -0.00000000000E+00 -0.00000000000E+00 -0.45593999997E+02  0.45594000000E+02  0.51100000000E-03 0. -1.
    9900012    2    1    2    0    0 -0.49629800558E+01  0.25825088560E+02  0.18032028480E+02  0.59301946289E+02  0.50000004124E+02 0.  0.
         12    1    1    2    0    0  0.49629800558E+01 -0.25825088560E+02 -0.18032028480E+02  0.31886053711E+02  0.00000000000E+00 0. -1.
         11    1    3    3    0    0  0.10846884123E+02  0.25411478751E+02 -0.53198293614E+01  0.28137141507E+02  0.51100000000E-03 0. -1.
        -11    1    3    3    0    0 -0.17392744102E+02  0.29561231700E+01  0.19850571412E+02  0.26557322855E+02  0.51100000000E-03 0.  1.
         12    1    3    3    0    0  0.15828799234E+01 -0.25425133612E+01  0.35012864291E+01  0.46074819264E+01  0.00000000000E+00 0. -1.
</event>
<event>
 7    1  0.4346085E-013  0.5930198E+02  0.7816164E-02  0.1266605E+00
        -11   -1    0    0    0    0  0.00000000000E+00  0.00000000000E+00  0.45593999997E+02  0.45594000000E+02  0.51100000000E-03 0. -1.
         11   -1    0    0    0    0 -0.00000000000E+00 -0.00000000000E+00 -0.45593999997E+02  0.45594000000E+02  0.51100000000E-03 0.  1.
    9900012    2    1    2    0    0  0.53270673898E+01  0.30531052345E+02  0.74963491526E+01  0.59301983396E+02  0.50000071798E+02 0.  0.
         12    1    1    2    0    0 -0.53270673898E+01 -0.30531052345E+02 -0.74963491526E+01  0.31886016604E+02  0.00000000000E+00 0. -1.
         11    1    3    3    0    0  0.13176029463E+02  0.68809885841E+01  0.24061558507E+02  0.28282757191E+02  0.51100000000E-03 0. -1.
        -11    1    3    3    0    0  0.42186249866E+00  0.11614745653E+02 -0.73524306525E+01  0.13752764134E+02  0.51100000000E-03 0.  1.
         12    1    3    3    0    0 -0.82708245717E+01  0.12035318108E+02 -0.92127787018E+01  0.17266462071E+02  0.00000000000E+00 0. -1.
</event>
<event>
 7    1  0.4346085E-013  0.5930194E+02  0.7816164E-02  0.1266605E+00
        -11   -1    0    0    0    0  0.00000000000E+00  0.00000000000E+00  0.45593999997E+02  0.45594000000E+02  0.51100000000E-03 0. -1.
         11   -1    0    0    0    0 -0.00000000000E+00 -0.00000000000E+00 -0.45593999997E+02  0.45594000000E+02  0.51100000000E-03 0.  1.
    9900012    2    1    2    0    0 -0.22066994873E+02 -0.62229536340E+01 -0.22159493751E+02  0.59301943832E+02  0.49999999643E+02 0.  0.
         12    1    1    2    0    0  0.22066994873E+02  0.62229536340E+01  0.22159493751E+02  0.31886056168E+02  0.00000000000E+00 0. -1.
         11    1    3    3    0    0 -0.10638269688E+02  0.10282262558E+02 -0.13668045455E+01  0.14858191687E+02  0.51100000000E-03 0. -1.
        -11    1    3    3    0    0 -0.20486187141E+02 -0.19582766776E+02 -0.20308436003E+02  0.34865472768E+02  0.51100000000E-03 0.  1.
        -12    1    3    3    0    0  0.90574619559E+01  0.30775505838E+01 -0.48425320198E+00  0.95782793779E+01  0.00000000000E+00 0.  1.
</event>
<event>
 7    1  0.4346085E-013  0.5930196E+02  0.7816164E-02  0.1266605E+00
        -11   -1    0    0    0    0  0.00000000000E+00  0.00000000000E+00  0.45593999997E+02  0.45594000000E+02  0.51100000000E-03 0.  1.
         11   -1    0    0    0    0 -0.00000000000E+00 -0.00000000000E+00 -0.45593999997E+02  0.45594000000E+02  0.51100000000E-03 0. -1.
    9900012    2    1    2    0    0  0.22624119299E+02 -0.18506495313E+02  0.12742790101E+02  0.59301955366E+02  0.50000020679E+02 0.  0.
         12    1    1    2    0    0 -0.22624119299E+02  0.18506495313E+02 -0.12742790101E+02  0.31886044634E+02  0.00000000000E+00 0. -1.
         11    1    3    3    0    0  0.14362204076E+02 -0.31977726816E+02  0.83891894872E+00  0.35064964046E+02  0.51100000000E-03 0.  1.
        -11    1    3    3    0    0 -0.32845975701E+01  0.71796513845E+01  0.54141530442E+01  0.95733499177E+01  0.51100000000E-03 0. -1.
        -12    1    3    3    0    0  0.11546512793E+02  0.62915801184E+01  0.64897181080E+01  0.14663641403E+02  0.00000000000E+00 0.  1.
</event>
<event>
 7    1  0.4346085E-013  0.5930208E+02  0.7816164E-02  0.1266604E+00
        -11   -1    0    0    0    0  0.00000000000E+00  0.00000000000E+00  0.45593999997E+02  0.45594000000E+02  0.51100000000E-03 0. -1.
         11   -1    0    0    0    0 -0.00000000000E+00 -0.00000000000E+00 -0.45593999997E+02  0.45594000000E+02  0.51100000000E-03 0.  1.
    9900012    2    1    2    0    0  0.23239435391E+02  0.21673108816E+02  0.26300489619E+01  0.59302075824E+02  0.50000240364E+02 0.  0.
         12    1    1    2    0    0 -0.23239435391E+02 -0.21673108816E+02 -0.26300489619E+01  0.31885924176E+02  0.00000000000E+00 0. -1.
         11    1    3    3    0    0  0.16977981022E+02 -0.27172938743E+00  0.18947681406E+02  0.25442883236E+02  0.51100000000E-03 0. -1.
        -11    1    3    3    0    0 -0.52101829811E+01  0.35843804079E+00 -0.28469339188E+01  0.59480683860E+01  0.51100000000E-03 0.  1.
         12    1    3    3    0    0  0.11471637349E+02  0.21586400163E+02 -0.13470698525E+02  0.27911124202E+02  0.00000000000E+00 0. -1.
</event>
<event>
 7    1  0.4346085E-013  0.5930196E+02  0.7816164E-02  0.1266605E+00
        -11   -1    0    0    0    0  0.00000000000E+00  0.00000000000E+00  0.45593999997E+02  0.45594000000E+02  0.51100000000E-03 0.  1.
         11   -1    0    0    0    0 -0.00000000000E+00 -0.00000000000E+00 -0.45593999997E+02  0.45594000000E+02  0.51100000000E-03 0. -1.
    9900012    2    1    2    0    0 -0.21565191742E+01 -0.22826185440E+02  0.22159289509E+02  0.59301961860E+02  0.50000032522E+02 0.  0.
         12    1    1    2    0    0  0.21565191742E+01  0.22826185440E+02 -0.22159289509E+02  0.31886038140E+02  0.00000000000E+00 0. -1.
         11    1    3    3    0    0  0.41074378689E+01 -0.29645865881E+02  0.48023853465E+01  0.30311900550E+02  0.51100000000E-03 0. -1.
        -11    1    3    3    0    0 -0.99697789860E+01 -0.16654821611E+01  0.16933967796E+02  0.19721297864E+02  0.51100000000E-03 0.  1.
         12    1    3    3    0    0  0.37058219428E+01  0.84851626020E+01  0.42293636702E+00  0.92687634464E+01  0.00000000000E+00 0. -1.
</event>
<event>
 7    1  0.4346085E-013  0.5930176E+02  0.7816164E-02  0.1266605E+00
        -11   -1    0    0    0    0  0.00000000000E+00  0.00000000000E+00  0.45593999997E+02  0.45594000000E+02  0.51100000000E-03 0.  1.
         11   -1    0    0    0    0 -0.00000000000E+00 -0.00000000000E+00 -0.45593999997E+02  0.45594000000E+02  0.51100000000E-03 0. -1.
    9900012    2    1    2    0    0  0.13881067780E+02  0.11613901522E+02  0.26251962930E+02  0.59301759881E+02  0.49999664159E+02 0.  0.
         12    1    1    2    0    0 -0.13881067780E+02 -0.11613901522E+02 -0.26251962930E+02  0.31886240119E+02  0.00000000000E+00 0. -1.
         11    1    3    3    0    0  0.11441643534E+02  0.88841971510E+01 -0.12833985889E+02  0.19353329425E+02  0.51100000000E-03 0. -1.
        -11    1    3    3    0    0 -0.87538823186E-01  0.48375793028E+01  0.19719411105E+02  0.20304310162E+02  0.51100000000E-03 0.  1.
         12    1    3    3    0    0  0.25269630686E+01 -0.21078749319E+01  0.19366537714E+02  0.19644120294E+02  0.00000000000E+00 0. -1.
</event>
<event>
 7    1  0.4346085E-013  0.5930191E+02  0.7816164E-02  0.1266605E+00
        -11   -1    0    0    0    0  0.00000000000E+00  0.00000000000E+00  0.45593999997E+02  0.45594000000E+02  0.51100000000E-03 0.  1.
         11   -1    0    0    0    0 -0.00000000000E+00 -0.00000000000E+00 -0.45593999997E+02  0.45594000000E+02  0.51100000000E-03 0. -1.
    9900012    2    1    2    0    0  0.20494231365E+02 -0.14188140312E+02  0.19884815694E+02  0.59301909930E+02  0.49999937815E+02 0.  0.
         12    1    1    2    0    0 -0.20494231365E+02  0.14188140312E+02 -0.19884815694E+02  0.31886090070E+02  0.00000000000E+00 0. -1.
         11    1    3    3    0    0  0.14114796846E+02 -0.79882337068E+01  0.65426116636E+01  0.17488428614E+02  0.51100000000E-03 0. -1.
        -11    1    3    3    0    0 -0.74143887833E+01 -0.19255342611E+02  0.67536060402E+01  0.21710655792E+02  0.51100000000E-03 0.  1.
        -12    1    3    3    0    0  0.13793823303E+02  0.13055436006E+02  0.65885979900E+01  0.20102825525E+02  0.00000000000E+00 0.  1.
</event>
<event>
 7    1  0.4346085E-013  0.5930194E+02  0.7816164E-02  0.1266605E+00
        -11   -1    0    0    0    0  0.00000000000E+00  0.00000000000E+00  0.45593999997E+02  0.45594000000E+02  0.51100000000E-03 0.  1.
         11   -1    0    0    0    0 -0.00000000000E+00 -0.00000000000E+00 -0.45593999997E+02  0.45594000000E+02  0.51100000000E-03 0. -1.
    9900012    2    1    2    0    0 -0.22587459142E+01  0.13225797981E+02  0.28925720636E+02  0.59301937533E+02  0.49999988155E+02 0.  0.
         12    1    1    2    0    0  0.22587459142E+01 -0.13225797981E+02 -0.28925720636E+02  0.31886062467E+02  0.00000000000E+00 0. -1.
         11    1    3    3    0    0 -0.14350386819E+02  0.16054808488E+00 -0.76246761332E+01  0.16251001937E+02  0.51100000000E-03 0. -1.
        -11    1    3    3    0    0  0.14178682487E+02  0.60344052519E+01  0.24379018766E+02  0.28840694168E+02  0.51100000000E-03 0.  1.
        -12    1    3    3    0    0 -0.20870415822E+01  0.70308446445E+01  0.12171378003E+02  0.14210241429E+02  0.00000000000E+00 0.  1.
</event>
<event>
 7    1  0.4346085E-013  0.5930196E+02  0.7816164E-02  0.1266605E+00
        -11   -1    0    0    0    0  0.00000000000E+00  0.00000000000E+00  0.45593999997E+02  0.45594000000E+02  0.51100000000E-03 0.  1.
         11   -1    0    0    0    0 -0.00000000000E+00 -0.00000000000E+00 -0.45593999997E+02  0.45594000000E+02  0.51100000000E-03 0. -1.
    9900012    2    1    2    0    0 -0.26377571525E+02  0.17644599625E+02  0.31002690037E+01  0.59301955350E+02  0.50000020650E+02 0.  0.
         12    1    1    2    0    0  0.26377571525E+02 -0.17644599625E+02 -0.31002690037E+01  0.31886044650E+02  0.00000000000E+00 0. -1.
         11    1    3    3    0    0 -0.25437157315E+02  0.21618918983E+02 -0.11812386753E+02  0.35411285084E+02  0.51100000000E-03 0. -1.
        -11    1    3    3    0    0 -0.12018657804E+01 -0.11162056630E+02  0.10933174910E+02  0.15670682929E+02  0.51100000000E-03 0.  1.
         12    1    3    3    0    0  0.26145157019E+00  0.71877372724E+01  0.39794808463E+01  0.82199873374E+01  0.00000000000E+00 0. -1.
</event>
<event>
 7    1  0.4346085E-013  0.5930193E+02  0.7816164E-02  0.1266605E+00
        -11   -1    0    0    0    0  0.00000000000E+00  0.00000000000E+00  0.45593999997E+02  0.45594000000E+02  0.51100000000E-03 0.  1.
         11   -1    0    0    0    0 -0.00000000000E+00 -0.00000000000E+00 -0.45593999997E+02  0.45594000000E+02  0.51100000000E-03 0. -1.
    9900012    2    1    2    0    0  0.17901749033E+01 -0.22257833854E+02  0.22761938693E+02  0.59301925499E+02  0.49999966208E+02 0.  0.
         12    1    1    2    0    0 -0.17901749033E+01  0.22257833854E+02 -0.22761938693E+02  0.31886074501E+02  0.00000000000E+00 0. -1.
         11    1    3    3    0    0  0.95403562496E+01  0.52428725842E+00 -0.47818062093E+01  0.10684518959E+02  0.51100000000E-03 0. -1.
        -11    1    3    3    0    0 -0.86628560441E+01 -0.27865598051E+02  0.10833452127E+02  0.31127163617E+02  0.51100000000E-03 0.  1.
        -12    1    3    3    0    0  0.91267469778E+00  0.50834769387E+01  0.16710292775E+02  0.17490242923E+02  0.00000000000E+00 0.  1.
</event>
<event>
 7    1  0.4346085E-013  0.5930194E+02  0.7816164E-02  0.1266605E+00
        -11   -1    0    0    0    0  0.00000000000E+00  0.00000000000E+00  0.45593999997E+02  0.45594000000E+02  0.51100000000E-03 0.  1.
         11   -1    0    0    0    0 -0.00000000000E+00 -0.00000000000E+00 -0.45593999997E+02  0.45594000000E+02  0.51100000000E-03 0. -1.
    9900012    2    1    2    0    0 -0.10793626271E+02 -0.12635177327E+02  0.27213434094E+02  0.59301936126E+02  0.49999985590E+02 0.  0.
         12    1    1    2    0    0  0.10793626271E+02  0.12635177327E+02 -0.27213434094E+02  0.31886063874E+02  0.00000000000E+00 0. -1.
         11    1    3    3    0    0 -0.14849399587E+02 -0.14043790388E+02 -0.68498649452E+00  0.20449985901E+02  0.51100000000E-03 0. -1.
        -11    1    3    3    0    0  0.88091736124E+01 -0.84203912649E+01  0.24589403443E+02  0.27443456246E+02  0.51100000000E-03 0.  1.
         12    1    3    3    0    0 -0.47534002963E+01  0.98290043258E+01  0.33090171454E+01  0.11408493980E+02  0.00000000000E+00 0. -1.
</event>
<event>
 7    1  0.4346085E-013  0.5930194E+02  0.7816164E-02  0.1266605E+00
        -11   -1    0    0    0    0  0.00000000000E+00  0.00000000000E+00  0.45593999997E+02  0.45594000000E+02  0.51100000000E-03 0.  1.
         11   -1    0    0    0    0 -0.00000000000E+00 -0.00000000000E+00 -0.45593999997E+02  0.45594000000E+02  0.51100000000E-03 0. -1.
    9900012    2    1    2    0    0 -0.11660423613E+02 -0.24692563985E+02  0.16463059160E+02  0.59301944868E+02  0.50000001532E+02 0.  0.
         12    1    1    2    0    0  0.11660423613E+02  0.24692563985E+02 -0.16463059160E+02  0.31886055132E+02  0.00000000000E+00 0. -1.
         11    1    3    3    0    0  0.10162636526E+02  0.74573421920E+01  0.58337496720E+01  0.13889700113E+02  0.51100000000E-03 0.  1.
        -11    1    3    3    0    0 -0.93800271417E+01 -0.97984837613E+01 -0.60719779154E+01  0.14861497544E+02  0.51100000000E-03 0. -1.
         12    1    3    3    0    0 -0.12443032998E+02 -0.22351422416E+02  0.16701287403E+02  0.30550747210E+02  0.00000000000E+00 0. -1.
</event>
<event>
 7    1  0.4346085E-013  0.5930198E+02  0.7816164E-02  0.1266605E+00
        -11   -1    0    0    0    0  0.00000000000E+00  0.00000000000E+00  0.45593999997E+02  0.45594000000E+02  0.51100000000E-03 0. -1.
         11   -1    0    0    0    0 -0.00000000000E+00 -0.00000000000E+00 -0.45593999997E+02  0.45594000000E+02  0.51100000000E-03 0.  1.
    9900012    2    1    2    0    0 -0.25485205787E+02 -0.11443760620E+02  0.15370853303E+02  0.59301976378E+02  0.50000059000E+02 0.  0.
         12    1    1    2    0    0  0.25485205787E+02  0.11443760620E+02 -0.15370853303E+02  0.31886023622E+02  0.00000000000E+00 0. -1.
         11    1    3    3    0    0  0.22475899914E+00 -0.24113951094E+02  0.27554270523E+01  0.24271908299E+02  0.51100000000E-03 0. -1.
        -11    1    3    3    0    0 -0.18075521699E+02  0.53793773182E+01  0.15130112628E+02  0.24178140818E+02  0.51100000000E-03 0.  1.
        -12    1    3    3    0    0 -0.76344430863E+01  0.72908131554E+01 -0.25146863767E+01  0.10851927261E+02  0.00000000000E+00 0.  1.
</event>
<event>
 7    1  0.4346085E-013  0.5930194E+02  0.7816164E-02  0.1266605E+00
        -11   -1    0    0    0    0  0.00000000000E+00  0.00000000000E+00  0.45593999997E+02  0.45594000000E+02  0.51100000000E-03 0.  1.
         11   -1    0    0    0    0 -0.00000000000E+00 -0.00000000000E+00 -0.45593999997E+02  0.45594000000E+02  0.51100000000E-03 0. -1.
    9900012    2    1    2    0    0  0.21844134325E+02 -0.15420198425E+02  0.17371583903E+02  0.59301942684E+02  0.49999997549E+02 0.  0.
         12    1    1    2    0    0 -0.21844134325E+02  0.15420198425E+02 -0.17371583903E+02  0.31886057316E+02  0.00000000000E+00 0. -1.
         11    1    3    3    0    0 -0.61048254046E+01  0.42902458172E+01 -0.56531268236E+01  0.93612470076E+01  0.51100000000E-03 0. -1.
        -11    1    3    3    0    0  0.51924850721E+01 -0.18428085695E+02  0.18658280187E+02  0.26733642913E+02  0.51100000000E-03 0.  1.
         12    1    3    3    0    0  0.22756474657E+02 -0.12823585475E+01  0.43664305397E+01  0.23207052763E+02  0.00000000000E+00 0. -1.
</event>
<event>
 7    1  0.4346085E-013  0.5930193E+02  0.7816164E-02  0.1266605E+00
        -11   -1    0    0    0    0  0.00000000000E+00  0.00000000000E+00  0.45593999997E+02  0.45594000000E+02  0.51100000000E-03 0.  1.
         11   -1    0    0    0    0 -0.00000000000E+00 -0.00000000000E+00 -0.45593999997E+02  0.45594000000E+02  0.51100000000E-03 0. -1.
    9900012    2    1    2    0    0  0.56487325935E+01 -0.63434825851E+01  0.30733911123E+02  0.59301933385E+02  0.49999980591E+02 0.  0.
         12    1    1    2    0    0 -0.56487325935E+01  0.63434825851E+01 -0.30733911123E+02  0.31886066615E+02  0.00000000000E+00 0. -1.
         11    1    3    3    0    0  0.15109020266E+02  0.11490351591E+02  0.77585076275E+01  0.20506221348E+02  0.51100000000E-03 0. -1.
        -11    1    3    3    0    0 -0.15384971754E+02 -0.12229357297E+02  0.23485962751E+02  0.30624254805E+02  0.51100000000E-03 0.  1.
         12    1    3    3    0    0  0.59246840815E+01 -0.56044768793E+01 -0.51055925478E+00  0.81714572329E+01  0.00000000000E+00 0. -1.
</event>
<event>
 7    1  0.4346085E-013  0.5930190E+02  0.7816164E-02  0.1266605E+00
        -11   -1    0    0    0    0  0.00000000000E+00  0.00000000000E+00  0.45593999997E+02  0.45594000000E+02  0.51100000000E-03 0.  1.
         11   -1    0    0    0    0 -0.00000000000E+00 -0.00000000000E+00 -0.45593999997E+02  0.45594000000E+02  0.51100000000E-03 0. -1.
    9900012    2    1    2    0    0  0.29663010768E+02 -0.73199543829E+01  0.91240063872E+01  0.59301899069E+02  0.49999918006E+02 0.  0.
         12    1    1    2    0    0 -0.29663010768E+02  0.73199543829E+01 -0.91240063872E+01  0.31886100931E+02  0.00000000000E+00 0. -1.
         11    1    3    3    0    0  0.12319957495E+02 -0.74938869554E+01 -0.12625031035E+02  0.19165883838E+02  0.51100000000E-03 0. -1.
        -11    1    3    3    0    0  0.20777527047E+02  0.65923587463E+01  0.57273826185E+01  0.22538139585E+02  0.51100000000E-03 0.  1.
         12    1    3    3    0    0 -0.34344737736E+01 -0.64184261737E+01  0.16021654803E+02  0.17597875647E+02  0.00000000000E+00 0. -1.
</event>
<event>
 7    1  0.4346085E-013  0.5930197E+02  0.7816164E-02  0.1266605E+00
        -11   -1    0    0    0    0  0.00000000000E+00  0.00000000000E+00  0.45593999997E+02  0.45594000000E+02  0.51100000000E-03 0.  1.
         11   -1    0    0    0    0 -0.00000000000E+00 -0.00000000000E+00 -0.45593999997E+02  0.45594000000E+02  0.51100000000E-03 0. -1.
    9900012    2    1    2    0    0 -0.27352848452E+02  0.16075274724E+02 -0.31821136935E+01  0.59301974480E+02  0.50000055537E+02 0.  0.
         12    1    1    2    0    0  0.27352848452E+02 -0.16075274724E+02  0.31821136935E+01  0.31886025520E+02  0.00000000000E+00 0. -1.
         11    1    3    3    0    0  0.60979334924E+00  0.66234429522E+00  0.41690030448E+01  0.42651066273E+01  0.51100000000E-03 0. -1.
        -11    1    3    3    0    0 -0.27051134276E+02 -0.61135050361E+01  0.76669009729E+01  0.28773602142E+02  0.51100000000E-03 0.  1.
        -12    1    3    3    0    0 -0.91150752587E+00  0.21526435465E+02 -0.15018017711E+02  0.26263265711E+02  0.00000000000E+00 0.  1.
</event>
<event>
 7    1  0.4346085E-013  0.5930195E+02  0.7816164E-02  0.1266605E+00
        -11   -1    0    0    0    0  0.00000000000E+00  0.00000000000E+00  0.45593999997E+02  0.45594000000E+02  0.51100000000E-03 0.  1.
         11   -1    0    0    0    0 -0.00000000000E+00 -0.00000000000E+00 -0.45593999997E+02  0.45594000000E+02  0.51100000000E-03 0. -1.
    9900012    2    1    2    0    0  0.22206469303E+01  0.18030027988E+02  0.26205093993E+02  0.59301950806E+02  0.50000012362E+02 0.  0.
         12    1    1    2    0    0 -0.22206469303E+01 -0.18030027988E+02 -0.26205093993E+02  0.31886049194E+02  0.00000000000E+00 0. -1.
         11    1    3    3    0    0 -0.77318092681E+01 -0.14012261642E+02  0.66423832890E+01  0.17327596685E+02  0.51100000000E-03 0. -1.
        -11    1    3    3    0    0  0.59150762162E+01  0.82728871837E+01 -0.10899248153E+01  0.10228231781E+02  0.51100000000E-03 0.  1.
         12    1    3    3    0    0  0.40373799822E+01  0.23769402446E+02  0.20652635519E+02  0.31746122340E+02  0.00000000000E+00 0. -1.
</event>
<event>
 7    1  0.4346085E-013  0.5930194E+02  0.7816164E-02  0.1266605E+00
        -11   -1    0    0    0    0  0.00000000000E+00  0.00000000000E+00  0.45593999997E+02  0.45594000000E+02  0.51100000000E-03 0. -1.
         11   -1    0    0    0    0 -0.00000000000E+00 -0.00000000000E+00 -0.45593999997E+02  0.45594000000E+02  0.51100000000E-03 0.  1.
    9900012    2    1    2    0    0 -0.10468965410E+02 -0.28293259189E+02 -0.10325354821E+02  0.59301941848E+02  0.49999996025E+02 0.  0.
         12    1    1    2    0    0  0.10468965410E+02  0.28293259189E+02  0.10325354821E+02  0.31886058152E+02  0.00000000000E+00 0. -1.
         11    1    3    3    0    0 -0.18582204005E+02  0.55934363481E+01  0.62055426274E+01  0.20373845868E+02  0.51100000000E-03 0. -1.
        -11    1    3    3    0    0  0.39748952597E+01 -0.13243317501E+02 -0.38617952480E+01  0.14356138532E+02  0.51100000000E-03 0.  1.
         12    1    3    3    0    0  0.41383433356E+01 -0.20643378036E+02 -0.12669102200E+02  0.24571957448E+02  0.00000000000E+00 0. -1.
</event>
<event>
 7    1  0.4346085E-013  0.5930194E+02  0.7816164E-02  0.1266605E+00
        -11   -1    0    0    0    0  0.00000000000E+00  0.00000000000E+00  0.45593999997E+02  0.45594000000E+02  0.51100000000E-03 0.  1.
         11   -1    0    0    0    0 -0.00000000000E+00 -0.00000000000E+00 -0.45593999997E+02  0.45594000000E+02  0.51100000000E-03 0. -1.
    9900012    2    1    2    0    0  0.35062002400E+01 -0.21834828882E+02  0.22971016812E+02  0.59301940258E+02  0.49999993126E+02 0.  0.
         12    1    1    2    0    0 -0.35062002400E+01  0.21834828882E+02 -0.22971016812E+02  0.31886059742E+02  0.00000000000E+00 0. -1.
         11    1    3    3    0    0  0.37803503856E+01  0.30175887186E+01 -0.39949582388E+01  0.62734824701E+01  0.51100000000E-03 0. -1.
        -11    1    3    3    0    0  0.51485640667E+01 -0.23311228569E+02 -0.15856283482E+01  0.23925620302E+02  0.51100000000E-03 0.  1.
        -12    1    3    3    0    0 -0.54227142123E+01 -0.15411890322E+01  0.28551603399E+02  0.29102837486E+02  0.00000000000E+00 0.  1.
</event>
<event>
 7    1  0.4346085E-013  0.5930184E+02  0.7816164E-02  0.1266605E+00
        -11   -1    0    0    0    0  0.00000000000E+00  0.00000000000E+00  0.45593999997E+02  0.45594000000E+02  0.51100000000E-03 0.  1.
         11   -1    0    0    0    0 -0.00000000000E+00 -0.00000000000E+00 -0.45593999997E+02  0.45594000000E+02  0.51100000000E-03 0. -1.
    9900012    2    1    2    0    0 -0.14993202733E+02  0.22086066072E+02  0.17439509685E+02  0.59301844058E+02  0.49999817678E+02 0.  0.
         12    1    1    2    0    0  0.14993202733E+02 -0.22086066072E+02 -0.17439509685E+02  0.31886155942E+02  0.00000000000E+00 0. -1.
         11    1    3    3    0    0  0.83263969907E+00 -0.55821187402E+01  0.11996546573E+01  0.57699662092E+01  0.51100000000E-03 0. -1.
        -11    1    3    3    0    0 -0.17261958382E+02  0.11677571791E+02  0.27071730957E+02  0.34164594354E+02  0.51100000000E-03 0.  1.
        -12    1    3    3    0    0  0.14361159497E+01  0.15990613021E+02 -0.10831875929E+02  0.19367283495E+02  0.00000000000E+00 0.  1.
</event>
<event>
 7    1  0.4346085E-013  0.5930196E+02  0.7816164E-02  0.1266605E+00
        -11   -1    0    0    0    0  0.00000000000E+00  0.00000000000E+00  0.45593999997E+02  0.45594000000E+02  0.51100000000E-03 0. -1.
         11   -1    0    0    0    0 -0.00000000000E+00 -0.00000000000E+00 -0.45593999997E+02  0.45594000000E+02  0.51100000000E-03 0.  1.
    9900012    2    1    2    0    0 -0.13129034755E+02  0.25588697276E+02 -0.13768308793E+02  0.59301963731E+02  0.50000035934E+02 0.  0.
         12    1    1    2    0    0  0.13129034755E+02 -0.25588697276E+02  0.13768308793E+02  0.31886036269E+02  0.00000000000E+00 0. -1.
         11    1    3    3    0    0  0.45772341977E+01 -0.38951595027E+01  0.18468306293E+01  0.62876167254E+01  0.51100000000E-03 0. -1.
        -11    1    3    3    0    0 -0.25300887433E+02  0.61633680979E+01 -0.96687186235E+01  0.27777799252E+02  0.51100000000E-03 0.  1.
        -12    1    3    3    0    0  0.75946184802E+01  0.23320488681E+02 -0.59464207992E+01  0.25236547753E+02  0.00000000000E+00 0.  1.
</event>
<event>
 7    1  0.4346085E-013  0.5930196E+02  0.7816164E-02  0.1266605E+00
        -11   -1    0    0    0    0  0.00000000000E+00  0.00000000000E+00  0.45593999997E+02  0.45594000000E+02  0.51100000000E-03 0.  1.
         11   -1    0    0    0    0 -0.00000000000E+00 -0.00000000000E+00 -0.45593999997E+02  0.45594000000E+02  0.51100000000E-03 0. -1.
    9900012    2    1    2    0    0  0.21540635057E+02 -0.92399888739E+01  0.21618122506E+02  0.59301959578E+02  0.50000028361E+02 0.  0.
         12    1    1    2    0    0 -0.21540635057E+02  0.92399888739E+01 -0.21618122506E+02  0.31886040422E+02  0.00000000000E+00 0. -1.
         11    1    3    3    0    0  0.21331729072E+02  0.58891076757E+01  0.48577767886E+01  0.22656616032E+02  0.51100000000E-03 0. -1.
        -11    1    3    3    0    0 -0.12654407500E+02 -0.14874568779E+02  0.12032406573E+02  0.22938300585E+02  0.51100000000E-03 0.  1.
        -12    1    3    3    0    0  0.12863313485E+02 -0.25452777043E+00  0.47279391447E+01  0.13707042962E+02  0.00000000000E+00 0.  1.
</event>
<event>
 7    1  0.4346085E-013  0.5930194E+02  0.7816164E-02  0.1266605E+00
        -11   -1    0    0    0    0  0.00000000000E+00  0.00000000000E+00  0.45593999997E+02  0.45594000000E+02  0.51100000000E-03 0. -1.
         11   -1    0    0    0    0 -0.00000000000E+00 -0.00000000000E+00 -0.45593999997E+02  0.45594000000E+02  0.51100000000E-03 0.  1.
    9900012    2    1    2    0    0 -0.11748323985E+02  0.28727194977E+02 -0.73106559866E+01  0.59301944448E+02  0.50000000767E+02 0.  0.
         12    1    1    2    0    0  0.11748323985E+02 -0.28727194977E+02  0.73106559866E+01  0.31886055552E+02  0.00000000000E+00 0. -1.
         11    1    3    3    0    0 -0.35556319089E+01 -0.52458156147E+01 -0.13979968878E+01  0.64896452364E+01  0.51100000000E-03 0. -1.
        -11    1    3    3    0    0  0.12306980263E+02  0.80701989814E+01 -0.12284398385E+02  0.19170193498E+02  0.51100000000E-03 0.  1.
        -12    1    3    3    0    0 -0.20499672340E+02  0.25902811610E+02  0.63717392859E+01  0.33642105714E+02  0.00000000000E+00 0.  1.
</event>
<event>
 7    1  0.4346085E-013  0.5930202E+02  0.7816164E-02  0.1266605E+00
        -11   -1    0    0    0    0  0.00000000000E+00  0.00000000000E+00  0.45593999997E+02  0.45594000000E+02  0.51100000000E-03 0. -1.
         11   -1    0    0    0    0 -0.00000000000E+00 -0.00000000000E+00 -0.45593999997E+02  0.45594000000E+02  0.51100000000E-03 0.  1.
    9900012    2    1    2    0    0 -0.21593548431E+02 -0.23402527747E+02 -0.16602069377E+01  0.59302016781E+02  0.50000132683E+02 0.  0.
         12    1    1    2    0    0  0.21593548431E+02  0.23402527747E+02  0.16602069377E+01  0.31885983219E+02  0.00000000000E+00 0. -1.
         11    1    3    3    0    0  0.62404758635E+01 -0.21199372007E+02  0.66939483677E+01  0.23090384525E+02  0.51100000000E-03 0. -1.
        -11    1    3    3    0    0 -0.14021611198E+02 -0.14327947917E+01 -0.15240210149E+02  0.20758672577E+02  0.51100000000E-03 0.  1.
         12    1    3    3    0    0 -0.13812413096E+02 -0.77036094870E+00  0.68860548436E+01  0.15452959679E+02  0.00000000000E+00 0. -1.
</event>
<event>
 7    1  0.4346085E-013  0.5930219E+02  0.7816164E-02  0.1266604E+00
        -11   -1    0    0    0    0  0.00000000000E+00  0.00000000000E+00  0.45593999997E+02  0.45594000000E+02  0.51100000000E-03 0.  1.
         11   -1    0    0    0    0 -0.00000000000E+00 -0.00000000000E+00 -0.45593999997E+02  0.45594000000E+02  0.51100000000E-03 0. -1.
    9900012    2    1    2    0    0  0.18042626128E+02  0.19891792838E+02  0.17189682110E+02  0.59302188878E+02  0.50000446545E+02 0.  0.
         12    1    1    2    0    0 -0.18042626128E+02 -0.19891792838E+02 -0.17189682110E+02  0.31885811122E+02  0.00000000000E+00 0. -1.
         11    1    3    3    0    0  0.76020060568E+01 -0.50691741594E+00 -0.34331221713E+01  0.83566613823E+01  0.51100000000E-03 0. -1.
        -11    1    3    3    0    0 -0.45771336170E+01  0.26201295693E+02  0.22365639974E+02  0.34751689165E+02  0.51100000000E-03 0.  1.
        -12    1    3    3    0    0  0.15017753688E+02 -0.58025854390E+01 -0.17428356927E+01  0.16193838330E+02  0.00000000000E+00 0.  1.
</event>
<event>
 7    1  0.4346085E-013  0.5930193E+02  0.7816164E-02  0.1266605E+00
        -11   -1    0    0    0    0  0.00000000000E+00  0.00000000000E+00  0.45593999997E+02  0.45594000000E+02  0.51100000000E-03 0.  1.
         11   -1    0    0    0    0 -0.00000000000E+00 -0.00000000000E+00 -0.45593999997E+02  0.45594000000E+02  0.51100000000E-03 0. -1.
    9900012    2    1    2    0    0  0.12702340580E+02 -0.19856335295E+02  0.21473188513E+02  0.59301932000E+02  0.49999978065E+02 0.  0.
         12    1    1    2    0    0 -0.12702340580E+02  0.19856335295E+02 -0.21473188513E+02  0.31886068000E+02  0.00000000000E+00 0. -1.
         11    1    3    3    0    0 -0.91197007750E+01 -0.72135322826E+01  0.18521652923E+02  0.21869056164E+02  0.51100000000E-03 0. -1.
        -11    1    3    3    0    0  0.25813116937E+02 -0.15085057882E+02 -0.27883486530E+01  0.30027501824E+02  0.51100000000E-03 0.  1.
        -12    1    3    3    0    0 -0.39910755821E+01  0.24422548696E+01  0.57398842425E+01  0.74053740126E+01  0.00000000000E+00 0.  1.
</event>
<event>
 7    1  0.4346085E-013  0.5930191E+02  0.7816164E-02  0.1266605E+00
        -11   -1    0    0    0    0  0.00000000000E+00  0.00000000000E+00  0.45593999997E+02  0.45594000000E+02  0.51100000000E-03 0. -1.
         11   -1    0    0    0    0 -0.00000000000E+00 -0.00000000000E+00 -0.45593999997E+02  0.45594000000E+02  0.51100000000E-03 0.  1.
    9900012    2    1    2    0    0  0.15817456193E+02 -0.25947384995E+02  0.96573196706E+01  0.59301913195E+02  0.49999943768E+02 0.  0.
         12    1    1    2    0    0 -0.15817456193E+02  0.25947384995E+02 -0.96573196706E+01  0.31886086805E+02  0.00000000000E+00 0. -1.
         11    1    3    3    0    0  0.98653314644E+01 -0.56319669883E+01  0.16201109166E+02  0.19786858152E+02  0.51100000000E-03 0. -1.
        -11    1    3    3    0    0  0.61457238130E+01 -0.97876259269E+00 -0.16593390522E+02  0.17721978069E+02  0.51100000000E-03 0.  1.
         12    1    3    3    0    0 -0.19359908408E+00 -0.19336655414E+02  0.10049601026E+02  0.21793076974E+02  0.00000000000E+00 0. -1.
</event>
<event>
 7    1  0.4346085E-013  0.5930194E+02  0.7816164E-02  0.1266605E+00
        -11   -1    0    0    0    0  0.00000000000E+00  0.00000000000E+00  0.45593999997E+02  0.45594000000E+02  0.51100000000E-03 0. -1.
         11   -1    0    0    0    0 -0.00000000000E+00 -0.00000000000E+00 -0.45593999997E+02  0.45594000000E+02  0.51100000000E-03 0.  1.
    9900012    2    1    2    0    0 -0.35352278110E+01 -0.25924717970E+02 -0.18224491252E+02  0.59301938486E+02  0.49999989893E+02 0.  0.
         12    1    1    2    0    0  0.35352278110E+01  0.25924717970E+02  0.18224491252E+02  0.31886061514E+02  0.00000000000E+00 0. -1.
         11    1    3    3    0    0  0.12739620163E+02 -0.67711829256E+01  0.93370785972E+01  0.17185106258E+02  0.51100000000E-03 0. -1.
        -11    1    3    3    0    0 -0.11165371836E+02 -0.22479960008E+02 -0.25231380314E+02  0.35589839604E+02  0.51100000000E-03 0.  1.
         12    1    3    3    0    0 -0.51094761383E+01  0.33264249639E+01 -0.23301895349E+01  0.65269926243E+01  0.00000000000E+00 0. -1.
</event>
<event>
 7    1  0.4346085E-013  0.5930196E+02  0.7816164E-02  0.1266605E+00
        -11   -1    0    0    0    0  0.00000000000E+00  0.00000000000E+00  0.45593999997E+02  0.45594000000E+02  0.51100000000E-03 0. -1.
         11   -1    0    0    0    0 -0.00000000000E+00 -0.00000000000E+00 -0.45593999997E+02  0.45594000000E+02  0.51100000000E-03 0.  1.
    9900012    2    1    2    0    0 -0.18408051342E+02  0.23257277363E+02 -0.11703080874E+02  0.59301962201E+02  0.50000033144E+02 0.  0.
         12    1    1    2    0    0  0.18408051342E+02 -0.23257277363E+02  0.11703080874E+02  0.31886037799E+02  0.00000000000E+00 0. -1.
         11    1    3    3    0    0  0.45274370761E+00  0.19655504698E+02  0.11466094466E+02  0.22759946493E+02  0.51100000000E-03 0. -1.
        -11    1    3    3    0    0 -0.21234163235E+02  0.68088453564E+00 -0.11244053714E+02  0.24037097084E+02  0.51100000000E-03 0.  1.
        -12    1    3    3    0    0  0.23733681852E+01  0.29208881298E+01 -0.11925121626E+02  0.12504918624E+02  0.00000000000E+00 0.  1.
</event>
<event>
 7    1  0.4346085E-013  0.5930193E+02  0.7816164E-02  0.1266605E+00
        -11   -1    0    0    0    0  0.00000000000E+00  0.00000000000E+00  0.45593999997E+02  0.45594000000E+02  0.51100000000E-03 0. -1.
         11   -1    0    0    0    0 -0.00000000000E+00 -0.00000000000E+00 -0.45593999997E+02  0.45594000000E+02  0.51100000000E-03 0.  1.
    9900012    2    1    2    0    0  0.24577061778E+02 -0.17443244994E+02 -0.10412607746E+02  0.59301934679E+02  0.49999982951E+02 0.  0.
         12    1    1    2    0    0 -0.24577061778E+02  0.17443244994E+02  0.10412607746E+02  0.31886065321E+02  0.00000000000E+00 0. -1.
         11    1    3    3    0    0  0.17868559452E+02  0.10057269985E+02 -0.76876573384E+00  0.20518896107E+02  0.51100000000E-03 0. -1.
        -11    1    3    3    0    0  0.84934863290E+01 -0.22819945620E+02  0.36087539289E+01  0.24615286578E+02  0.51100000000E-03 0.  1.
        -12    1    3    3    0    0 -0.17849840028E+01 -0.46805693589E+01 -0.13252595941E+02  0.14167751995E+02  0.00000000000E+00 0.  1.
</event>
<event>
 7    1  0.4346085E-013  0.5930195E+02  0.7816164E-02  0.1266605E+00
        -11   -1    0    0    0    0  0.00000000000E+00  0.00000000000E+00  0.45593999997E+02  0.45594000000E+02  0.51100000000E-03 0.  1.
         11   -1    0    0    0    0 -0.00000000000E+00 -0.00000000000E+00 -0.45593999997E+02  0.45594000000E+02  0.51100000000E-03 0. -1.
    9900012    2    1    2    0    0  0.25209161067E+02  0.15818659839E+02 -0.11445029253E+02  0.59301945126E+02  0.50000002003E+02 0.  0.
         12    1    1    2    0    0 -0.25209161067E+02 -0.15818659839E+02  0.11445029253E+02  0.31886054874E+02  0.00000000000E+00 0. -1.
         11    1    3    3    0    0  0.13046623727E+02 -0.16607836141E+02 -0.10501475232E+02  0.23586343384E+02  0.51100000000E-03 0. -1.
        -11    1    3    3    0    0  0.19599717185E+01  0.16676763494E+02 -0.20568090817E+01  0.16917044471E+02  0.51100000000E-03 0.  1.
         12    1    3    3    0    0  0.10202565622E+02  0.15749732486E+02  0.11132550602E+01  0.18798557271E+02  0.00000000000E+00 0. -1.
</event>
<event>
 7    1  0.4346085E-013  0.5930197E+02  0.7816164E-02  0.1266605E+00
        -11   -1    0    0    0    0  0.00000000000E+00  0.00000000000E+00  0.45593999997E+02  0.45594000000E+02  0.51100000000E-03 0.  1.
         11   -1    0    0    0    0 -0.00000000000E+00 -0.00000000000E+00 -0.45593999997E+02  0.45594000000E+02  0.51100000000E-03 0. -1.
    9900012    2    1    2    0    0 -0.18595748039E+02  0.70627515159E+01  0.24920564927E+02  0.59301970765E+02  0.50000048762E+02 0.  0.
         12    1    1    2    0    0  0.18595748039E+02 -0.70627515159E+01 -0.24920564927E+02  0.31886029235E+02  0.00000000000E+00 0. -1.
         11    1    3    3    0    0 -0.26535275912E+02 -0.11563301026E+02  0.39127253698E+01  0.29208564128E+02  0.51100000000E-03 0. -1.
        -11    1    3    3    0    0  0.74192095891E+01  0.17369303673E+02  0.15539397288E+02  0.24458337011E+02  0.51100000000E-03 0.  1.
         12    1    3    3    0    0  0.52031828366E+00  0.12567488698E+01  0.54684422692E+01  0.56350696260E+01  0.00000000000E+00 0. -1.
</event>
<event>
 7    1  0.4346085E-013  0.5930194E+02  0.7816164E-02  0.1266605E+00
        -11   -1    0    0    0    0  0.00000000000E+00  0.00000000000E+00  0.45593999997E+02  0.45594000000E+02  0.51100000000E-03 0.  1.
         11   -1    0    0    0    0 -0.00000000000E+00 -0.00000000000E+00 -0.45593999997E+02  0.45594000000E+02  0.51100000000E-03 0. -1.
    9900012    2    1    2    0    0 -0.30623498505E+01  0.49508217737E+01  0.31350159398E+02  0.59301935377E+02  0.49999984224E+02 0.  0.
         12    1    1    2    0    0  0.30623498505E+01 -0.49508217737E+01 -0.31350159398E+02  0.31886064623E+02  0.00000000000E+00 0. -1.
         11    1    3    3    0    0 -0.18292861033E+02  0.90791370340E+01  0.15692161917E+02  0.25754678021E+02  0.51100000000E-03 0. -1.
        -11    1    3    3    0    0  0.71226681677E+01 -0.62323642942E+01  0.21394775715E+02  0.23394683043E+02  0.51100000000E-03 0.  1.
         12    1    3    3    0    0  0.81078430148E+01  0.21040490339E+01 -0.57367782342E+01  0.10152574314E+02  0.00000000000E+00 0. -1.
</event>
<event>
 7    1  0.4358437E-013  0.5930196E+02  0.7816164E-02  0.1266605E+00
        -11   -1    0    0    0    0  0.00000000000E+00  0.00000000000E+00  0.45593999997E+02  0.45594000000E+02  0.51100000000E-03 0.  1.
         11   -1    0    0    0    0 -0.00000000000E+00 -0.00000000000E+00 -0.45593999997E+02  0.45594000000E+02  0.51100000000E-03 0. -1.
    9900012    2    1    2    0    0 -0.22074964556E+02  0.11243677847E+02  0.20074744627E+02  0.59301957231E+02  0.50000024079E+02 0.  0.
         12    1    1    2    0    0  0.22074964556E+02 -0.11243677847E+02 -0.20074744627E+02  0.31886042769E+02  0.00000000000E+00 0. -1.
         11    1    3    3    0    0 -0.30486907150E+01  0.54883723391E+01 -0.13966950148E+02  0.15313146075E+02  0.51100000000E-03 0. -1.
        -11    1    3    3    0    0 -0.20478172047E+02  0.39474961655E+00  0.18934490356E+02  0.27893122503E+02  0.51100000000E-03 0.  1.
        -12    1    3    3    0    0  0.14518982064E+01  0.53605558909E+01  0.15107204418E+02  0.16095688653E+02  0.00000000000E+00 0.  1.
</event>
<event>
 7    1  0.4346085E-013  0.5930204E+02  0.7816164E-02  0.1266604E+00
        -11   -1    0    0    0    0  0.00000000000E+00  0.00000000000E+00  0.45593999997E+02  0.45594000000E+02  0.51100000000E-03 0.  1.
         11   -1    0    0    0    0 -0.00000000000E+00 -0.00000000000E+00 -0.45593999997E+02  0.45594000000E+02  0.51100000000E-03 0. -1.
    9900012    2    1    2    0    0 -0.11842591611E+02 -0.20696414611E+02  0.21168982735E+02  0.59302040961E+02  0.50000176782E+02 0.  0.
         12    1    1    2    0    0  0.11842591611E+02  0.20696414611E+02 -0.21168982735E+02  0.31885959039E+02  0.00000000000E+00 0. -1.
         11    1    3    3    0    0 -0.12682494813E+02 -0.96849590161E+00 -0.94656138871E+01  0.15855015153E+02  0.51100000000E-03 0. -1.
        -11    1    3    3    0    0  0.24367695976E+00 -0.19657259768E+02  0.86892951403E+01  0.21493512750E+02  0.51100000000E-03 0.  1.
         12    1    3    3    0    0  0.59622624183E+00 -0.70658940933E-01  0.21945301482E+02  0.21953513057E+02  0.00000000000E+00 0. -1.
</event>
<event>
 7    1  0.4346085E-013  0.5930198E+02  0.7816164E-02  0.1266605E+00
        -11   -1    0    0    0    0  0.00000000000E+00  0.00000000000E+00  0.45593999997E+02  0.45594000000E+02  0.51100000000E-03 0. -1.
         11   -1    0    0    0    0 -0.00000000000E+00 -0.00000000000E+00 -0.45593999997E+02  0.45594000000E+02  0.51100000000E-03 0.  1.
    9900012    2    1    2    0    0  0.31595351569E+02 -0.14971354233E+01 -0.40262418578E+01  0.59301979885E+02  0.50000065395E+02 0.  0.
         12    1    1    2    0    0 -0.31595351569E+02  0.14971354233E+01  0.40262418578E+01  0.31886020115E+02  0.00000000000E+00 0. -1.
         11    1    3    3    0    0 -0.87024888994E+01  0.70837916556E+01  0.70633538051E+01  0.13259124575E+02  0.51100000000E-03 0. -1.
        -11    1    3    3    0    0  0.16336911297E+02 -0.10786103078E+02 -0.67839184896E-01  0.19576498480E+02  0.51100000000E-03 0.  1.
         12    1    3    3    0    0  0.23960929172E+02  0.22051759988E+01 -0.11021756478E+02  0.26466356830E+02  0.00000000000E+00 0. -1.
</event>
<event>
 7    1  0.4346085E-013  0.5930194E+02  0.7816164E-02  0.1266605E+00
        -11   -1    0    0    0    0  0.00000000000E+00  0.00000000000E+00  0.45593999997E+02  0.45594000000E+02  0.51100000000E-03 0.  1.
         11   -1    0    0    0    0 -0.00000000000E+00 -0.00000000000E+00 -0.45593999997E+02  0.45594000000E+02  0.51100000000E-03 0. -1.
    9900012    2    1    2    0    0 -0.24554589333E+02  0.13791713046E+02  0.14952637375E+02  0.59301943949E+02  0.49999999856E+02 0.  0.
         12    1    1    2    0    0  0.24554589333E+02 -0.13791713046E+02 -0.14952637375E+02  0.31886056051E+02  0.00000000000E+00 0. -1.
         11    1    3    3    0    0 -0.14759210659E+01  0.26326486200E+02 -0.41228651199E+01  0.26688204055E+02  0.51100000000E-03 0. -1.
        -11    1    3    3    0    0 -0.11994477630E+02 -0.64544030929E+01  0.11838391987E+02  0.18046449458E+02  0.51100000000E-03 0.  1.
         12    1    3    3    0    0 -0.11084190636E+02 -0.60803700615E+01  0.72371105072E+01  0.14567290436E+02  0.00000000000E+00 0. -1.
</event>
<event>
 7    1  0.4346085E-013  0.5930195E+02  0.7816164E-02  0.1266605E+00
        -11   -1    0    0    0    0  0.00000000000E+00  0.00000000000E+00  0.45593999997E+02  0.45594000000E+02  0.51100000000E-03 0.  1.
         11   -1    0    0    0    0 -0.00000000000E+00 -0.00000000000E+00 -0.45593999997E+02  0.45594000000E+02  0.51100000000E-03 0. -1.
    9900012    2    1    2    0    0  0.10717224058E+02 -0.14559382152E+02  0.26265675183E+02  0.59301949869E+02  0.50000010652E+02 0.  0.
         12    1    1    2    0    0 -0.10717224058E+02  0.14559382152E+02 -0.26265675183E+02  0.31886050131E+02  0.00000000000E+00 0. -1.
         11    1    3    3    0    0 -0.79580714347E+01  0.39137840428E+01  0.15048624569E+02  0.17467389850E+02  0.51100000000E-03 0. -1.
        -11    1    3    3    0    0  0.18033313528E+02 -0.24589881329E+00 -0.35332835293E+01  0.18377838714E+02  0.51100000000E-03 0.  1.
        -12    1    3    3    0    0  0.64198196442E+00 -0.18227267381E+02  0.14750334144E+02  0.23456721305E+02  0.00000000000E+00 0.  1.
</event>
<event>
 7    1  0.4346085E-013  0.5930196E+02  0.7816164E-02  0.1266605E+00
        -11   -1    0    0    0    0  0.00000000000E+00  0.00000000000E+00  0.45593999997E+02  0.45594000000E+02  0.51100000000E-03 0.  1.
         11   -1    0    0    0    0 -0.00000000000E+00 -0.00000000000E+00 -0.45593999997E+02  0.45594000000E+02  0.51100000000E-03 0. -1.
    9900012    2    1    2    0    0 -0.30205579753E+02 -0.78991101393E+01 -0.64766374238E+01  0.59301955694E+02  0.50000021276E+02 0.  0.
         12    1    1    2    0    0  0.30205579753E+02  0.78991101393E+01  0.64766374238E+01  0.31886044306E+02  0.00000000000E+00 0. -1.
         11    1    3    3    0    0 -0.38004736006E+01 -0.70690338272E+01  0.12687847185E+02  0.15013204364E+02  0.51100000000E-03 0.  1.
        -11    1    3    3    0    0 -0.97216990888E+01 -0.10875476221E+02 -0.20049331192E+02  0.24794416664E+02  0.51100000000E-03 0. -1.
         12    1    3    3    0    0 -0.16683407063E+02  0.10045399909E+02  0.88484658346E+00  0.19494334665E+02  0.00000000000E+00 0. -1.
</event>
<event>
 7    1  0.4346085E-013  0.5930187E+02  0.7816164E-02  0.1266605E+00
        -11   -1    0    0    0    0  0.00000000000E+00  0.00000000000E+00  0.45593999997E+02  0.45594000000E+02  0.51100000000E-03 0. -1.
         11   -1    0    0    0    0 -0.00000000000E+00 -0.00000000000E+00 -0.45593999997E+02  0.45594000000E+02  0.51100000000E-03 0.  1.
    9900012    2    1    2    0    0  0.45788076090E+01 -0.96322801584E+01 -0.30049605423E+02  0.59301873138E+02  0.49999870714E+02 0.  0.
         12    1    1    2    0    0 -0.45788076090E+01  0.96322801584E+01  0.30049605423E+02  0.31886126862E+02  0.00000000000E+00 0. -1.
         11    1    3    3    0    0  0.59673048275E+01  0.11659779225E+02 -0.85352266694E+01  0.15633594374E+02  0.51100000000E-03 0. -1.
        -11    1    3    3    0    0 -0.16220530971E+02 -0.13898368248E+02 -0.10820318582E+02  0.23944718821E+02  0.51100000000E-03 0.  1.
        -12    1    3    3    0    0  0.14832033753E+02 -0.73936911362E+01 -0.10694060172E+02  0.19723559943E+02  0.00000000000E+00 0.  1.
</event>
<event>
 7    1  0.4346085E-013  0.5930198E+02  0.7816164E-02  0.1266605E+00
        -11   -1    0    0    0    0  0.00000000000E+00  0.00000000000E+00  0.45593999997E+02  0.45594000000E+02  0.51100000000E-03 0. -1.
         11   -1    0    0    0    0 -0.00000000000E+00 -0.00000000000E+00 -0.45593999997E+02  0.45594000000E+02  0.51100000000E-03 0.  1.
    9900012    2    1    2    0    0  0.55632991007E+01  0.31187376761E+02 -0.36215193747E+01  0.59301981611E+02  0.50000068542E+02 0.  0.
         12    1    1    2    0    0 -0.55632991007E+01 -0.31187376761E+02  0.36215193747E+01  0.31886018389E+02  0.00000000000E+00 0. -1.
         11    1    3    3    0    0  0.48436627107E+01  0.18526248506E+01  0.81475502167E+01  0.96579429532E+01  0.51100000000E-03 0. -1.
        -11    1    3    3    0    0 -0.83025843462E+01  0.16668666168E+02 -0.23630249133E+02  0.30085977016E+02  0.51100000000E-03 0.  1.
        -12    1    3    3    0    0  0.90222207362E+01  0.12666085742E+02  0.11861179542E+02  0.19558061641E+02  0.00000000000E+00 0.  1.
</event>
<event>
 7    1  0.4346085E-013  0.5930194E+02  0.7816164E-02  0.1266605E+00
        -11   -1    0    0    0    0  0.00000000000E+00  0.00000000000E+00  0.45593999997E+02  0.45594000000E+02  0.51100000000E-03 0.  1.
         11   -1    0    0    0    0 -0.00000000000E+00 -0.00000000000E+00 -0.45593999997E+02  0.45594000000E+02  0.51100000000E-03 0. -1.
    9900012    2    1    2    0    0 -0.21294531254E+02  0.11513547492E+02  0.20753365530E+02  0.59301936932E+02  0.49999987059E+02 0.  0.
         12    1    1    2    0    0  0.21294531254E+02 -0.11513547492E+02 -0.20753365530E+02  0.31886063068E+02  0.00000000000E+00 0. -1.
         11    1    3    3    0    0  0.72615667686E+00  0.19598953928E+02  0.85702976045E+01  0.21403184340E+02  0.51100000000E-03 0.  1.
        -11    1    3    3    0    0 -0.21828775895E+02 -0.97804037351E+01 -0.16352673127E+01  0.23975526141E+02  0.51100000000E-03 0. -1.
         12    1    3    3    0    0 -0.19191203549E+00  0.16949972993E+01  0.13818335238E+02  0.13923226451E+02  0.00000000000E+00 0. -1.
</event>
<event>
 7    1  0.4346085E-013  0.5930197E+02  0.7816164E-02  0.1266605E+00
        -11   -1    0    0    0    0  0.00000000000E+00  0.00000000000E+00  0.45593999997E+02  0.45594000000E+02  0.51100000000E-03 0.  1.
         11   -1    0    0    0    0 -0.00000000000E+00 -0.00000000000E+00 -0.45593999997E+02  0.45594000000E+02  0.51100000000E-03 0. -1.
    9900012    2    1    2    0    0  0.10542206843E+02 -0.13801432976E+02  0.26741374912E+02  0.59301971563E+02  0.50000050218E+02 0.  0.
         12    1    1    2    0    0 -0.10542206843E+02  0.13801432976E+02 -0.26741374912E+02  0.31886028437E+02  0.00000000000E+00 0. -1.
         11    1    3    3    0    0 -0.29516375671E+01 -0.18154962915E+02 -0.74110745712E+01  0.19830251368E+02  0.51100000000E-03 0. -1.
        -11    1    3    3    0    0  0.14981698038E+02  0.18587653413E+00  0.22749038299E+02  0.27239760828E+02  0.51100000000E-03 0.  1.
        -12    1    3    3    0    0 -0.14878536281E+01  0.41676534041E+01  0.11403411184E+02  0.12231959367E+02  0.00000000000E+00 0.  1.
</event>
<event>
 7    1  0.4346085E-013  0.5930197E+02  0.7816164E-02  0.1266605E+00
        -11   -1    0    0    0    0  0.00000000000E+00  0.00000000000E+00  0.45593999997E+02  0.45594000000E+02  0.51100000000E-03 0. -1.
         11   -1    0    0    0    0 -0.00000000000E+00 -0.00000000000E+00 -0.45593999997E+02  0.45594000000E+02  0.51100000000E-03 0.  1.
    9900012    2    1    2    0    0  0.47277602413E+01 -0.30687273620E+02  0.72566224297E+01  0.59301967820E+02  0.50000043391E+02 0.  0.
         12    1    1    2    0    0 -0.47277602413E+01  0.30687273620E+02 -0.72566224297E+01  0.31886032180E+02  0.00000000000E+00 0. -1.
         11    1    3    3    0    0  0.87321661330E+00  0.31431883424E+01  0.49096937142E+01  0.58946783490E+01  0.51100000000E-03 0. -1.
        -11    1    3    3    0    0 -0.58881987382E+01 -0.23888557129E+02  0.19444703006E+02  0.31359695811E+02  0.51100000000E-03 0.  1.
        -12    1    3    3    0    0  0.97427423662E+01 -0.99419048332E+01 -0.17097774290E+02  0.22047593660E+02  0.00000000000E+00 0.  1.
</event>
<event>
 7    1  0.4346085E-013  0.5930194E+02  0.7816164E-02  0.1266605E+00
        -11   -1    0    0    0    0  0.00000000000E+00  0.00000000000E+00  0.45593999997E+02  0.45594000000E+02  0.51100000000E-03 0.  1.
         11   -1    0    0    0    0 -0.00000000000E+00 -0.00000000000E+00 -0.45593999997E+02  0.45594000000E+02  0.51100000000E-03 0. -1.
    9900012    2    1    2    0    0 -0.65291234171E+01 -0.24184737622E+02  0.19727898535E+02  0.59301937731E+02  0.49999988517E+02 0.  0.
         12    1    1    2    0    0  0.65291234171E+01  0.24184737622E+02 -0.19727898535E+02  0.31886062269E+02  0.00000000000E+00 0. -1.
         11    1    3    3    0    0 -0.12276679472E+02  0.62493503536E+01 -0.32695214147E+01  0.14158425380E+02  0.51100000000E-03 0. -1.
        -11    1    3    3    0    0  0.12880198832E+02 -0.25893134476E+02  0.22556996730E+02  0.36676587037E+02  0.51100000000E-03 0.  1.
        -12    1    3    3    0    0 -0.71326427771E+01 -0.45409534992E+01  0.44042321941E+00  0.84669253144E+01  0.00000000000E+00 0.  1.
</event>
<event>
 7    1  0.4350683E-013  0.5930196E+02  0.7816164E-02  0.1266605E+00
        -11   -1    0    0    0    0  0.00000000000E+00  0.00000000000E+00  0.45593999997E+02  0.45594000000E+02  0.51100000000E-03 0.  1.
         11   -1    0    0    0    0 -0.00000000000E+00 -0.00000000000E+00 -0.45593999997E+02  0.45594000000E+02  0.51100000000E-03 0. -1.
    9900012    2    1    2    0    0 -0.28701653019E+02 -0.11655929261E+01  0.13841095347E+02  0.59301962095E+02  0.50000032950E+02 0.  0.
         12    1    1    2    0    0  0.28701653019E+02  0.11655929261E+01 -0.13841095347E+02  0.31886037905E+02  0.00000000000E+00 0. -1.
         11    1    3    3    0    0  0.57094621207E+01  0.52549981634E+01 -0.61638545298E+01  0.99098973925E+01  0.51100000000E-03 0. -1.
        -11    1    3    3    0    0 -0.32643034532E+02  0.50463709151E+01  0.11384474249E+02  0.34937656147E+02  0.51100000000E-03 0.  1.
        -12    1    3    3    0    0 -0.17680806082E+01 -0.11466962004E+02  0.86204756273E+01  0.14454408556E+02  0.00000000000E+00 0.  1.
</event>
<event>
 7    1  0.4346085E-013  0.5930195E+02  0.7816164E-02  0.1266605E+00
        -11   -1    0    0    0    0  0.00000000000E+00  0.00000000000E+00  0.45593999997E+02  0.45594000000E+02  0.51100000000E-03 0.  1.
         11   -1    0    0    0    0 -0.00000000000E+00 -0.00000000000E+00 -0.45593999997E+02  0.45594000000E+02  0.51100000000E-03 0. -1.
    9900012    2    1    2    0    0  0.12324062533E+02 -0.20407176949E+02  0.21175104611E+02  0.59301945938E+02  0.50000003485E+02 0.  0.
         12    1    1    2    0    0 -0.12324062533E+02  0.20407176949E+02 -0.21175104611E+02  0.31886054062E+02  0.00000000000E+00 0. -1.
         11    1    3    3    0    0  0.29881079441E+02 -0.38724270420E+01  0.82862876109E+01  0.31249594595E+02  0.51100000000E-03 0. -1.
        -11    1    3    3    0    0 -0.12904551542E+02 -0.80526920071E+01  0.85558154335E+01  0.17452085178E+02  0.51100000000E-03 0.  1.
         12    1    3    3    0    0 -0.46524653663E+01 -0.84820578998E+01  0.43330015664E+01  0.10600266165E+02  0.00000000000E+00 0. -1.
</event>
<event>
 7    1  0.4346085E-013  0.5930193E+02  0.7816164E-02  0.1266605E+00
        -11   -1    0    0    0    0  0.00000000000E+00  0.00000000000E+00  0.45593999997E+02  0.45594000000E+02  0.51100000000E-03 0.  1.
         11   -1    0    0    0    0 -0.00000000000E+00 -0.00000000000E+00 -0.45593999997E+02  0.45594000000E+02  0.51100000000E-03 0. -1.
    9900012    2    1    2    0    0 -0.13316875324E+02 -0.28721290826E+02  0.38039145989E+01  0.59301929666E+02  0.49999973807E+02 0.  0.
         12    1    1    2    0    0  0.13316875324E+02  0.28721290826E+02 -0.38039145989E+01  0.31886070334E+02  0.00000000000E+00 0. -1.
         11    1    3    3    0    0 -0.20533623185E+02 -0.80355472557E+01  0.81796038265E+01  0.23518197631E+02  0.51100000000E-03 0. -1.
        -11    1    3    3    0    0 -0.12501195100E+01 -0.94466524163E+01 -0.15262202874E+02  0.17992689557E+02  0.51100000000E-03 0.  1.
        -12    1    3    3    0    0  0.84668673717E+01 -0.11239091154E+02  0.10886513646E+02  0.17791042477E+02  0.00000000000E+00 0.  1.
</event>
<event>
 7    1  0.4346085E-013  0.5930192E+02  0.7816164E-02  0.1266605E+00
        -11   -1    0    0    0    0  0.00000000000E+00  0.00000000000E+00  0.45593999997E+02  0.45594000000E+02  0.51100000000E-03 0. -1.
         11   -1    0    0    0    0 -0.00000000000E+00 -0.00000000000E+00 -0.45593999997E+02  0.45594000000E+02  0.51100000000E-03 0.  1.
    9900012    2    1    2    0    0  0.18466571706E+01 -0.31607225002E+02  0.37809423231E+01  0.59301916203E+02  0.49999949255E+02 0.  0.
         12    1    1    2    0    0 -0.18466571706E+01  0.31607225002E+02 -0.37809423231E+01  0.31886083797E+02  0.00000000000E+00 0. -1.
         11    1    3    3    0    0  0.47210394414E+01 -0.77686372394E-01  0.11038054792E+02  0.12005536324E+02  0.51100000000E-03 0. -1.
        -11    1    3    3    0    0  0.79803854356E+01 -0.12423701974E+02 -0.17630256084E+02  0.22996974851E+02  0.51100000000E-03 0.  1.
        -12    1    3    3    0    0 -0.10854767706E+02 -0.19105836656E+02  0.10373143615E+02  0.24299405028E+02  0.00000000000E+00 0.  1.
</event>
<event>
 7    1  0.4346085E-013  0.5930194E+02  0.7816164E-02  0.1266605E+00
        -11   -1    0    0    0    0  0.00000000000E+00  0.00000000000E+00  0.45593999997E+02  0.45594000000E+02  0.51100000000E-03 0. -1.
         11   -1    0    0    0    0 -0.00000000000E+00 -0.00000000000E+00 -0.45593999997E+02  0.45594000000E+02  0.51100000000E-03 0.  1.
    9900012    2    1    2    0    0 -0.85672550620E+00 -0.31277923118E+02  0.61382466215E+01  0.59301944666E+02  0.50000001164E+02 0.  0.
         12    1    1    2    0    0  0.85672550620E+00  0.31277923118E+02 -0.61382466215E+01  0.31886055334E+02  0.00000000000E+00 0. -1.
         11    1    3    3    0    0 -0.10928802993E+02 -0.23876263949E+02 -0.13779132356E+02  0.29654328584E+02  0.51100000000E-03 0.  1.
        -11    1    3    3    0    0  0.10477206746E+02 -0.64659635895E+01  0.29639489670E+01  0.12663551638E+02  0.51100000000E-03 0. -1.
         12    1    3    3    0    0 -0.40512925916E+00 -0.93569557980E+00  0.16953430011E+02  0.16984064445E+02  0.00000000000E+00 0. -1.
</event>
<event>
 7    1  0.4346085E-013  0.5930191E+02  0.7816164E-02  0.1266605E+00
        -11   -1    0    0    0    0  0.00000000000E+00  0.00000000000E+00  0.45593999997E+02  0.45594000000E+02  0.51100000000E-03 0.  1.
         11   -1    0    0    0    0 -0.00000000000E+00 -0.00000000000E+00 -0.45593999997E+02  0.45594000000E+02  0.51100000000E-03 0. -1.
    9900012    2    1    2    0    0 -0.23382850444E+02 -0.19170150013E+02  0.10122762731E+02  0.59301911000E+02  0.49999939766E+02 0.  0.
         12    1    1    2    0    0  0.23382850444E+02  0.19170150013E+02 -0.10122762731E+02  0.31886089000E+02  0.00000000000E+00 0. -1.
         11    1    3    3    0    0 -0.54313925488E+01 -0.15040095862E+02 -0.69772787889E+01  0.17446688171E+02  0.51100000000E-03 0. -1.
        -11    1    3    3    0    0 -0.68176979442E+01 -0.10101486862E+01  0.26231398861E+02  0.27121719932E+02  0.51100000000E-03 0.  1.
        -12    1    3    3    0    0 -0.11133759951E+02 -0.31199054643E+01 -0.91313573410E+01  0.14733502898E+02  0.00000000000E+00 0.  1.
</event>
<event>
 7    1  0.4346085E-013  0.5930202E+02  0.7816164E-02  0.1266604E+00
        -11   -1    0    0    0    0  0.00000000000E+00  0.00000000000E+00  0.45593999997E+02  0.45594000000E+02  0.51100000000E-03 0.  1.
         11   -1    0    0    0    0 -0.00000000000E+00 -0.00000000000E+00 -0.45593999997E+02  0.45594000000E+02  0.51100000000E-03 0. -1.
    9900012    2    1    2    0    0 -0.70386508674E+01  0.31097872392E+02 -0.30851664064E+00  0.59302024150E+02  0.50000146124E+02 0.  0.
         12    1    1    2    0    0  0.70386508674E+01 -0.31097872392E+02  0.30851664064E+00  0.31885975850E+02  0.00000000000E+00 0. -1.
         11    1    3    3    0    0  0.12648189076E+02  0.45029963753E+01  0.10134366015E+01  0.13464052780E+02  0.51100000000E-03 0. -1.
        -11    1    3    3    0    0 -0.24907992177E+02  0.21816850095E+02 -0.10047915008E+02  0.34602653346E+02  0.51100000000E-03 0.  1.
        -12    1    3    3    0    0  0.52211522333E+01  0.47780259224E+01  0.87259617662E+01  0.11235318024E+02  0.00000000000E+00 0.  1.
</event>
<event>
 7    1  0.4346085E-013  0.5930194E+02  0.7816164E-02  0.1266605E+00
        -11   -1    0    0    0    0  0.00000000000E+00  0.00000000000E+00  0.45593999997E+02  0.45594000000E+02  0.51100000000E-03 0. -1.
         11   -1    0    0    0    0 -0.00000000000E+00 -0.00000000000E+00 -0.45593999997E+02  0.45594000000E+02  0.51100000000E-03 0.  1.
    9900012    2    1    2    0    0  0.67780960908E+01  0.31047377501E+02  0.26151160994E+01  0.59301936139E+02  0.49999985613E+02 0.  0.
         12    1    1    2    0    0 -0.67780960908E+01 -0.31047377501E+02 -0.26151160994E+01  0.31886063861E+02  0.00000000000E+00 0. -1.
         11    1    3    3    0    0 -0.73440500617E+00 -0.72609310284E+01 -0.11268108499E+01  0.73844548252E+01  0.51100000000E-03 0. -1.
        -11    1    3    3    0    0  0.20970994433E+02  0.19465031944E+02  0.26693678808E+01  0.28736659535E+02  0.51100000000E-03 0.  1.
        -12    1    3    3    0    0 -0.13458493336E+02  0.18843276586E+02  0.10725590684E+01  0.23180821779E+02  0.00000000000E+00 0.  1.
</event>
<event>
 7    1  0.4346085E-013  0.5930193E+02  0.7816164E-02  0.1266605E+00
        -11   -1    0    0    0    0  0.00000000000E+00  0.00000000000E+00  0.45593999997E+02  0.45594000000E+02  0.51100000000E-03 0.  1.
         11   -1    0    0    0    0 -0.00000000000E+00 -0.00000000000E+00 -0.45593999997E+02  0.45594000000E+02  0.51100000000E-03 0. -1.
    9900012    2    1    2    0    0  0.10350479003E+02 -0.21938636553E+02  0.20695054599E+02  0.59301929777E+02  0.49999974010E+02 0.  0.
         12    1    1    2    0    0 -0.10350479003E+02  0.21938636553E+02 -0.20695054599E+02  0.31886070223E+02  0.00000000000E+00 0. -1.
         11    1    3    3    0    0 -0.10487048707E+02  0.36855616432E+01  0.91378790315E+01  0.14389662563E+02  0.51100000000E-03 0. -1.
        -11    1    3    3    0    0  0.97581031993E+01 -0.29225041893E+02  0.12442946526E+02  0.33228761190E+02  0.51100000000E-03 0.  1.
         12    1    3    3    0    0  0.11079424511E+02  0.36008436969E+01 -0.88577095800E+00  0.11683506024E+02  0.00000000000E+00 0. -1.
</event>
<event>
 7    1  0.4346085E-013  0.5930196E+02  0.7816164E-02  0.1266605E+00
        -11   -1    0    0    0    0  0.00000000000E+00  0.00000000000E+00  0.45593999997E+02  0.45594000000E+02  0.51100000000E-03 0. -1.
         11   -1    0    0    0    0 -0.00000000000E+00 -0.00000000000E+00 -0.45593999997E+02  0.45594000000E+02  0.51100000000E-03 0.  1.
    9900012    2    1    2    0    0  0.83781943935E+00  0.25181535190E+02 -0.19542459130E+02  0.59301962856E+02  0.50000034338E+02 0.  0.
         12    1    1    2    0    0 -0.83781943935E+00 -0.25181535190E+02  0.19542459130E+02  0.31886037144E+02  0.00000000000E+00 0. -1.
         11    1    3    3    0    0  0.46993174237E+01  0.73454199784E+01  0.10235091111E+02  0.13446035446E+02  0.51100000000E-03 0. -1.
        -11    1    3    3    0    0  0.55915136750E+01  0.19275110439E+02 -0.30227360097E+02  0.36283442591E+02  0.51100000000E-03 0.  1.
        -12    1    3    3    0    0 -0.94530116593E+01 -0.14389952274E+01  0.44980985649E+00  0.95724848186E+01  0.00000000000E+00 0.  1.
</event>
<event>
 7    1  0.4346085E-013  0.5930194E+02  0.7816164E-02  0.1266605E+00
        -11   -1    0    0    0    0  0.00000000000E+00  0.00000000000E+00  0.45593999997E+02  0.45594000000E+02  0.51100000000E-03 0. -1.
         11   -1    0    0    0    0 -0.00000000000E+00 -0.00000000000E+00 -0.45593999997E+02  0.45594000000E+02  0.51100000000E-03 0.  1.
    9900012    2    1    2    0    0 -0.14682244101E+02  0.27363303784E+02  0.72389182887E+01  0.59301943113E+02  0.49999998331E+02 0.  0.
         12    1    1    2    0    0  0.14682244101E+02 -0.27363303784E+02 -0.72389182887E+01  0.31886056887E+02  0.00000000000E+00 0. -1.
         11    1    3    3    0    0  0.74109587768E+00  0.67508713362E+00 -0.40362896081E+00  0.10806860492E+01  0.51100000000E-03 0. -1.
        -11    1    3    3    0    0 -0.33636888126E+01  0.23430167112E+02  0.26543857863E+02  0.35564919849E+02  0.51100000000E-03 0.  1.
        -12    1    3    3    0    0 -0.12059651166E+02  0.32580495380E+01 -0.18901310614E+02  0.22656337214E+02  0.00000000000E+00 0.  1.
</event>
<event>
 7    1  0.4346085E-013  0.5930192E+02  0.7816164E-02  0.1266605E+00
        -11   -1    0    0    0    0  0.00000000000E+00  0.00000000000E+00  0.45593999997E+02  0.45594000000E+02  0.51100000000E-03 0.  1.
         11   -1    0    0    0    0 -0.00000000000E+00 -0.00000000000E+00 -0.45593999997E+02  0.45594000000E+02  0.51100000000E-03 0. -1.
    9900012    2    1    2    0    0  0.45531588815E+01 -0.28364796159E+01  0.31431599917E+02  0.59301916112E+02  0.49999949088E+02 0.  0.
         12    1    1    2    0    0 -0.45531588815E+01  0.28364796159E+01 -0.31431599917E+02  0.31886083888E+02  0.00000000000E+00 0. -1.
         11    1    3    3    0    0  0.19895690939E+02  0.10185710317E+02  0.21129764775E+02  0.30757993633E+02  0.51100000000E-03 0.  1.
        -11    1    3    3    0    0 -0.18245501500E+02 -0.92278942167E+01  0.43361560897E+01  0.20901067115E+02  0.51100000000E-03 0. -1.
        -12    1    3    3    0    0  0.29029694418E+01 -0.37942957158E+01  0.59656790523E+01  0.76428553639E+01  0.00000000000E+00 0.  1.
</event>
<event>
 7    1  0.4346085E-013  0.5930194E+02  0.7816164E-02  0.1266605E+00
        -11   -1    0    0    0    0  0.00000000000E+00  0.00000000000E+00  0.45593999997E+02  0.45594000000E+02  0.51100000000E-03 0. -1.
         11   -1    0    0    0    0 -0.00000000000E+00 -0.00000000000E+00 -0.45593999997E+02  0.45594000000E+02  0.51100000000E-03 0.  1.
    9900012    2    1    2    0    0  0.14556681445E+02 -0.24776344456E+02 -0.13818698958E+02  0.59301942543E+02  0.49999997292E+02 0.  0.
         12    1    1    2    0    0 -0.14556681445E+02  0.24776344456E+02  0.13818698958E+02  0.31886057457E+02  0.00000000000E+00 0. -1.
         11    1    3    3    0    0 -0.36041452466E+01  0.60930643308E+01  0.92469674330E-02  0.70792218262E+01  0.51100000000E-03 0. -1.
        -11    1    3    3    0    0  0.55720106505E+01 -0.36077372575E+02 -0.12261884967E+02  0.38509452577E+02  0.51100000000E-03 0.  1.
        -12    1    3    3    0    0  0.12588816041E+02  0.52079637885E+01 -0.15660609590E+01  0.13713268139E+02  0.00000000000E+00 0.  1.
</event>
<event>
 7    1  0.4346085E-013  0.5930201E+02  0.7816164E-02  0.1266605E+00
        -11   -1    0    0    0    0  0.00000000000E+00  0.00000000000E+00  0.45593999997E+02  0.45594000000E+02  0.51100000000E-03 0.  1.
         11   -1    0    0    0    0 -0.00000000000E+00 -0.00000000000E+00 -0.45593999997E+02  0.45594000000E+02  0.51100000000E-03 0. -1.
    9900012    2    1    2    0    0  0.30729404942E+02  0.38567244415E+01  0.75858813217E+01  0.59302011746E+02  0.50000123501E+02 0.  0.
         12    1    1    2    0    0 -0.30729404942E+02 -0.38567244415E+01 -0.75858813217E+01  0.31885988254E+02  0.00000000000E+00 0. -1.
         11    1    3    3    0    0  0.92875137557E+01  0.80113882074E+01 -0.59649664409E+01  0.13638954420E+02  0.51100000000E-03 0. -1.
        -11    1    3    3    0    0  0.37585352873E+01 -0.17928771528E+02 -0.19329013420E+01  0.18420193915E+02  0.51100000000E-03 0.  1.
        -12    1    3    3    0    0  0.17683355899E+02  0.13774107762E+02  0.15483749105E+02  0.27242863411E+02  0.00000000000E+00 0.  1.
</event>
<event>
 7    1  0.4346085E-013  0.5930194E+02  0.7816164E-02  0.1266605E+00
        -11   -1    0    0    0    0  0.00000000000E+00  0.00000000000E+00  0.45593999997E+02  0.45594000000E+02  0.51100000000E-03 0.  1.
         11   -1    0    0    0    0 -0.00000000000E+00 -0.00000000000E+00 -0.45593999997E+02  0.45594000000E+02  0.51100000000E-03 0. -1.
    9900012    2    1    2    0    0 -0.10706637409E+02  0.22788311496E+02  0.19564803111E+02  0.59301941193E+02  0.49999994830E+02 0.  0.
         12    1    1    2    0    0  0.10706637409E+02 -0.22788311496E+02 -0.19564803111E+02  0.31886058807E+02  0.00000000000E+00 0. -1.
         11    1    3    3    0    0  0.47952158035E+01 -0.32380633285E+01 -0.49289354005E+01  0.76008916032E+01  0.51100000000E-03 0. -1.
        -11    1    3    3    0    0 -0.21027310373E+02  0.30874578959E+02  0.23855775451E+02  0.44322516061E+02  0.51100000000E-03 0.  1.
        -12    1    3    3    0    0  0.55254571609E+01 -0.48482041337E+01  0.63796306120E+00  0.73785335282E+01  0.00000000000E+00 0.  1.
</event>
<event>
 7    1  0.4346085E-013  0.5930195E+02  0.7816164E-02  0.1266605E+00
        -11   -1    0    0    0    0  0.00000000000E+00  0.00000000000E+00  0.45593999997E+02  0.45594000000E+02  0.51100000000E-03 0.  1.
         11   -1    0    0    0    0 -0.00000000000E+00 -0.00000000000E+00 -0.45593999997E+02  0.45594000000E+02  0.51100000000E-03 0. -1.
    9900012    2    1    2    0    0 -0.82009265452E+01 -0.23959199133E+02  0.19375808293E+02  0.59301947151E+02  0.50000005697E+02 0.  0.
         12    1    1    2    0    0  0.82009265452E+01  0.23959199133E+02 -0.19375808293E+02  0.31886052849E+02  0.00000000000E+00 0. -1.
         11    1    3    3    0    0 -0.13585330543E+02  0.65413038297E+01  0.19650338611E+02  0.24768642869E+02  0.51100000000E-03 0. -1.
        -11    1    3    3    0    0  0.46739288534E+01 -0.32118097588E+02 -0.13148546249E+01  0.32483020896E+02  0.51100000000E-03 0.  1.
        -12    1    3    3    0    0  0.71047514474E+00  0.16175946253E+01  0.10403243062E+01  0.20502833865E+01  0.00000000000E+00 0.  1.
</event>
<event>
 7    1  0.4346085E-013  0.5930187E+02  0.7816164E-02  0.1266605E+00
        -11   -1    0    0    0    0  0.00000000000E+00  0.00000000000E+00  0.45593999997E+02  0.45594000000E+02  0.51100000000E-03 0.  1.
         11   -1    0    0    0    0 -0.00000000000E+00 -0.00000000000E+00 -0.45593999997E+02  0.45594000000E+02  0.51100000000E-03 0. -1.
    9900012    2    1    2    0    0  0.26816436271E+02  0.13445412240E+02  0.10808545374E+02  0.59301874213E+02  0.49999872675E+02 0.  0.
         12    1    1    2    0    0 -0.26816436271E+02 -0.13445412240E+02 -0.10808545374E+02  0.31886125787E+02  0.00000000000E+00 0. -1.
         11    1    3    3    0    0  0.29757840572E+02 -0.86912292825E+01  0.14540625951E+02  0.34241733970E+02  0.51100000000E-03 0.  1.
        -11    1    3    3    0    0 -0.23054196578E+01  0.15157502049E+02 -0.75386885609E+01  0.17084983279E+02  0.51100000000E-03 0. -1.
        -12    1    3    3    0    0 -0.63598464372E+00  0.69791394737E+01  0.38066079836E+01  0.79751569641E+01  0.00000000000E+00 0.  1.
</event>
<event>
 7    1  0.4346085E-013  0.5930194E+02  0.7816164E-02  0.1266605E+00
        -11   -1    0    0    0    0  0.00000000000E+00  0.00000000000E+00  0.45593999997E+02  0.45594000000E+02  0.51100000000E-03 0. -1.
         11   -1    0    0    0    0 -0.00000000000E+00 -0.00000000000E+00 -0.45593999997E+02  0.45594000000E+02  0.51100000000E-03 0.  1.
    9900012    2    1    2    0    0  0.19647253176E+01  0.17163169480E+02 -0.26800858397E+02  0.59301944380E+02  0.50000000643E+02 0.  0.
         12    1    1    2    0    0 -0.19647253176E+01 -0.17163169480E+02  0.26800858397E+02  0.31886055620E+02  0.00000000000E+00 0. -1.
         11    1    3    3    0    0 -0.39952390786E+01  0.88217083319E+01  0.91168024023E+01  0.13300396967E+02  0.51100000000E-03 0. -1.
        -11    1    3    3    0    0 -0.78632394295E+00  0.14128162366E+02 -0.34114101741E+02  0.36932305845E+02  0.51100000000E-03 0.  1.
         12    1    3    3    0    0  0.67462883392E+01 -0.57867012179E+01 -0.18035590583E+01  0.90692415679E+01  0.00000000000E+00 0. -1.
</event>
<event>
 7    1  0.4346085E-013  0.5930194E+02  0.7816164E-02  0.1266605E+00
        -11   -1    0    0    0    0  0.00000000000E+00  0.00000000000E+00  0.45593999997E+02  0.45594000000E+02  0.51100000000E-03 0.  1.
         11   -1    0    0    0    0 -0.00000000000E+00 -0.00000000000E+00 -0.45593999997E+02  0.45594000000E+02  0.51100000000E-03 0. -1.
    9900012    2    1    2    0    0  0.29017298203E+02 -0.95191306593E+01  0.91707804713E+01  0.59301942577E+02  0.49999997354E+02 0.  0.
         12    1    1    2    0    0 -0.29017298203E+02  0.95191306593E+01 -0.91707804713E+01  0.31886057423E+02  0.00000000000E+00 0. -1.
         11    1    3    3    0    0  0.29410364738E+02  0.36597534419E+01 -0.26345833193E+01  0.29754064912E+02  0.51100000000E-03 0. -1.
        -11    1    3    3    0    0 -0.13523796435E+01 -0.10392107324E+02  0.19041336088E+02  0.21734702795E+02  0.51100000000E-03 0.  1.
         12    1    3    3    0    0  0.95931310849E+00 -0.27867767775E+01 -0.72359722974E+01  0.78131748692E+01  0.00000000000E+00 0. -1.
</event>
<event>
 7    1  0.4346085E-013  0.5930192E+02  0.7816164E-02  0.1266605E+00
        -11   -1    0    0    0    0  0.00000000000E+00  0.00000000000E+00  0.45593999997E+02  0.45594000000E+02  0.51100000000E-03 0. -1.
         11   -1    0    0    0    0 -0.00000000000E+00 -0.00000000000E+00 -0.45593999997E+02  0.45594000000E+02  0.51100000000E-03 0.  1.
    9900012    2    1    2    0    0  0.30383720738E+02 -0.92160018773E+01 -0.29354531572E+01  0.59301920565E+02  0.49999957210E+02 0.  0.
         12    1    1    2    0    0 -0.30383720738E+02  0.92160018773E+01  0.29354531572E+01  0.31886079435E+02  0.00000000000E+00 0. -1.
         11    1    3    3    0    0 -0.71833834992E+01 -0.21438302692E+01 -0.15448923810E+02  0.17171670096E+02  0.51100000000E-03 0. -1.
        -11    1    3    3    0    0  0.13117668018E+02 -0.11651506690E+01 -0.16362095681E+01  0.13270567898E+02  0.51100000000E-03 0.  1.
         12    1    3    3    0    0  0.24449436219E+02 -0.59070209390E+01  0.14149680221E+02  0.28859682572E+02  0.00000000000E+00 0. -1.
</event>
<event>
 7    1  0.4346085E-013  0.5930197E+02  0.7816164E-02  0.1266605E+00
        -11   -1    0    0    0    0  0.00000000000E+00  0.00000000000E+00  0.45593999997E+02  0.45594000000E+02  0.51100000000E-03 0. -1.
         11   -1    0    0    0    0 -0.00000000000E+00 -0.00000000000E+00 -0.45593999997E+02  0.45594000000E+02  0.51100000000E-03 0.  1.
    9900012    2    1    2    0    0  0.82059546467E+01  0.25103576522E+02 -0.17865935638E+02  0.59301970111E+02  0.50000047570E+02 0.  0.
         12    1    1    2    0    0 -0.82059546467E+01 -0.25103576522E+02  0.17865935638E+02  0.31886029889E+02  0.00000000000E+00 0. -1.
         11    1    3    3    0    0  0.54218256104E+01 -0.10276421381E+02  0.19366581836E+01  0.11779290069E+02  0.51100000000E-03 0. -1.
        -11    1    3    3    0    0  0.33788623837E+01  0.31182750408E+02 -0.25498642299E+02  0.40422288324E+02  0.51100000000E-03 0.  1.
        -12    1    3    3    0    0 -0.59473334731E+00  0.41972474948E+01  0.56960484776E+01  0.71003917178E+01  0.00000000000E+00 0.  1.
</event>
<event>
 7    1  0.4346085E-013  0.5930194E+02  0.7816164E-02  0.1266605E+00
        -11   -1    0    0    0    0  0.00000000000E+00  0.00000000000E+00  0.45593999997E+02  0.45594000000E+02  0.51100000000E-03 0. -1.
         11   -1    0    0    0    0 -0.00000000000E+00 -0.00000000000E+00 -0.45593999997E+02  0.45594000000E+02  0.51100000000E-03 0.  1.
    9900012    2    1    2    0    0  0.23392189815E+02  0.13273043860E+02  0.17127530794E+02  0.59301944290E+02  0.50000000478E+02 0.  0.
         12    1    1    2    0    0 -0.23392189815E+02 -0.13273043860E+02 -0.17127530794E+02  0.31886055710E+02  0.00000000000E+00 0. -1.
         11    1    3    3    0    0  0.72592291295E+01 -0.67327223793E+00  0.17487423616E+02  0.18946231500E+02  0.51100000000E-03 0. -1.
        -11    1    3    3    0    0  0.61181464053E+00  0.85891652350E+01 -0.15686423036E+02  0.17894466869E+02  0.51100000000E-03 0.  1.
        -12    1    3    3    0    0  0.15521146045E+02  0.53571508627E+01  0.15326530214E+02  0.22461245921E+02  0.00000000000E+00 0.  1.
</event>
<event>
 7    1  0.4346085E-013  0.5930198E+02  0.7816164E-02  0.1266605E+00
        -11   -1    0    0    0    0  0.00000000000E+00  0.00000000000E+00  0.45593999997E+02  0.45594000000E+02  0.51100000000E-03 0. -1.
         11   -1    0    0    0    0 -0.00000000000E+00 -0.00000000000E+00 -0.45593999997E+02  0.45594000000E+02  0.51100000000E-03 0.  1.
    9900012    2    1    2    0    0  0.11547156358E+02 -0.24070228839E+02 -0.17435759768E+02  0.59301977121E+02  0.50000060354E+02 0.  0.
         12    1    1    2    0    0 -0.11547156358E+02  0.24070228839E+02  0.17435759768E+02  0.31886022879E+02  0.00000000000E+00 0. -1.
         11    1    3    3    0    0  0.27427663766E+02 -0.16502718021E+02  0.87687539963E+00  0.32021638816E+02  0.51100000000E-03 0. -1.
        -11    1    3    3    0    0 -0.12164098229E+02 -0.66912325300E+01 -0.74276970781E+01  0.15745112341E+02  0.51100000000E-03 0.  1.
         12    1    3    3    0    0 -0.37164091786E+01 -0.87627828785E+00 -0.10884938090E+02  0.11535225964E+02  0.00000000000E+00 0. -1.
</event>
<event>
 7    1  0.4346085E-013  0.5930193E+02  0.7816164E-02  0.1266605E+00
        -11   -1    0    0    0    0  0.00000000000E+00  0.00000000000E+00  0.45593999997E+02  0.45594000000E+02  0.51100000000E-03 0.  1.
         11   -1    0    0    0    0 -0.00000000000E+00 -0.00000000000E+00 -0.45593999997E+02  0.45594000000E+02  0.51100000000E-03 0. -1.
    9900012    2    1    2    0    0  0.25314545610E+02  0.11725827979E+02  0.15440209642E+02  0.59301931961E+02  0.49999977993E+02 0.  0.
         12    1    1    2    0    0 -0.25314545610E+02 -0.11725827979E+02 -0.15440209642E+02  0.31886068039E+02  0.00000000000E+00 0. -1.
         11    1    3    3    0    0  0.25121248644E+01  0.34300803846E+01 -0.39586402542E+00  0.42700036729E+01  0.51100000000E-03 0. -1.
        -11    1    3    3    0    0 -0.42245616777E+01  0.88261278455E+01  0.24712873543E+02  0.26579570597E+02  0.51100000000E-03 0.  1.
        -12    1    3    3    0    0  0.27026982423E+02 -0.53038025089E+00 -0.88767998762E+01  0.28452357690E+02  0.00000000000E+00 0.  1.
</event>
<event>
 7    1  0.4346085E-013  0.5930199E+02  0.7816164E-02  0.1266605E+00
        -11   -1    0    0    0    0  0.00000000000E+00  0.00000000000E+00  0.45593999997E+02  0.45594000000E+02  0.51100000000E-03 0. -1.
         11   -1    0    0    0    0 -0.00000000000E+00 -0.00000000000E+00 -0.45593999997E+02  0.45594000000E+02  0.51100000000E-03 0.  1.
    9900012    2    1    2    0    0  0.98276341745E+01 -0.10986608514E+02 -0.28274191868E+02  0.59301986046E+02  0.50000076631E+02 0.  0.
         12    1    1    2    0    0 -0.98276341745E+01  0.10986608514E+02  0.28274191868E+02  0.31886013954E+02  0.00000000000E+00 0. -1.
         11    1    3    3    0    0 -0.12625617200E+02 -0.10054671444E+02 -0.14988513910E+02  0.22026306477E+02  0.51100000000E-03 0. -1.
        -11    1    3    3    0    0  0.10159347283E+02 -0.13681261554E+02 -0.77432076853E+01  0.18717545791E+02  0.51100000000E-03 0.  1.
         12    1    3    3    0    0  0.12293904092E+02  0.12749324484E+02 -0.55424702723E+01  0.18558133778E+02  0.00000000000E+00 0. -1.
</event>
<event>
 7    1  0.4346085E-013  0.5930194E+02  0.7816164E-02  0.1266605E+00
        -11   -1    0    0    0    0  0.00000000000E+00  0.00000000000E+00  0.45593999997E+02  0.45594000000E+02  0.51100000000E-03 0.  1.
         11   -1    0    0    0    0 -0.00000000000E+00 -0.00000000000E+00 -0.45593999997E+02  0.45594000000E+02  0.51100000000E-03 0. -1.
    9900012    2    1    2    0    0  0.81195753116E+01 -0.19361670972E+02  0.23998317109E+02  0.59301936741E+02  0.49999986711E+02 0.  0.
         12    1    1    2    0    0 -0.81195753116E+01  0.19361670972E+02 -0.23998317109E+02  0.31886063259E+02  0.00000000000E+00 0. -1.
         11    1    3    3    0    0 -0.12166329964E+02  0.29788770166E+01  0.25889753626E+01  0.12790468590E+02  0.51100000000E-03 0. -1.
        -11    1    3    3    0    0  0.16996798635E+02 -0.22408904629E+02  0.35466422411E+01  0.28348348134E+02  0.51100000000E-03 0.  1.
         12    1    3    3    0    0  0.32891066403E+01  0.68356639899E-01  0.17862699505E+02  0.18163120017E+02  0.00000000000E+00 0. -1.
</event>
<event>
 7    1  0.4346085E-013  0.5930197E+02  0.7816164E-02  0.1266605E+00
        -11   -1    0    0    0    0  0.00000000000E+00  0.00000000000E+00  0.45593999997E+02  0.45594000000E+02  0.51100000000E-03 0.  1.
         11   -1    0    0    0    0 -0.00000000000E+00 -0.00000000000E+00 -0.45593999997E+02  0.45594000000E+02  0.51100000000E-03 0. -1.
    9900012    2    1    2    0    0  0.14646148465E+02 -0.23082504009E+02  0.16413632973E+02  0.59301968520E+02  0.50000044668E+02 0.  0.
         12    1    1    2    0    0 -0.14646148465E+02  0.23082504009E+02 -0.16413632973E+02  0.31886031480E+02  0.00000000000E+00 0. -1.
         11    1    3    3    0    0  0.16097918808E+02  0.90013811496E+01  0.51910884489E+01  0.19160251879E+02  0.51100000000E-03 0. -1.
        -11    1    3    3    0    0  0.82135094445E+00 -0.88456268371E+01 -0.63491584749E+01  0.10919319810E+02  0.51100000000E-03 0.  1.
        -12    1    3    3    0    0 -0.22731212876E+01 -0.23238258322E+02  0.17571702999E+02  0.29222396830E+02  0.00000000000E+00 0.  1.
</event>
<event>
 7    1  0.4346085E-013  0.5930194E+02  0.7816164E-02  0.1266605E+00
        -11   -1    0    0    0    0  0.00000000000E+00  0.00000000000E+00  0.45593999997E+02  0.45594000000E+02  0.51100000000E-03 0.  1.
         11   -1    0    0    0    0 -0.00000000000E+00 -0.00000000000E+00 -0.45593999997E+02  0.45594000000E+02  0.51100000000E-03 0. -1.
    9900012    2    1    2    0    0  0.87308963583E+01  0.27326572829E+02  0.13919427288E+02  0.59301943645E+02  0.49999999303E+02 0.  0.
         12    1    1    2    0    0 -0.87308963583E+01 -0.27326572829E+02 -0.13919427288E+02  0.31886056355E+02  0.00000000000E+00 0. -1.
         11    1    3    3    0    0 -0.30238147327E+01 -0.28625796990E+01 -0.10444228296E+02  0.11243652567E+02  0.51100000000E-03 0. -1.
        -11    1    3    3    0    0 -0.19250248256E+01  0.20827878991E+02  0.23498948176E+02  0.31459606315E+02  0.51100000000E-03 0.  1.
         12    1    3    3    0    0  0.13679735917E+02  0.93612735375E+01  0.86470740824E+00  0.16598684764E+02  0.00000000000E+00 0. -1.
</event>
<event>
 7    1  0.4346085E-013  0.5930196E+02  0.7816164E-02  0.1266605E+00
        -11   -1    0    0    0    0  0.00000000000E+00  0.00000000000E+00  0.45593999997E+02  0.45594000000E+02  0.51100000000E-03 0.  1.
         11   -1    0    0    0    0 -0.00000000000E+00 -0.00000000000E+00 -0.45593999997E+02  0.45594000000E+02  0.51100000000E-03 0. -1.
    9900012    2    1    2    0    0 -0.21339001767E+02 -0.17344261453E+02  0.16141350126E+02  0.59301959392E+02  0.50000028020E+02 0.  0.
         12    1    1    2    0    0  0.21339001767E+02  0.17344261453E+02 -0.16141350126E+02  0.31886040608E+02  0.00000000000E+00 0. -1.
         11    1    3    3    0    0 -0.12493252163E+02 -0.53792060449E+01 -0.45753396626E+01  0.14350990926E+02  0.51100000000E-03 0. -1.
        -11    1    3    3    0    0  0.10560935590E+02 -0.15572604752E+02  0.43574174622E+01  0.19313893095E+02  0.51100000000E-03 0.  1.
        -12    1    3    3    0    0 -0.19406685195E+02  0.36075493438E+01  0.16359272326E+02  0.25637075370E+02  0.00000000000E+00 0.  1.
</event>
<event>
 7    1  0.4346085E-013  0.5930193E+02  0.7816164E-02  0.1266605E+00
        -11   -1    0    0    0    0  0.00000000000E+00  0.00000000000E+00  0.45593999997E+02  0.45594000000E+02  0.51100000000E-03 0.  1.
         11   -1    0    0    0    0 -0.00000000000E+00 -0.00000000000E+00 -0.45593999997E+02  0.45594000000E+02  0.51100000000E-03 0. -1.
    9900012    2    1    2    0    0 -0.12353199297E+02 -0.28311286410E+01  0.29259262454E+02  0.59301933112E+02  0.49999980092E+02 0.  0.
         12    1    1    2    0    0  0.12353199297E+02  0.28311286410E+01 -0.29259262454E+02  0.31886066888E+02  0.00000000000E+00 0. -1.
         11    1    3    3    0    0 -0.16693160990E+02 -0.19783376000E+02  0.23673563721E+02  0.35078215595E+02  0.51100000000E-03 0. -1.
        -11    1    3    3    0    0 -0.58792201942E+01  0.46370644156E+01  0.85698018274E+00  0.75367109393E+01  0.51100000000E-03 0.  1.
         12    1    3    3    0    0  0.10219181888E+02  0.12315182944E+02  0.47287185508E+01  0.16687006578E+02  0.00000000000E+00 0. -1.
</event>
<event>
 7    1  0.4346085E-013  0.5930193E+02  0.7816164E-02  0.1266605E+00
        -11   -1    0    0    0    0  0.00000000000E+00  0.00000000000E+00  0.45593999997E+02  0.45594000000E+02  0.51100000000E-03 0. -1.
         11   -1    0    0    0    0 -0.00000000000E+00 -0.00000000000E+00 -0.45593999997E+02  0.45594000000E+02  0.51100000000E-03 0.  1.
    9900012    2    1    2    0    0  0.12261992562E+02  0.25992544878E+02 -0.13811312278E+02  0.59301934114E+02  0.49999981920E+02 0.  0.
         12    1    1    2    0    0 -0.12261992562E+02 -0.25992544878E+02  0.13811312278E+02  0.31886065886E+02  0.00000000000E+00 0. -1.
         11    1    3    3    0    0  0.23795049509E+01  0.13006616241E+01  0.99197843367E+01  0.10283768085E+02  0.51100000000E-03 0. -1.
        -11    1    3    3    0    0 -0.68928000624E+01  0.24644090129E+02 -0.18017386763E+02  0.31296455023E+02  0.51100000000E-03 0.  1.
        -12    1    3    3    0    0  0.16775287674E+02  0.47793124478E-01 -0.57137098517E+01  0.17721711006E+02  0.00000000000E+00 0.  1.
</event>
<event>
 7    1  0.4346085E-013  0.5930194E+02  0.7816164E-02  0.1266605E+00
        -11   -1    0    0    0    0  0.00000000000E+00  0.00000000000E+00  0.45593999997E+02  0.45594000000E+02  0.51100000000E-03 0.  1.
         11   -1    0    0    0    0 -0.00000000000E+00 -0.00000000000E+00 -0.45593999997E+02  0.45594000000E+02  0.51100000000E-03 0. -1.
    9900012    2    1    2    0    0  0.11096779812E+02 -0.29059985538E+02 -0.70071032284E+01  0.59301940706E+02  0.49999993942E+02 0.  0.
         12    1    1    2    0    0 -0.11096779812E+02  0.29059985538E+02  0.70071032284E+01  0.31886059294E+02  0.00000000000E+00 0. -1.
         11    1    3    3    0    0 -0.93933626353E+01 -0.65992457666E+01 -0.82483133220E+01  0.14135769495E+02  0.51100000000E-03 0. -1.
        -11    1    3    3    0    0  0.12477088584E+02 -0.30746969970E+02  0.36752089619E+01  0.33385042505E+02  0.51100000000E-03 0.  1.
        -12    1    3    3    0    0  0.80130538629E+01  0.82862301986E+01 -0.24339988683E+01  0.11781128707E+02  0.00000000000E+00 0.  1.
</event>
<event>
 7    1  0.4346085E-013  0.5930190E+02  0.7816164E-02  0.1266605E+00
        -11   -1    0    0    0    0  0.00000000000E+00  0.00000000000E+00  0.45593999997E+02  0.45594000000E+02  0.51100000000E-03 0.  1.
         11   -1    0    0    0    0 -0.00000000000E+00 -0.00000000000E+00 -0.45593999997E+02  0.45594000000E+02  0.51100000000E-03 0. -1.
    9900012    2    1    2    0    0 -0.91609060501E+01 -0.23540079046E+02  0.19459339712E+02  0.59301899216E+02  0.49999918274E+02 0.  0.
         12    1    1    2    0    0  0.91609060501E+01  0.23540079046E+02 -0.19459339712E+02  0.31886100784E+02  0.00000000000E+00 0. -1.
         11    1    3    3    0    0  0.13251818742E+02 -0.93353103687E+01  0.40732542215E+01  0.16713770367E+02  0.51100000000E-03 0. -1.
        -11    1    3    3    0    0 -0.17270459139E+02  0.19151269176E+01  0.18503218312E+02  0.25383174706E+02  0.51100000000E-03 0.  1.
        -12    1    3    3    0    0 -0.51422656529E+01 -0.16119895595E+02 -0.31171328216E+01  0.17204954143E+02  0.00000000000E+00 0.  1.
</event>
<event>
 7    1  0.4346085E-013  0.5930195E+02  0.7816164E-02  0.1266605E+00
        -11   -1    0    0    0    0  0.00000000000E+00  0.00000000000E+00  0.45593999997E+02  0.45594000000E+02  0.51100000000E-03 0. -1.
         11   -1    0    0    0    0 -0.00000000000E+00 -0.00000000000E+00 -0.45593999997E+02  0.45594000000E+02  0.51100000000E-03 0.  1.
    9900012    2    1    2    0    0 -0.30229928971E+02 -0.34963076778E+01 -0.95208859598E+01  0.59301952229E+02  0.50000014958E+02 0.  0.
         12    1    1    2    0    0  0.30229928971E+02  0.34963076778E+01  0.95208859598E+01  0.31886047771E+02  0.00000000000E+00 0. -1.
         11    1    3    3    0    0  0.44657344240E+01  0.85741239435E+01 -0.73489111685E+01  0.12143511888E+02  0.51100000000E-03 0. -1.
        -11    1    3    3    0    0 -0.29306621684E+02 -0.19072057230E+02 -0.88672160892E+01  0.36072828597E+02  0.51100000000E-03 0.  1.
         12    1    3    3    0    0 -0.53890417108E+01  0.70016256087E+01  0.66952412979E+01  0.11085611745E+02  0.00000000000E+00 0. -1.
</event>
<event>
 7    1  0.4346085E-013  0.5930195E+02  0.7816164E-02  0.1266605E+00
        -11   -1    0    0    0    0  0.00000000000E+00  0.00000000000E+00  0.45593999997E+02  0.45594000000E+02  0.51100000000E-03 0.  1.
         11   -1    0    0    0    0 -0.00000000000E+00 -0.00000000000E+00 -0.45593999997E+02  0.45594000000E+02  0.51100000000E-03 0. -1.
    9900012    2    1    2    0    0 -0.31511297106E+02 -0.15026164659E+01  0.46368956109E+01  0.59301945015E+02  0.50000001801E+02 0.  0.
         12    1    1    2    0    0  0.31511297106E+02  0.15026164659E+01 -0.46368956109E+01  0.31886054985E+02  0.00000000000E+00 0. -1.
         11    1    3    3    0    0 -0.16966215812E+02  0.13318608119E+02 -0.15669747359E+02  0.26660434801E+02  0.51100000000E-03 0. -1.
        -11    1    3    3    0    0 -0.12426058418E+02 -0.38350896476E+01  0.55908444162E+01  0.14155295192E+02  0.51100000000E-03 0.  1.
         12    1    3    3    0    0 -0.21190228761E+01 -0.10986134937E+02  0.14715798554E+02  0.18486215023E+02  0.00000000000E+00 0. -1.
</event>
<event>
 7    1  0.4346085E-013  0.5930192E+02  0.7816164E-02  0.1266605E+00
        -11   -1    0    0    0    0  0.00000000000E+00  0.00000000000E+00  0.45593999997E+02  0.45594000000E+02  0.51100000000E-03 0.  1.
         11   -1    0    0    0    0 -0.00000000000E+00 -0.00000000000E+00 -0.45593999997E+02  0.45594000000E+02  0.51100000000E-03 0. -1.
    9900012    2    1    2    0    0 -0.21048017586E+02 -0.13103623940E+02  0.20049888662E+02  0.59301920905E+02  0.49999957830E+02 0.  0.
         12    1    1    2    0    0  0.21048017586E+02  0.13103623940E+02 -0.20049888662E+02  0.31886079095E+02  0.00000000000E+00 0. -1.
         11    1    3    3    0    0  0.22950990819E+01  0.13230986428E+01  0.26535378590E+02  0.26667290583E+02  0.51100000000E-03 0. -1.
        -11    1    3    3    0    0 -0.16074073275E+02 -0.21217073913E+01 -0.83235500871E+01  0.18225228674E+02  0.51100000000E-03 0.  1.
        -12    1    3    3    0    0 -0.72690433929E+01 -0.12305015192E+02  0.18380601584E+01  0.14409401649E+02  0.00000000000E+00 0.  1.
</event>
<event>
 7    1  0.4346085E-013  0.5930196E+02  0.7816164E-02  0.1266605E+00
        -11   -1    0    0    0    0  0.00000000000E+00  0.00000000000E+00  0.45593999997E+02  0.45594000000E+02  0.51100000000E-03 0. -1.
         11   -1    0    0    0    0 -0.00000000000E+00 -0.00000000000E+00 -0.45593999997E+02  0.45594000000E+02  0.51100000000E-03 0.  1.
    9900012    2    1    2    0    0  0.29185312601E+02 -0.67026702863E+01  0.10954973586E+02  0.59301957491E+02  0.50000024554E+02 0.  0.
         12    1    1    2    0    0 -0.29185312601E+02  0.67026702863E+01 -0.10954973586E+02  0.31886042509E+02  0.00000000000E+00 0. -1.
         11    1    3    3    0    0  0.27355719924E+02  0.11754107363E+02  0.10239855589E+02  0.31485696677E+02  0.51100000000E-03 0. -1.
        -11    1    3    3    0    0 -0.85742553804E+01 -0.12033842829E+02  0.36961774188E+01  0.15231314991E+02  0.51100000000E-03 0.  1.
         12    1    3    3    0    0  0.10403848058E+02 -0.64229348199E+01 -0.29810594215E+01  0.12584945824E+02  0.00000000000E+00 0. -1.
</event>
<event>
 7    1  0.4346085E-013  0.5930205E+02  0.7816164E-02  0.1266604E+00
        -11   -1    0    0    0    0  0.00000000000E+00  0.00000000000E+00  0.45593999997E+02  0.45594000000E+02  0.51100000000E-03 0. -1.
         11   -1    0    0    0    0 -0.00000000000E+00 -0.00000000000E+00 -0.45593999997E+02  0.45594000000E+02  0.51100000000E-03 0.  1.
    9900012    2    1    2    0    0 -0.84936817539E+01 -0.12964246382E+02 -0.27865738049E+02  0.59302052138E+02  0.50000197168E+02 0.  0.
         12    1    1    2    0    0  0.84936817539E+01  0.12964246382E+02  0.27865738049E+02  0.31885947862E+02  0.00000000000E+00 0. -1.
         11    1    3    3    0    0 -0.18634260034E+02 -0.70165221945E+01 -0.29568934433E+01  0.20129839787E+02  0.51100000000E-03 0. -1.
        -11    1    3    3    0    0  0.81966808380E+00  0.57297892930E+00 -0.27489586543E+02  0.27507772160E+02  0.51100000000E-03 0.  1.
        -12    1    3    3    0    0  0.93209101968E+01 -0.65207031171E+01  0.25807419374E+01  0.11664440192E+02  0.00000000000E+00 0.  1.
</event>
<event>
 7    1  0.4346085E-013  0.5930198E+02  0.7816164E-02  0.1266605E+00
        -11   -1    0    0    0    0  0.00000000000E+00  0.00000000000E+00  0.45593999997E+02  0.45594000000E+02  0.51100000000E-03 0.  1.
         11   -1    0    0    0    0 -0.00000000000E+00 -0.00000000000E+00 -0.45593999997E+02  0.45594000000E+02  0.51100000000E-03 0. -1.
    9900012    2    1    2    0    0 -0.10900475811E+02 -0.86211807905E+01 -0.28697966348E+02  0.59301977927E+02  0.50000061823E+02 0.  0.
         12    1    1    2    0    0  0.10900475811E+02  0.86211807905E+01  0.28697966348E+02  0.31886022073E+02  0.00000000000E+00 0. -1.
         11    1    3    3    0    0 -0.22934064273E+02  0.79538706592E+01 -0.29938524684E+02  0.38542841398E+02  0.51100000000E-03 0. -1.
        -11    1    3    3    0    0  0.85538406606E+01 -0.13782674283E+02  0.44667141543E+00  0.16227440219E+02  0.51100000000E-03 0.  1.
         12    1    3    3    0    0  0.34797478012E+01 -0.27923771662E+01  0.79388691995E+00  0.45316963093E+01  0.00000000000E+00 0. -1.
</event>
<event>
 7    1  0.4776256E-013  0.5930194E+02  0.7816164E-02  0.1266605E+00
        -11   -1    0    0    0    0  0.00000000000E+00  0.00000000000E+00  0.45593999997E+02  0.45594000000E+02  0.51100000000E-03 0. -1.
         11   -1    0    0    0    0 -0.00000000000E+00 -0.00000000000E+00 -0.45593999997E+02  0.45594000000E+02  0.51100000000E-03 0.  1.
    9900012    2    1    2    0    0  0.20867148424E+02  0.25466321626E-01 -0.24109795867E+02  0.59301940529E+02  0.49999993618E+02 0.  0.
         12    1    1    2    0    0 -0.20867148424E+02 -0.25466321626E-01  0.24109795867E+02  0.31886059471E+02  0.00000000000E+00 0. -1.
         11    1    3    3    0    0  0.17855914849E+01  0.56624481483E+01  0.12072527269E+02  0.13453533770E+02  0.51100000000E-03 0. -1.
        -11    1    3    3    0    0  0.46451631149E+01  0.30047940147E+01 -0.25097184609E+02  0.25699708228E+02  0.51100000000E-03 0.  1.
         12    1    3    3    0    0  0.14436393824E+02 -0.86417758413E+01 -0.11085138526E+02  0.20148698531E+02  0.00000000000E+00 0. -1.
</event>
<event>
 7    1  0.4346085E-013  0.5930189E+02  0.7816164E-02  0.1266605E+00
        -11   -1    0    0    0    0  0.00000000000E+00  0.00000000000E+00  0.45593999997E+02  0.45594000000E+02  0.51100000000E-03 0.  1.
         11   -1    0    0    0    0 -0.00000000000E+00 -0.00000000000E+00 -0.45593999997E+02  0.45594000000E+02  0.51100000000E-03 0. -1.
    9900012    2    1    2    0    0 -0.29821471772E+01  0.31745733902E+02 -0.19874216893E+00  0.59301885135E+02  0.49999892593E+02 0.  0.
         12    1    1    2    0    0  0.29821471772E+01 -0.31745733902E+02  0.19874216893E+00  0.31886114865E+02  0.00000000000E+00 0. -1.
         11    1    3    3    0    0  0.93018524372E+01  0.10532860760E+02 -0.21371281261E+01  0.14213828880E+02  0.51100000000E-03 0. -1.
        -11    1    3    3    0    0 -0.10404419751E+02 -0.51866972209E+01 -0.10662770845E+02  0.15774931403E+02  0.51100000000E-03 0.  1.
        -12    1    3    3    0    0 -0.18795798635E+01  0.26399570363E+02  0.12601156802E+02  0.29313124851E+02  0.00000000000E+00 0.  1.
</event>
<event>
 7    1  0.4346085E-013  0.5930195E+02  0.7816164E-02  0.1266605E+00
        -11   -1    0    0    0    0  0.00000000000E+00  0.00000000000E+00  0.45593999997E+02  0.45594000000E+02  0.51100000000E-03 0.  1.
         11   -1    0    0    0    0 -0.00000000000E+00 -0.00000000000E+00 -0.45593999997E+02  0.45594000000E+02  0.51100000000E-03 0. -1.
    9900012    2    1    2    0    0  0.15142233093E+02  0.18779854604E+02  0.20850655751E+02  0.59301952781E+02  0.50000015965E+02 0.  0.
         12    1    1    2    0    0 -0.15142233093E+02 -0.18779854604E+02 -0.20850655751E+02  0.31886047219E+02  0.00000000000E+00 0. -1.
         11    1    3    3    0    0  0.92121808011E+00  0.30820544001E+02  0.25395511425E+01  0.30938711924E+02  0.51100000000E-03 0. -1.
        -11    1    3    3    0    0  0.15469521055E+02 -0.12078714176E+02  0.14639619809E+02  0.24485095185E+02  0.51100000000E-03 0.  1.
         12    1    3    3    0    0 -0.12485060414E+01  0.38024778965E-01  0.36714847996E+01  0.38781456720E+01  0.00000000000E+00 0. -1.
</event>
<event>
 7    1  0.4346085E-013  0.5930194E+02  0.7816164E-02  0.1266605E+00
        -11   -1    0    0    0    0  0.00000000000E+00  0.00000000000E+00  0.45593999997E+02  0.45594000000E+02  0.51100000000E-03 0.  1.
         11   -1    0    0    0    0 -0.00000000000E+00 -0.00000000000E+00 -0.45593999997E+02  0.45594000000E+02  0.51100000000E-03 0. -1.
    9900012    2    1    2    0    0 -0.53112237936E+01 -0.14457275468E+01  0.31407349504E+02  0.59301939892E+02  0.49999992457E+02 0.  0.
         12    1    1    2    0    0  0.53112237936E+01  0.14457275468E+01 -0.31407349504E+02  0.31886060108E+02  0.00000000000E+00 0. -1.
         11    1    3    3    0    0  0.31099593269E+01 -0.18356159004E+02  0.19174703605E+02  0.26726198364E+02  0.51100000000E-03 0.  1.
        -11    1    3    3    0    0 -0.10400158106E+02  0.39563554995E+01 -0.39004713013E+01  0.11791086213E+02  0.51100000000E-03 0. -1.
        -12    1    3    3    0    0  0.19789749852E+01  0.12954075958E+02  0.16133117201E+02  0.20784655314E+02  0.00000000000E+00 0.  1.
</event>
<event>
 7    1  0.4346085E-013  0.5930198E+02  0.7816164E-02  0.1266605E+00
        -11   -1    0    0    0    0  0.00000000000E+00  0.00000000000E+00  0.45593999997E+02  0.45594000000E+02  0.51100000000E-03 0.  1.
         11   -1    0    0    0    0 -0.00000000000E+00 -0.00000000000E+00 -0.45593999997E+02  0.45594000000E+02  0.51100000000E-03 0. -1.
    9900012    2    1    2    0    0  0.19144161088E+02 -0.11885322995E+02  0.22560113011E+02  0.59301976329E+02  0.50000058910E+02 0.  0.
         12    1    1    2    0    0 -0.19144161088E+02  0.11885322995E+02 -0.22560113011E+02  0.31886023671E+02  0.00000000000E+00 0. -1.
         11    1    3    3    0    0  0.90995008142E+01 -0.39787496106E+01  0.24693816838E+02  0.26616084495E+02  0.51100000000E-03 0.  1.
        -11    1    3    3    0    0 -0.74807876491E+01 -0.34685692640E+01 -0.10007513745E+02  0.12967015393E+02  0.51100000000E-03 0. -1.
         12    1    3    3    0    0  0.17525447923E+02 -0.44380041203E+01  0.78738099178E+01  0.19718876441E+02  0.00000000000E+00 0. -1.
</event>
<event>
 7    1  0.4346085E-013  0.5930195E+02  0.7816164E-02  0.1266605E+00
        -11   -1    0    0    0    0  0.00000000000E+00  0.00000000000E+00  0.45593999997E+02  0.45594000000E+02  0.51100000000E-03 0. -1.
         11   -1    0    0    0    0 -0.00000000000E+00 -0.00000000000E+00 -0.45593999997E+02  0.45594000000E+02  0.51100000000E-03 0.  1.
    9900012    2    1    2    0    0  0.11400059416E+01  0.31079396704E+02 -0.70350391911E+01  0.59301948356E+02  0.50000007893E+02 0.  0.
         12    1    1    2    0    0 -0.11400059416E+01 -0.31079396704E+02  0.70350391911E+01  0.31886051644E+02  0.00000000000E+00 0. -1.
         11    1    3    3    0    0 -0.21063109156E+02  0.89267144551E+01  0.52328381101E+01  0.23467496526E+02  0.51100000000E-03 0. -1.
        -11    1    3    3    0    0  0.95333752741E+01  0.15639890407E+02 -0.11374390565E+02  0.21560801864E+02  0.51100000000E-03 0.  1.
         12    1    3    3    0    0  0.12669739823E+02  0.65127918426E+01 -0.89348673663E+00  0.14273649965E+02  0.00000000000E+00 0. -1.
</event>
<event>
 7    1  0.4346085E-013  0.5930199E+02  0.7816164E-02  0.1266605E+00
        -11   -1    0    0    0    0  0.00000000000E+00  0.00000000000E+00  0.45593999997E+02  0.45594000000E+02  0.51100000000E-03 0.  1.
         11   -1    0    0    0    0 -0.00000000000E+00 -0.00000000000E+00 -0.45593999997E+02  0.45594000000E+02  0.51100000000E-03 0. -1.
    9900012    2    1    2    0    0 -0.24241230462E+02 -0.26238872683E+01  0.20547396070E+02  0.59301991721E+02  0.50000086982E+02 0.  0.
         12    1    1    2    0    0  0.24241230462E+02  0.26238872683E+01 -0.20547396070E+02  0.31886008279E+02  0.00000000000E+00 0. -1.
         11    1    3    3    0    0 -0.48824409190E+01  0.14578504278E+02 -0.10288644322E+02  0.18499384275E+02  0.51100000000E-03 0. -1.
        -11    1    3    3    0    0 -0.51389948452E+01 -0.28502277266E+01  0.11097138479E+02  0.12557051756E+02  0.51100000000E-03 0.  1.
         12    1    3    3    0    0 -0.14219794697E+02 -0.14352163819E+02  0.19738901913E+02  0.28245555690E+02  0.00000000000E+00 0. -1.
</event>
<event>
 7    1  0.4346085E-013  0.5930196E+02  0.7816164E-02  0.1266605E+00
        -11   -1    0    0    0    0  0.00000000000E+00  0.00000000000E+00  0.45593999997E+02  0.45594000000E+02  0.51100000000E-03 0.  1.
         11   -1    0    0    0    0 -0.00000000000E+00 -0.00000000000E+00 -0.45593999997E+02  0.45594000000E+02  0.51100000000E-03 0. -1.
    9900012    2    1    2    0    0  0.55460182505E+01 -0.31100323152E+02  0.43279531831E+01  0.59301959208E+02  0.50000027686E+02 0.  0.
         12    1    1    2    0    0 -0.55460182505E+01  0.31100323152E+02 -0.43279531831E+01  0.31886040792E+02  0.00000000000E+00 0. -1.
         11    1    3    3    0    0 -0.19467893772E+01  0.80215514829E+01  0.71012666840E+01  0.10888676038E+02  0.51100000000E-03 0. -1.
        -11    1    3    3    0    0  0.96218478076E+01 -0.17676123047E+02 -0.13605778411E+02  0.24292848487E+02  0.51100000000E-03 0.  1.
        -12    1    3    3    0    0 -0.21290401799E+01 -0.21445751588E+02  0.10832464910E+02  0.24120434683E+02  0.00000000000E+00 0.  1.
</event>
<event>
 7    1  0.4346085E-013  0.5930194E+02  0.7816164E-02  0.1266605E+00
        -11   -1    0    0    0    0  0.00000000000E+00  0.00000000000E+00  0.45593999997E+02  0.45594000000E+02  0.51100000000E-03 0. -1.
         11   -1    0    0    0    0 -0.00000000000E+00 -0.00000000000E+00 -0.45593999997E+02  0.45594000000E+02  0.51100000000E-03 0.  1.
    9900012    2    1    2    0    0  0.10660309548E+02 -0.25858849871E+02 -0.15310084647E+02  0.59301937085E+02  0.49999987338E+02 0.  0.
         12    1    1    2    0    0 -0.10660309548E+02  0.25858849871E+02  0.15310084647E+02  0.31886062915E+02  0.00000000000E+00 0. -1.
         11    1    3    3    0    0  0.81991214213E+01 -0.14811406299E+02 -0.21813510301E+02  0.27612181742E+02  0.51100000000E-03 0. -1.
        -11    1    3    3    0    0 -0.13199622247E+02 -0.36498943584E+01  0.29328489966E+01  0.14005476065E+02  0.51100000000E-03 0.  1.
         12    1    3    3    0    0  0.15660810374E+02 -0.73975492137E+01  0.35705766576E+01  0.17684279278E+02  0.00000000000E+00 0. -1.
</event>
<event>
 7    1  0.4346085E-013  0.5930197E+02  0.7816164E-02  0.1266605E+00
        -11   -1    0    0    0    0  0.00000000000E+00  0.00000000000E+00  0.45593999997E+02  0.45594000000E+02  0.51100000000E-03 0. -1.
         11   -1    0    0    0    0 -0.00000000000E+00 -0.00000000000E+00 -0.45593999997E+02  0.45594000000E+02  0.51100000000E-03 0.  1.
    9900012    2    1    2    0    0 -0.22354179468E+02 -0.52858711555E+01 -0.22114913221E+02  0.59301966061E+02  0.50000040184E+02 0.  0.
         12    1    1    2    0    0  0.22354179468E+02  0.52858711555E+01  0.22114913221E+02  0.31886033939E+02  0.00000000000E+00 0. -1.
         11    1    3    3    0    0 -0.22021573781E+02  0.12115388224E+02  0.51150807556E+01  0.25649491126E+02  0.51100000000E-03 0. -1.
        -11    1    3    3    0    0 -0.35019733933E+01 -0.14520090986E+02 -0.17410929847E+02  0.22939863519E+02  0.51100000000E-03 0.  1.
         12    1    3    3    0    0  0.31693677063E+01 -0.28811683931E+01 -0.98190641299E+01  0.10712611416E+02  0.00000000000E+00 0. -1.
</event>
<event>
 7    1  0.4346085E-013  0.5930196E+02  0.7816164E-02  0.1266605E+00
        -11   -1    0    0    0    0  0.00000000000E+00  0.00000000000E+00  0.45593999997E+02  0.45594000000E+02  0.51100000000E-03 0.  1.
         11   -1    0    0    0    0 -0.00000000000E+00 -0.00000000000E+00 -0.45593999997E+02  0.45594000000E+02  0.51100000000E-03 0. -1.
    9900012    2    1    2    0    0 -0.26022059003E+02 -0.10719667694E+02  0.14988693681E+02  0.59301956525E+02  0.50000022792E+02 0.  0.
         12    1    1    2    0    0  0.26022059003E+02  0.10719667694E+02 -0.14988693681E+02  0.31886043475E+02  0.00000000000E+00 0. -1.
         11    1    3    3    0    0  0.68514052384E+01 -0.49510549308E+01 -0.19711760291E-01  0.84531111127E+01  0.51100000000E-03 0. -1.
        -11    1    3    3    0    0 -0.24052686710E+02  0.13353919879E+02  0.79067076761E+01  0.28624726036E+02  0.51100000000E-03 0.  1.
        -12    1    3    3    0    0 -0.88207775310E+01 -0.19122532642E+02  0.71016977655E+01  0.22224119377E+02  0.00000000000E+00 0.  1.
</event>
<event>
 7    1  0.4346085E-013  0.5930197E+02  0.7816164E-02  0.1266605E+00
        -11   -1    0    0    0    0  0.00000000000E+00  0.00000000000E+00  0.45593999997E+02  0.45594000000E+02  0.51100000000E-03 0. -1.
         11   -1    0    0    0    0 -0.00000000000E+00 -0.00000000000E+00 -0.45593999997E+02  0.45594000000E+02  0.51100000000E-03 0.  1.
    9900012    2    1    2    0    0 -0.28735455949E+02 -0.10680946665E+02 -0.87698199597E+01  0.59301971831E+02  0.50000050707E+02 0.  0.
         12    1    1    2    0    0  0.28735455949E+02  0.10680946665E+02  0.87698199597E+01  0.31886028169E+02  0.00000000000E+00 0. -1.
         11    1    3    3    0    0 -0.10410315983E+02  0.10114456252E+02 -0.12520203381E+02  0.19168526211E+02  0.51100000000E-03 0. -1.
        -11    1    3    3    0    0 -0.19711515933E+02 -0.22870271842E+02  0.11257039976E+02  0.32222882302E+02  0.51100000000E-03 0.  1.
        -12    1    3    3    0    0  0.13863759675E+01  0.20748689248E+01 -0.75066565553E+01  0.79105633185E+01  0.00000000000E+00 0.  1.
</event>
<event>
 7    1  0.4346085E-013  0.5930201E+02  0.7816164E-02  0.1266605E+00
        -11   -1    0    0    0    0  0.00000000000E+00  0.00000000000E+00  0.45593999997E+02  0.45594000000E+02  0.51100000000E-03 0.  1.
         11   -1    0    0    0    0 -0.00000000000E+00 -0.00000000000E+00 -0.45593999997E+02  0.45594000000E+02  0.51100000000E-03 0. -1.
    9900012    2    1    2    0    0 -0.16440787852E+02 -0.63729259863E+01  0.26566948256E+02  0.59302008868E+02  0.50000118252E+02 0.  0.
         12    1    1    2    0    0  0.16440787852E+02  0.63729259863E+01 -0.26566948256E+02  0.31885991132E+02  0.00000000000E+00 0. -1.
         11    1    3    3    0    0 -0.61817787330E+01 -0.11339625444E+02 -0.66428245724E+01  0.14523381565E+02  0.51100000000E-03 0. -1.
        -11    1    3    3    0    0  0.81329182220E+01  0.39040142768E+01  0.20499778394E+02  0.22397022140E+02  0.51100000000E-03 0.  1.
        -12    1    3    3    0    0 -0.18391927341E+02  0.10626851814E+01  0.12709994435E+02  0.22381605163E+02  0.00000000000E+00 0.  1.
</event>
<event>
 7    1  0.4346085E-013  0.5930196E+02  0.7816164E-02  0.1266605E+00
        -11   -1    0    0    0    0  0.00000000000E+00  0.00000000000E+00  0.45593999997E+02  0.45594000000E+02  0.51100000000E-03 0. -1.
         11   -1    0    0    0    0 -0.00000000000E+00 -0.00000000000E+00 -0.45593999997E+02  0.45594000000E+02  0.51100000000E-03 0.  1.
    9900012    2    1    2    0    0 -0.29254444411E+02 -0.42547324983E+01 -0.11949665408E+02  0.59301956505E+02  0.50000022755E+02 0.  0.
         12    1    1    2    0    0  0.29254444411E+02  0.42547324983E+01  0.11949665408E+02  0.31886043495E+02  0.00000000000E+00 0. -1.
         11    1    3    3    0    0 -0.53325349333E+01  0.57677255355E+01  0.15178925299E+02  0.17091002316E+02  0.51100000000E-03 0. -1.
        -11    1    3    3    0    0 -0.20598284583E+02 -0.15530333925E+02 -0.20272214157E+02  0.32809194850E+02  0.51100000000E-03 0.  1.
        -12    1    3    3    0    0 -0.33236248938E+01  0.55078758914E+01 -0.68563765506E+01  0.94017593392E+01  0.00000000000E+00 0.  1.
</event>
<event>
 7    1  0.4346085E-013  0.5930194E+02  0.7816164E-02  0.1266605E+00
        -11   -1    0    0    0    0  0.00000000000E+00  0.00000000000E+00  0.45593999997E+02  0.45594000000E+02  0.51100000000E-03 0. -1.
         11   -1    0    0    0    0 -0.00000000000E+00 -0.00000000000E+00 -0.45593999997E+02  0.45594000000E+02  0.51100000000E-03 0.  1.
    9900012    2    1    2    0    0 -0.23820860485E+02 -0.14092834557E+02  0.15832860987E+02  0.59301939298E+02  0.49999991374E+02 0.  0.
         12    1    1    2    0    0  0.23820860485E+02  0.14092834557E+02 -0.15832860987E+02  0.31886060702E+02  0.00000000000E+00 0. -1.
         11    1    3    3    0    0 -0.11842358338E+02 -0.30968754249E+02  0.18940234126E+02  0.38184259319E+02  0.51100000000E-03 0. -1.
        -11    1    3    3    0    0 -0.72043530840E+01  0.78153463442E+01 -0.11556128104E+01  0.10691949451E+02  0.51100000000E-03 0.  1.
         12    1    3    3    0    0 -0.47741490621E+01  0.90605733472E+01 -0.19517603289E+01  0.10425730527E+02  0.00000000000E+00 0. -1.
</event>
<event>
 7    1  0.4346085E-013  0.5930194E+02  0.7816164E-02  0.1266605E+00
        -11   -1    0    0    0    0  0.00000000000E+00  0.00000000000E+00  0.45593999997E+02  0.45594000000E+02  0.51100000000E-03 0. -1.
         11   -1    0    0    0    0 -0.00000000000E+00 -0.00000000000E+00 -0.45593999997E+02  0.45594000000E+02  0.51100000000E-03 0.  1.
    9900012    2    1    2    0    0  0.18837335103E+02  0.24803897972E+02 -0.68295125593E+01  0.59301940504E+02  0.49999993573E+02 0.  0.
         12    1    1    2    0    0 -0.18837335103E+02 -0.24803897972E+02  0.68295125593E+01  0.31886059496E+02  0.00000000000E+00 0. -1.
         11    1    3    3    0    0 -0.60769591012E+01 -0.84009387798E+01 -0.99110672713E+01  0.14343446553E+02  0.51100000000E-03 0. -1.
        -11    1    3    3    0    0  0.24686868995E+02  0.20385484491E+02  0.27360995650E+01  0.32132471424E+02  0.51100000000E-03 0.  1.
        -12    1    3    3    0    0  0.22742521006E+00  0.12819352261E+02  0.34545514702E+00  0.12826022527E+02  0.00000000000E+00 0.  1.
</event>
<event>
 7    1  0.4346085E-013  0.5930199E+02  0.7816164E-02  0.1266605E+00
        -11   -1    0    0    0    0  0.00000000000E+00  0.00000000000E+00  0.45593999997E+02  0.45594000000E+02  0.51100000000E-03 0.  1.
         11   -1    0    0    0    0 -0.00000000000E+00 -0.00000000000E+00 -0.45593999997E+02  0.45594000000E+02  0.51100000000E-03 0. -1.
    9900012    2    1    2    0    0  0.14086336588E+01 -0.31849574581E+02 -0.58136774761E+00  0.59301989929E+02  0.50000083713E+02 0.  0.
         12    1    1    2    0    0 -0.14086336588E+01  0.31849574581E+02  0.58136774761E+00  0.31886010071E+02  0.00000000000E+00 0. -1.
         11    1    3    3    0    0  0.56085854642E+01  0.10340103432E+02  0.93986238743E+01  0.15056829045E+02  0.51100000000E-03 0. -1.
        -11    1    3    3    0    0 -0.17550949461E+01 -0.31743099647E+02 -0.42274651208E+01  0.32071423340E+02  0.51100000000E-03 0.  1.
         12    1    3    3    0    0 -0.24448568593E+01 -0.10446578367E+02 -0.57525265010E+01  0.12173737544E+02  0.00000000000E+00 0. -1.
</event>
<event>
 7    1  0.4346085E-013  0.5930196E+02  0.7816164E-02  0.1266605E+00
        -11   -1    0    0    0    0  0.00000000000E+00  0.00000000000E+00  0.45593999997E+02  0.45594000000E+02  0.51100000000E-03 0. -1.
         11   -1    0    0    0    0 -0.00000000000E+00 -0.00000000000E+00 -0.45593999997E+02  0.45594000000E+02  0.51100000000E-03 0.  1.
    9900012    2    1    2    0    0  0.26894412910E+02 -0.16759581554E+02  0.35392463988E+01  0.59301964111E+02  0.50000036628E+02 0.  0.
         12    1    1    2    0    0 -0.26894412910E+02  0.16759581554E+02 -0.35392463988E+01  0.31886035889E+02  0.00000000000E+00 0. -1.
         11    1    3    3    0    0  0.17487228491E+02  0.90320765062E+01  0.15894314086E+02  0.25298434474E+02  0.51100000000E-03 0. -1.
        -11    1    3    3    0    0  0.35022580831E+01 -0.20845481260E+02 -0.21916389542E+01  0.21250957207E+02  0.51100000000E-03 0.  1.
         12    1    3    3    0    0  0.59049263357E+01 -0.49461767998E+01 -0.10163428733E+02  0.12752572430E+02  0.00000000000E+00 0. -1.
</event>
<event>
 7    1  0.4346085E-013  0.5930208E+02  0.7816164E-02  0.1266604E+00
        -11   -1    0    0    0    0  0.00000000000E+00  0.00000000000E+00  0.45593999997E+02  0.45594000000E+02  0.51100000000E-03 0.  1.
         11   -1    0    0    0    0 -0.00000000000E+00 -0.00000000000E+00 -0.45593999997E+02  0.45594000000E+02  0.51100000000E-03 0. -1.
    9900012    2    1    2    0    0 -0.37184598696E+01 -0.29215034825E+02  0.12221573609E+02  0.59302077320E+02  0.50000243093E+02 0.  0.
         12    1    1    2    0    0  0.37184598696E+01  0.29215034825E+02 -0.12221573609E+02  0.31885922680E+02  0.00000000000E+00 0. -1.
         11    1    3    3    0    0 -0.62297804693E+01  0.71936859885E+01 -0.21679245005E+01  0.97600809268E+01  0.51100000000E-03 0. -1.
        -11    1    3    3    0    0 -0.21208313394E+00 -0.14395083076E+02  0.21826595528E+02  0.26146962895E+02  0.51100000000E-03 0.  1.
         12    1    3    3    0    0  0.27234037337E+01 -0.22013637738E+02 -0.74370974186E+01  0.23395033498E+02  0.00000000000E+00 0. -1.
</event>
<event>
 7    1  0.4346085E-013  0.5930193E+02  0.7816164E-02  0.1266605E+00
        -11   -1    0    0    0    0  0.00000000000E+00  0.00000000000E+00  0.45593999997E+02  0.45594000000E+02  0.51100000000E-03 0.  1.
         11   -1    0    0    0    0 -0.00000000000E+00 -0.00000000000E+00 -0.45593999997E+02  0.45594000000E+02  0.51100000000E-03 0. -1.
    9900012    2    1    2    0    0 -0.20251967157E+02  0.17855545428E+02  0.16963451445E+02  0.59301931550E+02  0.49999977244E+02 0.  0.
         12    1    1    2    0    0  0.20251967157E+02 -0.17855545428E+02 -0.16963451445E+02  0.31886068450E+02  0.00000000000E+00 0. -1.
         11    1    3    3    0    0  0.87148972352E+01 -0.75315180747E+01  0.12040325434E+02  0.16662611895E+02  0.51100000000E-03 0. -1.
        -11    1    3    3    0    0 -0.16028664095E+02  0.30318400548E+01  0.39870613742E+01  0.16793057656E+02  0.51100000000E-03 0.  1.
         12    1    3    3    0    0 -0.12938200297E+02  0.22355223448E+02  0.93606463628E+00  0.25846261999E+02  0.00000000000E+00 0. -1.
</event>
<event>
 7    1  0.4346085E-013  0.5930193E+02  0.7816164E-02  0.1266605E+00
        -11   -1    0    0    0    0  0.00000000000E+00  0.00000000000E+00  0.45593999997E+02  0.45594000000E+02  0.51100000000E-03 0.  1.
         11   -1    0    0    0    0 -0.00000000000E+00 -0.00000000000E+00 -0.45593999997E+02  0.45594000000E+02  0.51100000000E-03 0. -1.
    9900012    2    1    2    0    0 -0.18850415053E+02  0.25697256685E+02  0.10171526228E+01  0.59301925481E+02  0.49999966175E+02 0.  0.
         12    1    1    2    0    0  0.18850415053E+02 -0.25697256685E+02 -0.10171526228E+01  0.31886074519E+02  0.00000000000E+00 0. -1.
         11    1    3    3    0    0  0.12074431944E+02  0.11943977919E+02 -0.17062815457E+01  0.17069326650E+02  0.51100000000E-03 0. -1.
        -11    1    3    3    0    0 -0.19466290051E+02  0.20630671089E+02 -0.92379807631E+00  0.28379824543E+02  0.51100000000E-03 0.  1.
        -12    1    3    3    0    0 -0.11458556945E+02 -0.68773923236E+01  0.36472322448E+01  0.13852774289E+02  0.00000000000E+00 0.  1.
</event>
<event>
 7    1  0.4346085E-013  0.5930194E+02  0.7816164E-02  0.1266605E+00
        -11   -1    0    0    0    0  0.00000000000E+00  0.00000000000E+00  0.45593999997E+02  0.45594000000E+02  0.51100000000E-03 0.  1.
         11   -1    0    0    0    0 -0.00000000000E+00 -0.00000000000E+00 -0.45593999997E+02  0.45594000000E+02  0.51100000000E-03 0. -1.
    9900012    2    1    2    0    0 -0.31034093136E+02  0.88723921357E+00  0.72676627590E+01  0.59301936396E+02  0.49999986081E+02 0.  0.
         12    1    1    2    0    0  0.31034093136E+02 -0.88723921357E+00 -0.72676627590E+01  0.31886063604E+02  0.00000000000E+00 0. -1.
         11    1    3    3    0    0 -0.37191551829E+02  0.10319824776E+02 -0.51803964190E+01  0.38942866076E+02  0.51100000000E-03 0. -1.
        -11    1    3    3    0    0  0.47916881775E+01 -0.85381740206E+01  0.22695309468E+01  0.10050445869E+02  0.51100000000E-03 0.  1.
         12    1    3    3    0    0  0.13657705157E+01 -0.89441154202E+00  0.10178528231E+02  0.10308624450E+02  0.00000000000E+00 0. -1.
</event>
<event>
 7    1  0.4346085E-013  0.5930200E+02  0.7816164E-02  0.1266605E+00
        -11   -1    0    0    0    0  0.00000000000E+00  0.00000000000E+00  0.45593999997E+02  0.45594000000E+02  0.51100000000E-03 0. -1.
         11   -1    0    0    0    0 -0.00000000000E+00 -0.00000000000E+00 -0.45593999997E+02  0.45594000000E+02  0.51100000000E-03 0.  1.
    9900012    2    1    2    0    0  0.11627062794E+02 -0.17590675950E+02 -0.23918541044E+02  0.59301998756E+02  0.50000099812E+02 0.  0.
         12    1    1    2    0    0 -0.11627062794E+02  0.17590675950E+02  0.23918541044E+02  0.31886001244E+02  0.00000000000E+00 0. -1.
         11    1    3    3    0    0 -0.13515710418E+02 -0.55168654979E+01 -0.46543486723E+01  0.15322310363E+02  0.51100000000E-03 0. -1.
        -11    1    3    3    0    0  0.19767471874E+02 -0.14747117481E+02 -0.92147109820E+00  0.24679536615E+02  0.51100000000E-03 0.  1.
        -12    1    3    3    0    0  0.53753013385E+01  0.26733070290E+01 -0.18342721274E+02  0.19300151779E+02  0.00000000000E+00 0.  1.
</event>
<event>
 7    1  0.4346085E-013  0.5930192E+02  0.7816164E-02  0.1266605E+00
        -11   -1    0    0    0    0  0.00000000000E+00  0.00000000000E+00  0.45593999997E+02  0.45594000000E+02  0.51100000000E-03 0.  1.
         11   -1    0    0    0    0 -0.00000000000E+00 -0.00000000000E+00 -0.45593999997E+02  0.45594000000E+02  0.51100000000E-03 0. -1.
    9900012    2    1    2    0    0  0.18046670557E+02  0.20268371429E+02  0.16740152225E+02  0.59301923178E+02  0.49999961975E+02 0.  0.
         12    1    1    2    0    0 -0.18046670557E+02 -0.20268371429E+02 -0.16740152225E+02  0.31886076822E+02  0.00000000000E+00 0. -1.
         11    1    3    3    0    0 -0.41931147270E+00 -0.28861223167E+01  0.24945788548E+02  0.25115690129E+02  0.51100000000E-03 0.  1.
        -11    1    3    3    0    0  0.73451422421E+01  0.10416798079E+02 -0.11255303041E+02  0.17004194882E+02  0.51100000000E-03 0. -1.
        -12    1    3    3    0    0  0.11120839788E+02  0.12737695667E+02  0.30496667184E+01  0.17182038167E+02  0.00000000000E+00 0.  1.
</event>
<event>
 7    1  0.4346085E-013  0.5930198E+02  0.7816164E-02  0.1266605E+00
        -11   -1    0    0    0    0  0.00000000000E+00  0.00000000000E+00  0.45593999997E+02  0.45594000000E+02  0.51100000000E-03 0.  1.
         11   -1    0    0    0    0 -0.00000000000E+00 -0.00000000000E+00 -0.45593999997E+02  0.45594000000E+02  0.51100000000E-03 0. -1.
    9900012    2    1    2    0    0 -0.10036097115E+02  0.91582375763E+01  0.28846517977E+02  0.59301981744E+02  0.50000068786E+02 0.  0.
         12    1    1    2    0    0  0.10036097115E+02 -0.91582375763E+01 -0.28846517977E+02  0.31886018256E+02  0.00000000000E+00 0. -1.
         11    1    3    3    0    0 -0.93898680172E-01  0.21006110196E+02  0.11422372078E+02  0.23911003047E+02  0.51100000000E-03 0. -1.
        -11    1    3    3    0    0  0.33738603568E+01 -0.13969204730E+02  0.13857531231E+01  0.14437518017E+02  0.51100000000E-03 0.  1.
        -12    1    3    3    0    0 -0.13316058792E+02  0.21213321106E+01  0.16038392776E+02  0.20953460681E+02  0.00000000000E+00 0.  1.
</event>
<event>
 7    1  0.4346085E-013  0.5930195E+02  0.7816164E-02  0.1266605E+00
        -11   -1    0    0    0    0  0.00000000000E+00  0.00000000000E+00  0.45593999997E+02  0.45594000000E+02  0.51100000000E-03 0.  1.
         11   -1    0    0    0    0 -0.00000000000E+00 -0.00000000000E+00 -0.45593999997E+02  0.45594000000E+02  0.51100000000E-03 0. -1.
    9900012    2    1    2    0    0  0.55781299520E+01 -0.15493653055E+02  0.27304782656E+02  0.59301953292E+02  0.50000016896E+02 0.  0.
         12    1    1    2    0    0 -0.55781299520E+01  0.15493653055E+02 -0.27304782656E+02  0.31886046708E+02  0.00000000000E+00 0. -1.
         11    1    3    3    0    0 -0.27295615289E+01  0.93945345537E+01  0.70823603799E+01  0.12077566577E+02  0.51100000000E-03 0. -1.
        -11    1    3    3    0    0 -0.10692863997E+02 -0.16161852312E+02  0.17551800623E+02  0.26145908207E+02  0.51100000000E-03 0.  1.
        -12    1    3    3    0    0  0.19000555478E+02 -0.87263352963E+01  0.26706216534E+01  0.21078478507E+02  0.00000000000E+00 0.  1.
</event>
<event>
 7    1  0.4346085E-013  0.5930195E+02  0.7816164E-02  0.1266605E+00
        -11   -1    0    0    0    0  0.00000000000E+00  0.00000000000E+00  0.45593999997E+02  0.45594000000E+02  0.51100000000E-03 0. -1.
         11   -1    0    0    0    0 -0.00000000000E+00 -0.00000000000E+00 -0.45593999997E+02  0.45594000000E+02  0.51100000000E-03 0.  1.
    9900012    2    1    2    0    0  0.24565025017E+02 -0.20015720873E+02 -0.35568023450E+01  0.59301946951E+02  0.50000005331E+02 0.  0.
         12    1    1    2    0    0 -0.24565025017E+02  0.20015720873E+02  0.35568023450E+01  0.31886053049E+02  0.00000000000E+00 0. -1.
         11    1    3    3    0    0  0.21410033044E+01 -0.33636007505E+01  0.16660848349E+02  0.17131303894E+02  0.51100000000E-03 0. -1.
        -11    1    3    3    0    0  0.13657954499E+02 -0.10704829248E+00 -0.19009913385E+02  0.23407861662E+02  0.51100000000E-03 0.  1.
         12    1    3    3    0    0  0.87660672133E+01 -0.16545071830E+02 -0.12077373086E+01  0.18762781394E+02  0.00000000000E+00 0. -1.
</event>
<event>
 7    1  0.4346085E-013  0.5930194E+02  0.7816164E-02  0.1266605E+00
        -11   -1    0    0    0    0  0.00000000000E+00  0.00000000000E+00  0.45593999997E+02  0.45594000000E+02  0.51100000000E-03 0.  1.
         11   -1    0    0    0    0 -0.00000000000E+00 -0.00000000000E+00 -0.45593999997E+02  0.45594000000E+02  0.51100000000E-03 0. -1.
    9900012    2    1    2    0    0 -0.22248804407E+02 -0.10897299016E+02  0.20073877267E+02  0.59301937654E+02  0.49999988376E+02 0.  0.
         12    1    1    2    0    0  0.22248804407E+02  0.10897299016E+02 -0.20073877267E+02  0.31886062346E+02  0.00000000000E+00 0. -1.
         11    1    3    3    0    0 -0.11783330547E+02 -0.17667789822E+02  0.99738037846E+01  0.23462191675E+02  0.51100000000E-03 0. -1.
        -11    1    3    3    0    0  0.94948953665E+01  0.76516730797E+01  0.10140764490E+02  0.15859894188E+02  0.51100000000E-03 0.  1.
        -12    1    3    3    0    0 -0.19960369226E+02 -0.88118227342E+00 -0.40691007444E-01  0.19979851792E+02  0.00000000000E+00 0.  1.
</event>
<event>
 7    1  0.4346085E-013  0.5930195E+02  0.7816164E-02  0.1266605E+00
        -11   -1    0    0    0    0  0.00000000000E+00  0.00000000000E+00  0.45593999997E+02  0.45594000000E+02  0.51100000000E-03 0. -1.
         11   -1    0    0    0    0 -0.00000000000E+00 -0.00000000000E+00 -0.45593999997E+02  0.45594000000E+02  0.51100000000E-03 0.  1.
    9900012    2    1    2    0    0 -0.24693468304E+02 -0.15880781068E+02 -0.12439987463E+02  0.59301954897E+02  0.50000019823E+02 0.  0.
         12    1    1    2    0    0  0.24693468304E+02  0.15880781068E+02  0.12439987463E+02  0.31886045103E+02  0.00000000000E+00 0. -1.
         11    1    3    3    0    0 -0.92845046545E+01  0.10926534693E+02 -0.54606047224E+01  0.15343056778E+02  0.51100000000E-03 0. -1.
        -11    1    3    3    0    0  0.29679503729E+01 -0.21429811437E+02  0.38302317863E+01  0.21970803887E+02  0.51100000000E-03 0.  1.
        -12    1    3    3    0    0 -0.18376914023E+02 -0.53775043238E+01 -0.10809614527E+02  0.21988094232E+02  0.00000000000E+00 0.  1.
</event>
<event>
 7    1  0.4346085E-013  0.5930192E+02  0.7816164E-02  0.1266605E+00
        -11   -1    0    0    0    0  0.00000000000E+00  0.00000000000E+00  0.45593999997E+02  0.45594000000E+02  0.51100000000E-03 0. -1.
         11   -1    0    0    0    0 -0.00000000000E+00 -0.00000000000E+00 -0.45593999997E+02  0.45594000000E+02  0.51100000000E-03 0.  1.
    9900012    2    1    2    0    0  0.28477627721E+02  0.13799946834E+02  0.39125676239E+01  0.59301921554E+02  0.49999959014E+02 0.  0.
         12    1    1    2    0    0 -0.28477627721E+02 -0.13799946834E+02 -0.39125676239E+01  0.31886078446E+02  0.00000000000E+00 0. -1.
         11    1    3    3    0    0  0.13039034012E+02  0.11575661349E+02  0.23324751514E+02  0.29121407540E+02  0.51100000000E-03 0. -1.
        -11    1    3    3    0    0  0.11881918259E+01 -0.20068926891E+01 -0.14257305572E+02  0.14446805201E+02  0.51100000000E-03 0.  1.
        -12    1    3    3    0    0  0.14250401883E+02  0.42311781733E+01 -0.51548783180E+01  0.15733708814E+02  0.00000000000E+00 0.  1.
</event>
<event>
 7    1  0.4346085E-013  0.5930193E+02  0.7816164E-02  0.1266605E+00
        -11   -1    0    0    0    0  0.00000000000E+00  0.00000000000E+00  0.45593999997E+02  0.45594000000E+02  0.51100000000E-03 0. -1.
         11   -1    0    0    0    0 -0.00000000000E+00 -0.00000000000E+00 -0.45593999997E+02  0.45594000000E+02  0.51100000000E-03 0.  1.
    9900012    2    1    2    0    0 -0.19061926377E+02 -0.89111365960E+01 -0.23957380097E+02  0.59301930099E+02  0.49999974598E+02 0.  0.
         12    1    1    2    0    0  0.19061926377E+02  0.89111365960E+01  0.23957380097E+02  0.31886069901E+02  0.00000000000E+00 0. -1.
         11    1    3    3    0    0  0.20746685601E+01  0.90328818184E+01  0.40949451696E+01  0.10132412338E+02  0.51100000000E-03 0. -1.
        -11    1    3    3    0    0 -0.27609363512E+02 -0.17618963088E+02 -0.18469484985E+02  0.37600886821E+02  0.51100000000E-03 0.  1.
         12    1    3    3    0    0  0.64727685751E+01 -0.32505532634E+00 -0.95828402812E+01  0.11568630941E+02  0.00000000000E+00 0. -1.
</event>
<event>
 7    1  0.4346085E-013  0.5930196E+02  0.7816164E-02  0.1266605E+00
        -11   -1    0    0    0    0  0.00000000000E+00  0.00000000000E+00  0.45593999997E+02  0.45594000000E+02  0.51100000000E-03 0. -1.
         11   -1    0    0    0    0 -0.00000000000E+00 -0.00000000000E+00 -0.45593999997E+02  0.45594000000E+02  0.51100000000E-03 0.  1.
    9900012    2    1    2    0    0  0.15299908132E+02 -0.26656849522E+02  0.84879177091E+01  0.59301959758E+02  0.50000028689E+02 0.  0.
         12    1    1    2    0    0 -0.15299908132E+02  0.26656849522E+02 -0.84879177091E+01  0.31886040242E+02  0.00000000000E+00 0. -1.
         11    1    3    3    0    0 -0.80736922352E+01 -0.12769552928E+02  0.11535340857E+02  0.19008158176E+02  0.51100000000E-03 0. -1.
        -11    1    3    3    0    0  0.25731856542E+02  0.61040679384E-01 -0.43135185765E+01  0.26090967974E+02  0.51100000000E-03 0.  1.
        -12    1    3    3    0    0 -0.23582561747E+01 -0.13948337273E+02  0.12660954284E+01  0.14202833608E+02  0.00000000000E+00 0.  1.
</event>
<event>
 7    1  0.4346085E-013  0.5930201E+02  0.7816164E-02  0.1266605E+00
        -11   -1    0    0    0    0  0.00000000000E+00  0.00000000000E+00  0.45593999997E+02  0.45594000000E+02  0.51100000000E-03 0.  1.
         11   -1    0    0    0    0 -0.00000000000E+00 -0.00000000000E+00 -0.45593999997E+02  0.45594000000E+02  0.51100000000E-03 0. -1.
    9900012    2    1    2    0    0  0.29474011197E+02  0.26716871750E+01  0.11868500144E+02  0.59302007087E+02  0.50000115005E+02 0.  0.
         12    1    1    2    0    0 -0.29474011197E+02 -0.26716871750E+01 -0.11868500144E+02  0.31885992913E+02  0.00000000000E+00 0. -1.
         11    1    3    3    0    0  0.30605076452E+01  0.20945040282E+02 -0.72900499838E+00  0.21180011048E+02  0.51100000000E-03 0. -1.
        -11    1    3    3    0    0 -0.41257486711E+00 -0.66736492071E+01  0.32695999508E+01  0.74429897125E+01  0.51100000000E-03 0.  1.
         12    1    3    3    0    0  0.26826078419E+02 -0.11599703900E+02  0.93279051915E+01  0.30679006326E+02  0.00000000000E+00 0. -1.
</event>
<event>
 7    1  0.4346085E-013  0.5930194E+02  0.7816164E-02  0.1266605E+00
        -11   -1    0    0    0    0  0.00000000000E+00  0.00000000000E+00  0.45593999997E+02  0.45594000000E+02  0.51100000000E-03 0. -1.
         11   -1    0    0    0    0 -0.00000000000E+00 -0.00000000000E+00 -0.45593999997E+02  0.45594000000E+02  0.51100000000E-03 0.  1.
    9900012    2    1    2    0    0  0.10817692810E+02 -0.29954846356E+02  0.15508843865E+01  0.59301944422E+02  0.50000000718E+02 0.  0.
         12    1    1    2    0    0 -0.10817692810E+02  0.29954846356E+02 -0.15508843865E+01  0.31886055578E+02  0.00000000000E+00 0. -1.
         11    1    3    3    0    0 -0.91052152955E+01  0.50689185243E+01  0.12243710988E+01  0.10492757761E+02  0.51100000000E-03 0. -1.
        -11    1    3    3    0    0  0.24136236102E+02 -0.17533320923E+02 -0.45300475116E+01  0.30174435645E+02  0.51100000000E-03 0.  1.
        -12    1    3    3    0    0 -0.42133279963E+01 -0.17490443957E+02  0.48565607992E+01  0.18634751016E+02  0.00000000000E+00 0.  1.
</event>
<event>
 7    1  0.4346085E-013  0.5930190E+02  0.7816164E-02  0.1266605E+00
        -11   -1    0    0    0    0  0.00000000000E+00  0.00000000000E+00  0.45593999997E+02  0.45594000000E+02  0.51100000000E-03 0.  1.
         11   -1    0    0    0    0 -0.00000000000E+00 -0.00000000000E+00 -0.45593999997E+02  0.45594000000E+02  0.51100000000E-03 0. -1.
    9900012    2    1    2    0    0 -0.31476592429E+02  0.37139182286E+00 -0.50803337756E+01  0.59301896537E+02  0.49999913387E+02 0.  0.
         12    1    1    2    0    0  0.31476592429E+02 -0.37139182286E+00  0.50803337756E+01  0.31886103463E+02  0.00000000000E+00 0. -1.
         11    1    3    3    0    0 -0.21669370238E+02  0.13689494265E+02 -0.22328467121E+02  0.33993003750E+02  0.51100000000E-03 0. -1.
        -11    1    3    3    0    0 -0.79094405931E+01 -0.47397008028E+01  0.11782778360E+02  0.14961880909E+02  0.51100000000E-03 0.  1.
         12    1    3    3    0    0 -0.18977815977E+01 -0.85784016392E+01  0.54653549847E+01  0.10347011877E+02  0.00000000000E+00 0. -1.
</event>
<event>
 7    1  0.4346085E-013  0.5930193E+02  0.7816164E-02  0.1266605E+00
        -11   -1    0    0    0    0  0.00000000000E+00  0.00000000000E+00  0.45593999997E+02  0.45594000000E+02  0.51100000000E-03 0.  1.
         11   -1    0    0    0    0 -0.00000000000E+00 -0.00000000000E+00 -0.45593999997E+02  0.45594000000E+02  0.51100000000E-03 0. -1.
    9900012    2    1    2    0    0 -0.22665962883E+02  0.21213029699E+02  0.72789276217E+01  0.59301932671E+02  0.49999979288E+02 0.  0.
         12    1    1    2    0    0  0.22665962883E+02 -0.21213029699E+02 -0.72789276217E+01  0.31886067329E+02  0.00000000000E+00 0. -1.
         11    1    3    3    0    0 -0.52287538071E+01 -0.99375632922E+01 -0.61190635829E+01  0.12788196509E+02  0.51100000000E-03 0. -1.
        -11    1    3    3    0    0 -0.14952836218E+02  0.34867832088E+02  0.16183156467E+02  0.41246182599E+02  0.51100000000E-03 0.  1.
        -12    1    3    3    0    0 -0.24843728576E+01 -0.37172390970E+01 -0.27851652623E+01  0.52675535629E+01  0.00000000000E+00 0.  1.
</event>
<event>
 7    1  0.4346085E-013  0.5930194E+02  0.7816164E-02  0.1266605E+00
        -11   -1    0    0    0    0  0.00000000000E+00  0.00000000000E+00  0.45593999997E+02  0.45594000000E+02  0.51100000000E-03 0. -1.
         11   -1    0    0    0    0 -0.00000000000E+00 -0.00000000000E+00 -0.45593999997E+02  0.45594000000E+02  0.51100000000E-03 0.  1.
    9900012    2    1    2    0    0 -0.99128927600E+01  0.27535250125E+02  0.12659596455E+02  0.59301939962E+02  0.49999992586E+02 0.  0.
         12    1    1    2    0    0  0.99128927600E+01 -0.27535250125E+02 -0.12659596455E+02  0.31886060038E+02  0.00000000000E+00 0. -1.
         11    1    3    3    0    0  0.11210152583E+02 -0.21260333802E+01  0.10328802840E+02  0.15390636999E+02  0.51100000000E-03 0. -1.
        -11    1    3    3    0    0 -0.23385278968E+02  0.13001184067E+02 -0.98498938230E+00  0.26774470376E+02  0.51100000000E-03 0.  1.
        -12    1    3    3    0    0  0.22622336251E+01  0.16660099438E+02  0.33157829975E+01  0.17136832588E+02  0.00000000000E+00 0.  1.
</event>
<event>
 7    1  0.4346085E-013  0.5930195E+02  0.7816164E-02  0.1266605E+00
        -11   -1    0    0    0    0  0.00000000000E+00  0.00000000000E+00  0.45593999997E+02  0.45594000000E+02  0.51100000000E-03 0. -1.
         11   -1    0    0    0    0 -0.00000000000E+00 -0.00000000000E+00 -0.45593999997E+02  0.45594000000E+02  0.51100000000E-03 0.  1.
    9900012    2    1    2    0    0  0.10882137060E+02  0.21421256256E+02 -0.20962565375E+02  0.59301948604E+02  0.50000008345E+02 0.  0.
         12    1    1    2    0    0 -0.10882137060E+02 -0.21421256256E+02  0.20962565375E+02  0.31886051396E+02  0.00000000000E+00 0. -1.
         11    1    3    3    0    0  0.16124795313E+02 -0.21156112953E+01 -0.12138486807E+02  0.20293538313E+02  0.51100000000E-03 0. -1.
        -11    1    3    3    0    0  0.60726707374E+01  0.25680059107E+02 -0.48834418755E+01  0.26836370292E+02  0.51100000000E-03 0.  1.
         12    1    3    3    0    0 -0.11315328990E+02 -0.21431915557E+01 -0.39406366923E+01  0.12172039999E+02  0.00000000000E+00 0. -1.
</event>
<event>
 7    1  0.6284643E-013  0.5930195E+02  0.7816164E-02  0.1266605E+00
        -11   -1    0    0    0    0  0.00000000000E+00  0.00000000000E+00  0.45593999997E+02  0.45594000000E+02  0.51100000000E-03 0. -1.
         11   -1    0    0    0    0 -0.00000000000E+00 -0.00000000000E+00 -0.45593999997E+02  0.45594000000E+02  0.51100000000E-03 0.  1.
    9900012    2    1    2    0    0 -0.24775414824E+02  0.32694629136E+01 -0.19804288350E+02  0.59301946552E+02  0.50000004603E+02 0.  0.
         12    1    1    2    0    0  0.24775414824E+02 -0.32694629136E+01  0.19804288350E+02  0.31886053448E+02  0.00000000000E+00 0. -1.
         11    1    3    3    0    0 -0.13618566279E+02 -0.98123549526E+01  0.47935021814E+01  0.17456383378E+02  0.51100000000E-03 0. -1.
        -11    1    3    3    0    0 -0.15687069644E+02  0.20101410449E+02 -0.18563669865E+02  0.31539827127E+02  0.51100000000E-03 0.  1.
        -12    1    3    3    0    0  0.45302210996E+01 -0.70195925833E+01 -0.60341206664E+01  0.10305736047E+02  0.00000000000E+00 0.  1.
</event>
<event>
 7    1  0.4346085E-013  0.5930189E+02  0.7816164E-02  0.1266605E+00
        -11   -1    0    0    0    0  0.00000000000E+00  0.00000000000E+00  0.45593999997E+02  0.45594000000E+02  0.51100000000E-03 0.  1.
         11   -1    0    0    0    0 -0.00000000000E+00 -0.00000000000E+00 -0.45593999997E+02  0.45594000000E+02  0.51100000000E-03 0. -1.
    9900012    2    1    2    0    0  0.27978344831E+02 -0.92920000532E+01  0.12148876401E+02  0.59301886372E+02  0.49999894850E+02 0.  0.
         12    1    1    2    0    0 -0.27978344831E+02  0.92920000532E+01 -0.12148876401E+02  0.31886113628E+02  0.00000000000E+00 0. -1.
         11    1    3    3    0    0  0.26819696594E+02  0.69100464357E+01 -0.34580400230E+01  0.27910623573E+02  0.51100000000E-03 0. -1.
        -11    1    3    3    0    0 -0.82788040800E+01 -0.40707825615E+00  0.78743301184E+01  0.11432820508E+02  0.51100000000E-03 0.  1.
        -12    1    3    3    0    0  0.94374523169E+01 -0.15794968233E+02  0.77325863059E+01  0.19958442291E+02  0.00000000000E+00 0.  1.
</event>
<event>
 7    1  0.4346085E-013  0.5930195E+02  0.7816164E-02  0.1266605E+00
        -11   -1    0    0    0    0  0.00000000000E+00  0.00000000000E+00  0.45593999997E+02  0.45594000000E+02  0.51100000000E-03 0. -1.
         11   -1    0    0    0    0 -0.00000000000E+00 -0.00000000000E+00 -0.45593999997E+02  0.45594000000E+02  0.51100000000E-03 0.  1.
    9900012    2    1    2    0    0 -0.22223711582E+02  0.95725659769E+01 -0.20765186350E+02  0.59301947563E+02  0.50000006448E+02 0.  0.
         12    1    1    2    0    0  0.22223711582E+02 -0.95725659769E+01  0.20765186350E+02  0.31886052437E+02  0.00000000000E+00 0. -1.
         11    1    3    3    0    0 -0.34662623045E+02  0.16913016971E+02 -0.12605369662E+02  0.40576383821E+02  0.51100000000E-03 0. -1.
        -11    1    3    3    0    0  0.15747016287E+01 -0.18142686218E+01 -0.58441191425E+01  0.63186220542E+01  0.51100000000E-03 0.  1.
         12    1    3    3    0    0  0.10864209834E+02 -0.55261823721E+01 -0.23156975453E+01  0.12406941688E+02  0.00000000000E+00 0. -1.
</event>
<event>
 7    1  0.4346085E-013  0.5930195E+02  0.7816164E-02  0.1266605E+00
        -11   -1    0    0    0    0  0.00000000000E+00  0.00000000000E+00  0.45593999997E+02  0.45594000000E+02  0.51100000000E-03 0.  1.
         11   -1    0    0    0    0 -0.00000000000E+00 -0.00000000000E+00 -0.45593999997E+02  0.45594000000E+02  0.51100000000E-03 0. -1.
    9900012    2    1    2    0    0  0.21432974769E+02  0.23331931698E+02 -0.36012330218E+01  0.59301947822E+02  0.50000006920E+02 0.  0.
         12    1    1    2    0    0 -0.21432974769E+02 -0.23331931698E+02  0.36012330218E+01  0.31886052178E+02  0.00000000000E+00 0. -1.
         11    1    3    3    0    0 -0.41296255903E+01  0.11783316028E+01  0.17211919305E+02  0.17739572692E+02  0.51100000000E-03 0. -1.
        -11    1    3    3    0    0  0.23090942141E+02  0.14517803673E+02 -0.12487830260E+02  0.29998402246E+02  0.51100000000E-03 0.  1.
         12    1    3    3    0    0  0.24716582186E+01  0.76357964224E+01 -0.83253220664E+01  0.11563972884E+02  0.00000000000E+00 0. -1.
</event>
<event>
 7    1  0.4346085E-013  0.5930194E+02  0.7816164E-02  0.1266605E+00
        -11   -1    0    0    0    0  0.00000000000E+00  0.00000000000E+00  0.45593999997E+02  0.45594000000E+02  0.51100000000E-03 0.  1.
         11   -1    0    0    0    0 -0.00000000000E+00 -0.00000000000E+00 -0.45593999997E+02  0.45594000000E+02  0.51100000000E-03 0. -1.
    9900012    2    1    2    0    0  0.20867345098E+02  0.97159127170E+01  0.22065266747E+02  0.59301936462E+02  0.49999986202E+02 0.  0.
         12    1    1    2    0    0 -0.20867345098E+02 -0.97159127170E+01 -0.22065266747E+02  0.31886063538E+02  0.00000000000E+00 0. -1.
         11    1    3    3    0    0  0.63058865798E+01  0.24620999144E+02  0.14970844128E+02  0.29497185943E+02  0.51100000000E-03 0. -1.
        -11    1    3    3    0    0  0.13793460132E+02 -0.16376699246E+02  0.12056315553E+02  0.24572557164E+02  0.51100000000E-03 0.  1.
         12    1    3    3    0    0  0.76799838650E+00  0.14716128191E+01 -0.49618929338E+01  0.52321933544E+01  0.00000000000E+00 0. -1.
</event>
<event>
 7    1  0.4346085E-013  0.5930195E+02  0.7816164E-02  0.1266605E+00
        -11   -1    0    0    0    0  0.00000000000E+00  0.00000000000E+00  0.45593999997E+02  0.45594000000E+02  0.51100000000E-03 0.  1.
         11   -1    0    0    0    0 -0.00000000000E+00 -0.00000000000E+00 -0.45593999997E+02  0.45594000000E+02  0.51100000000E-03 0. -1.
    9900012    2    1    2    0    0 -0.15124399434E+02  0.27648250095E+02 -0.48525341216E+01  0.59301948520E+02  0.50000008194E+02 0.  0.
         12    1    1    2    0    0  0.15124399434E+02 -0.27648250095E+02  0.48525341216E+01  0.31886051480E+02  0.00000000000E+00 0. -1.
         11    1    3    3    0    0 -0.41125781663E+01  0.29338347330E+02 -0.16248414724E+02  0.33788502550E+02  0.51100000000E-03 0. -1.
        -11    1    3    3    0    0 -0.16775544249E+02 -0.63570127022E+00  0.70005638547E+01  0.18188757393E+02  0.51100000000E-03 0.  1.
         12    1    3    3    0    0  0.57637229814E+01 -0.10543959649E+01  0.43953167473E+01  0.73246885781E+01  0.00000000000E+00 0. -1.
</event>
<event>
 7    1  0.4346085E-013  0.5930175E+02  0.7816164E-02  0.1266605E+00
        -11   -1    0    0    0    0  0.00000000000E+00  0.00000000000E+00  0.45593999997E+02  0.45594000000E+02  0.51100000000E-03 0. -1.
         11   -1    0    0    0    0 -0.00000000000E+00 -0.00000000000E+00 -0.45593999997E+02  0.45594000000E+02  0.51100000000E-03 0.  1.
    9900012    2    1    2    0    0  0.18094665215E+02  0.18364949168E+02 -0.18762850797E+02  0.59301751597E+02  0.49999649051E+02 0.  0.
         12    1    1    2    0    0 -0.18094665215E+02 -0.18364949168E+02  0.18762850797E+02  0.31886248403E+02  0.00000000000E+00 0. -1.
         11    1    3    3    0    0  0.25954967675E+01  0.15238675177E+02  0.43758417756E+01  0.16065547489E+02  0.51100000000E-03 0. -1.
        -11    1    3    3    0    0  0.11337876701E+02 -0.14157865647E+02 -0.15607481181E+02  0.23928770901E+02  0.51100000000E-03 0.  1.
        -12    1    3    3    0    0  0.41612917468E+01  0.17284139638E+02 -0.75312113919E+01  0.19307433207E+02  0.00000000000E+00 0.  1.
</event>
<event>
 7    1  0.4346085E-013  0.5930194E+02  0.7816164E-02  0.1266605E+00
        -11   -1    0    0    0    0  0.00000000000E+00  0.00000000000E+00  0.45593999997E+02  0.45594000000E+02  0.51100000000E-03 0. -1.
         11   -1    0    0    0    0 -0.00000000000E+00 -0.00000000000E+00 -0.45593999997E+02  0.45594000000E+02  0.51100000000E-03 0.  1.
    9900012    2    1    2    0    0 -0.22520781142E+02  0.96453554967E+01 -0.20408393821E+02  0.59301937147E+02  0.49999987451E+02 0.  0.
         12    1    1    2    0    0  0.22520781142E+02 -0.96453554967E+01  0.20408393821E+02  0.31886062853E+02  0.00000000000E+00 0. -1.
         11    1    3    3    0    0 -0.21161464557E+02 -0.14375757498E+02 -0.21848082463E+02  0.33642364563E+02  0.51100000000E-03 0. -1.
        -11    1    3    3    0    0 -0.50489172117E+01  0.14566699663E+02  0.16779656371E+01  0.15507929360E+02  0.51100000000E-03 0.  1.
         12    1    3    3    0    0  0.36896006269E+01  0.94544133314E+01 -0.23827699496E+00  0.10151643224E+02  0.00000000000E+00 0. -1.
</event>
<event>
 7    1  0.4346085E-013  0.5930197E+02  0.7816164E-02  0.1266605E+00
        -11   -1    0    0    0    0  0.00000000000E+00  0.00000000000E+00  0.45593999997E+02  0.45594000000E+02  0.51100000000E-03 0.  1.
         11   -1    0    0    0    0 -0.00000000000E+00 -0.00000000000E+00 -0.45593999997E+02  0.45594000000E+02  0.51100000000E-03 0. -1.
    9900012    2    1    2    0    0 -0.11525864376E+01 -0.10963162311E+02  0.29919889711E+02  0.59301965695E+02  0.50000039516E+02 0.  0.
         12    1    1    2    0    0  0.11525864376E+01  0.10963162311E+02 -0.29919889711E+02  0.31886034305E+02  0.00000000000E+00 0. -1.
         11    1    3    3    0    0 -0.14331788470E+01 -0.11007127475E+02  0.10483116948E+01  0.11149431130E+02  0.51100000000E-03 0. -1.
        -11    1    3    3    0    0  0.71930899072E+01  0.15752933991E+02  0.37350110376E+01  0.17715693028E+02  0.51100000000E-03 0.  1.
         12    1    3    3    0    0 -0.69124974977E+01 -0.15708968827E+02  0.25136566979E+02  0.30436841537E+02  0.00000000000E+00 0. -1.
</event>
<event>
 7    1  0.4346085E-013  0.5930195E+02  0.7816164E-02  0.1266605E+00
        -11   -1    0    0    0    0  0.00000000000E+00  0.00000000000E+00  0.45593999997E+02  0.45594000000E+02  0.51100000000E-03 0.  1.
         11   -1    0    0    0    0 -0.00000000000E+00 -0.00000000000E+00 -0.45593999997E+02  0.45594000000E+02  0.51100000000E-03 0. -1.
    9900012    2    1    2    0    0 -0.30033179300E+02  0.49460188803E+01  0.95008070664E+01  0.59301948244E+02  0.50000007690E+02 0.  0.
         12    1    1    2    0    0  0.30033179300E+02 -0.49460188803E+01 -0.95008070664E+01  0.31886051756E+02  0.00000000000E+00 0. -1.
         11    1    3    3    0    0  0.23345960634E+01 -0.22959972375E+00  0.41782550285E+01  0.47917502185E+01  0.51100000000E-03 0. -1.
        -11    1    3    3    0    0 -0.15217225087E+02  0.17767418640E+02 -0.12707172660E+02  0.26621745655E+02  0.51100000000E-03 0.  1.
        -12    1    3    3    0    0 -0.17150550277E+02 -0.12591800036E+02  0.18029724698E+02  0.27888452371E+02  0.00000000000E+00 0.  1.
</event>
<event>
 7    1  0.5700581E-013  0.5930195E+02  0.7816164E-02  0.1266605E+00
        -11   -1    0    0    0    0  0.00000000000E+00  0.00000000000E+00  0.45593999997E+02  0.45594000000E+02  0.51100000000E-03 0. -1.
         11   -1    0    0    0    0 -0.00000000000E+00 -0.00000000000E+00 -0.45593999997E+02  0.45594000000E+02  0.51100000000E-03 0.  1.
    9900012    2    1    2    0    0  0.13688354513E+02 -0.98265071746E+01 -0.27070073590E+02  0.59301950124E+02  0.50000011117E+02 0.  0.
         12    1    1    2    0    0 -0.13688354513E+02  0.98265071746E+01  0.27070073590E+02  0.31886049876E+02  0.00000000000E+00 0. -1.
         11    1    3    3    0    0 -0.78384649897E+01  0.39124489790E+01  0.67079216177E+01  0.11033811812E+02  0.51100000000E-03 0. -1.
        -11    1    3    3    0    0  0.10569842115E+02 -0.19439236693E+02 -0.21911543971E+02  0.31140347541E+02  0.51100000000E-03 0.  1.
        -12    1    3    3    0    0  0.10956977389E+02  0.57002805394E+01 -0.11866451237E+02  0.17127790771E+02  0.00000000000E+00 0.  1.
</event>
<event>
 7    1  0.4346085E-013  0.5930200E+02  0.7816164E-02  0.1266605E+00
        -11   -1    0    0    0    0  0.00000000000E+00  0.00000000000E+00  0.45593999997E+02  0.45594000000E+02  0.51100000000E-03 0.  1.
         11   -1    0    0    0    0 -0.00000000000E+00 -0.00000000000E+00 -0.45593999997E+02  0.45594000000E+02  0.51100000000E-03 0. -1.
    9900012    2    1    2    0    0 -0.17172357908E+02  0.26836378150E+02  0.12790830729E+01  0.59301998027E+02  0.50000098481E+02 0.  0.
         12    1    1    2    0    0  0.17172357908E+02 -0.26836378150E+02 -0.12790830729E+01  0.31886001973E+02  0.00000000000E+00 0. -1.
         11    1    3    3    0    0  0.58895717601E+00  0.33841979211E+01 -0.15657320321E+02  0.16029701994E+02  0.51100000000E-03 0. -1.
        -11    1    3    3    0    0 -0.20229759558E+02  0.27155679619E+02  0.18460716089E+02  0.38567760450E+02  0.51100000000E-03 0.  1.
        -12    1    3    3    0    0  0.24684444741E+01 -0.37034993901E+01 -0.15243126952E+01  0.47045355825E+01  0.00000000000E+00 0.  1.
</event>
<event>
 7    1  0.4346085E-013  0.5930195E+02  0.7816164E-02  0.1266605E+00
        -11   -1    0    0    0    0  0.00000000000E+00  0.00000000000E+00  0.45593999997E+02  0.45594000000E+02  0.51100000000E-03 0. -1.
         11   -1    0    0    0    0 -0.00000000000E+00 -0.00000000000E+00 -0.45593999997E+02  0.45594000000E+02  0.51100000000E-03 0.  1.
    9900012    2    1    2    0    0  0.17280236089E+02  0.46533788533E+01 -0.26390527022E+02  0.59301946457E+02  0.50000004431E+02 0.  0.
         12    1    1    2    0    0 -0.17280236089E+02 -0.46533788533E+01  0.26390527022E+02  0.31886053543E+02  0.00000000000E+00 0. -1.
         11    1    3    3    0    0  0.18776303630E+02 -0.14691946835E+02 -0.22314055594E+02  0.32654554922E+02  0.51100000000E-03 0.  1.
        -11    1    3    3    0    0 -0.35959040169E+01  0.22175651844E+02 -0.19933723084E+01  0.22553571643E+02  0.51100000000E-03 0. -1.
         12    1    3    3    0    0  0.20998364759E+01 -0.28303261557E+01 -0.20830991194E+01  0.40938198928E+01  0.00000000000E+00 0. -1.
</event>
<event>
 7    1  0.4346085E-013  0.5930189E+02  0.7816164E-02  0.1266605E+00
        -11   -1    0    0    0    0  0.00000000000E+00  0.00000000000E+00  0.45593999997E+02  0.45594000000E+02  0.51100000000E-03 0.  1.
         11   -1    0    0    0    0 -0.00000000000E+00 -0.00000000000E+00 -0.45593999997E+02  0.45594000000E+02  0.51100000000E-03 0. -1.
    9900012    2    1    2    0    0 -0.35852693078E+01 -0.89595261062E+01  0.30390734488E+02  0.59301890065E+02  0.49999901586E+02 0.  0.
         12    1    1    2    0    0  0.35852693078E+01  0.89595261062E+01 -0.30390734488E+02  0.31886109935E+02  0.00000000000E+00 0. -1.
         11    1    3    3    0    0  0.85357357895E+01 -0.93113246359E+01  0.30360107344E+02  0.32883060535E+02  0.51100000000E-03 0. -1.
        -11    1    3    3    0    0 -0.14843738652E+02 -0.83268699311E+01  0.19237338152E+01  0.17128166629E+02  0.51100000000E-03 0.  1.
         12    1    3    3    0    0  0.27227335550E+01  0.86786684609E+01 -0.18931066720E+01  0.92906629009E+01  0.00000000000E+00 0. -1.
</event>
<event>
 7    1  0.4346085E-013  0.5930196E+02  0.7816164E-02  0.1266605E+00
        -11   -1    0    0    0    0  0.00000000000E+00  0.00000000000E+00  0.45593999997E+02  0.45594000000E+02  0.51100000000E-03 0.  1.
         11   -1    0    0    0    0 -0.00000000000E+00 -0.00000000000E+00 -0.45593999997E+02  0.45594000000E+02  0.51100000000E-03 0. -1.
    9900012    2    1    2    0    0 -0.81581490568E+01 -0.25887153810E+01  0.30715840862E+02  0.59301957235E+02  0.50000024088E+02 0.  0.
         12    1    1    2    0    0  0.81581490568E+01  0.25887153810E+01 -0.30715840862E+02  0.31886042765E+02  0.00000000000E+00 0. -1.
         11    1    3    3    0    0  0.85719024066E+01 -0.41948416261E+01 -0.21799555750E+01  0.97890966747E+01  0.51100000000E-03 0. -1.
        -11    1    3    3    0    0 -0.10951028804E+01  0.11852747362E+02  0.27640753664E+02  0.30094819052E+02  0.51100000000E-03 0.  1.
         12    1    3    3    0    0 -0.15634948583E+02 -0.10246621117E+02  0.52550427723E+01  0.19418041509E+02  0.00000000000E+00 0. -1.
</event>
<event>
 7    1  0.4346085E-013  0.5930199E+02  0.7816164E-02  0.1266605E+00
        -11   -1    0    0    0    0  0.00000000000E+00  0.00000000000E+00  0.45593999997E+02  0.45594000000E+02  0.51100000000E-03 0.  1.
         11   -1    0    0    0    0 -0.00000000000E+00 -0.00000000000E+00 -0.45593999997E+02  0.45594000000E+02  0.51100000000E-03 0. -1.
    9900012    2    1    2    0    0 -0.31424520283E+02 -0.13157543660E-02 -0.54052639346E+01  0.59301994371E+02  0.50000091814E+02 0.  0.
         12    1    1    2    0    0  0.31424520283E+02  0.13157543660E-02  0.54052639346E+01  0.31886005629E+02  0.00000000000E+00 0. -1.
         11    1    3    3    0    0 -0.75858151318E+00  0.63773932354E+01  0.41992137485E+01  0.76733295744E+01  0.51100000000E-03 0. -1.
        -11    1    3    3    0    0 -0.31985052721E+02 -0.14736643992E+02 -0.18136473815E+02  0.39612421744E+02  0.51100000000E-03 0.  1.
        -12    1    3    3    0    0  0.13191139505E+01  0.83579350022E+01  0.85319961320E+01  0.12016243053E+02  0.00000000000E+00 0.  1.
</event>
<event>
 7    1  0.4346085E-013  0.5930196E+02  0.7816164E-02  0.1266605E+00
        -11   -1    0    0    0    0  0.00000000000E+00  0.00000000000E+00  0.45593999997E+02  0.45594000000E+02  0.51100000000E-03 0.  1.
         11   -1    0    0    0    0 -0.00000000000E+00 -0.00000000000E+00 -0.45593999997E+02  0.45594000000E+02  0.51100000000E-03 0. -1.
    9900012    2    1    2    0    0  0.29269407631E+02  0.27881301716E+01 -0.12338874828E+02  0.59301957208E+02  0.50000024037E+02 0.  0.
         12    1    1    2    0    0 -0.29269407631E+02 -0.27881301716E+01  0.12338874828E+02  0.31886042792E+02  0.00000000000E+00 0. -1.
         11    1    3    3    0    0  0.28132168216E+02  0.14220301029E+02 -0.18136542168E+02  0.36367155676E+02  0.51100000000E-03 0. -1.
        -11    1    3    3    0    0  0.54334510820E+01 -0.81240304079E+01  0.11482426454E+02  0.15078739279E+02  0.51100000000E-03 0.  1.
        -12    1    3    3    0    0 -0.42962116670E+01 -0.33081404499E+01 -0.56847591137E+01  0.78560622518E+01  0.00000000000E+00 0.  1.
</event>
<event>
 7    1  0.4346085E-013  0.5930197E+02  0.7816164E-02  0.1266605E+00
        -11   -1    0    0    0    0  0.00000000000E+00  0.00000000000E+00  0.45593999997E+02  0.45594000000E+02  0.51100000000E-03 0. -1.
         11   -1    0    0    0    0 -0.00000000000E+00 -0.00000000000E+00 -0.45593999997E+02  0.45594000000E+02  0.51100000000E-03 0.  1.
    9900012    2    1    2    0    0  0.28587535165E+02  0.69372161458E+01  0.12302300474E+02  0.59301972784E+02  0.50000052445E+02 0.  0.
         12    1    1    2    0    0 -0.28587535165E+02 -0.69372161458E+01 -0.12302300474E+02  0.31886027216E+02  0.00000000000E+00 0. -1.
         11    1    3    3    0    0  0.10709361285E+02  0.92972808442E+01  0.50147194991E+01  0.15042515153E+02  0.51100000000E-03 0. -1.
        -11    1    3    3    0    0  0.54825876061E+01 -0.18579387529E+02  0.12671491727E+02  0.23147766862E+02  0.51100000000E-03 0.  1.
        -12    1    3    3    0    0  0.12395586274E+02  0.16219322831E+02 -0.53839107523E+01  0.21111690770E+02  0.00000000000E+00 0.  1.
</event>
<event>
 7    1  0.4346085E-013  0.5930188E+02  0.7816164E-02  0.1266605E+00
        -11   -1    0    0    0    0  0.00000000000E+00  0.00000000000E+00  0.45593999997E+02  0.45594000000E+02  0.51100000000E-03 0.  1.
         11   -1    0    0    0    0 -0.00000000000E+00 -0.00000000000E+00 -0.45593999997E+02  0.45594000000E+02  0.51100000000E-03 0. -1.
    9900012    2    1    2    0    0 -0.69067235690E+01  0.27632183751E+02  0.14334719557E+02  0.59301880855E+02  0.49999884789E+02 0.  0.
         12    1    1    2    0    0  0.69067235690E+01 -0.27632183751E+02 -0.14334719557E+02  0.31886119145E+02  0.00000000000E+00 0. -1.
         11    1    3    3    0    0  0.16698776874E+02  0.39516930520E+01 -0.63457618968E+01  0.18295729594E+02  0.51100000000E-03 0. -1.
        -11    1    3    3    0    0 -0.63736414942E+01  0.14235059632E+02  0.11106547310E+02  0.19147209250E+02  0.51100000000E-03 0.  1.
         12    1    3    3    0    0 -0.17231858949E+02  0.94454310668E+01  0.95739341438E+01  0.21858942012E+02  0.00000000000E+00 0. -1.
</event>
<event>
 7    1  0.4346085E-013  0.5930186E+02  0.7816164E-02  0.1266605E+00
        -11   -1    0    0    0    0  0.00000000000E+00  0.00000000000E+00  0.45593999997E+02  0.45594000000E+02  0.51100000000E-03 0. -1.
         11   -1    0    0    0    0 -0.00000000000E+00 -0.00000000000E+00 -0.45593999997E+02  0.45594000000E+02  0.51100000000E-03 0.  1.
    9900012    2    1    2    0    0 -0.42146291801E+01  0.20696236353E+02 -0.23887833935E+02  0.59301860246E+02  0.49999847202E+02 0.  0.
         12    1    1    2    0    0  0.42146291801E+01 -0.20696236353E+02  0.23887833935E+02  0.31886139754E+02  0.00000000000E+00 0. -1.
         11    1    3    3    0    0  0.10916496695E+01  0.41363050156E+01 -0.30474255299E+02  0.30773055657E+02  0.51100000000E-03 0. -1.
        -11    1    3    3    0    0 -0.26598536068E+01  0.13876065167E+02 -0.60297930921E+01  0.15361588809E+02  0.51100000000E-03 0.  1.
         12    1    3    3    0    0 -0.26464252428E+01  0.26838661700E+01  0.12616214456E+02  0.13167215780E+02  0.00000000000E+00 0. -1.
</event>
<event>
 7    1  0.4346085E-013  0.5930195E+02  0.7816164E-02  0.1266605E+00
        -11   -1    0    0    0    0  0.00000000000E+00  0.00000000000E+00  0.45593999997E+02  0.45594000000E+02  0.51100000000E-03 0. -1.
         11   -1    0    0    0    0 -0.00000000000E+00 -0.00000000000E+00 -0.45593999997E+02  0.45594000000E+02  0.51100000000E-03 0.  1.
    9900012    2    1    2    0    0  0.33422865728E+01  0.24555539159E+02 -0.20064263618E+02  0.59301951993E+02  0.50000014528E+02 0.  0.
         12    1    1    2    0    0 -0.33422865728E+01 -0.24555539159E+02  0.20064263618E+02  0.31886048007E+02  0.00000000000E+00 0. -1.
         11    1    3    3    0    0  0.14628779181E+02  0.14909037832E+02  0.90386729621E+01  0.22759134399E+02  0.51100000000E-03 0. -1.
        -11    1    3    3    0    0  0.54864406293E+00  0.90487402256E+01 -0.69624958137E+01  0.11430531842E+02  0.51100000000E-03 0.  1.
         12    1    3    3    0    0 -0.11835136671E+02  0.59776110151E+00 -0.22140440767E+02  0.25112285752E+02  0.00000000000E+00 0. -1.
</event>
<event>
 7    1  0.4346085E-013  0.5930195E+02  0.7816164E-02  0.1266605E+00
        -11   -1    0    0    0    0  0.00000000000E+00  0.00000000000E+00  0.45593999997E+02  0.45594000000E+02  0.51100000000E-03 0.  1.
         11   -1    0    0    0    0 -0.00000000000E+00 -0.00000000000E+00 -0.45593999997E+02  0.45594000000E+02  0.51100000000E-03 0. -1.
    9900012    2    1    2    0    0  0.12310429710E+02  0.11810993424E+02 -0.26938335949E+02  0.59301949932E+02  0.50000010767E+02 0.  0.
         12    1    1    2    0    0 -0.12310429710E+02 -0.11810993424E+02  0.26938335949E+02  0.31886050068E+02  0.00000000000E+00 0. -1.
         11    1    3    3    0    0 -0.14010218338E+01 -0.13276632467E+02 -0.22741264154E+02  0.26370379737E+02  0.51100000000E-03 0. -1.
        -11    1    3    3    0    0  0.48151536240E+01  0.22714782497E+02 -0.12068929992E+01  0.23250884699E+02  0.51100000000E-03 0.  1.
         12    1    3    3    0    0  0.88962979197E+01  0.23728433942E+01 -0.29901787950E+01  0.96806854962E+01  0.00000000000E+00 0. -1.
</event>
<event>
 7    1  0.4346085E-013  0.5930191E+02  0.7816164E-02  0.1266605E+00
        -11   -1    0    0    0    0  0.00000000000E+00  0.00000000000E+00  0.45593999997E+02  0.45594000000E+02  0.51100000000E-03 0.  1.
         11   -1    0    0    0    0 -0.00000000000E+00 -0.00000000000E+00 -0.45593999997E+02  0.45594000000E+02  0.51100000000E-03 0. -1.
    9900012    2    1    2    0    0 -0.13067626242E+02  0.25192347270E+02  0.14536358743E+02  0.59301906761E+02  0.49999932034E+02 0.  0.
         12    1    1    2    0    0  0.13067626242E+02 -0.25192347270E+02 -0.14536358743E+02  0.31886093239E+02  0.00000000000E+00 0. -1.
         11    1    3    3    0    0  0.52000358445E+01 -0.39581797753E+01  0.19251224604E+02  0.20330204350E+02  0.51100000000E-03 0. -1.
        -11    1    3    3    0    0 -0.10177214009E+02  0.14888890219E+02  0.64291408071E+01  0.19146503303E+02  0.51100000000E-03 0.  1.
        -12    1    3    3    0    0 -0.80904480772E+01  0.14261636826E+02 -0.11144006668E+02  0.19825199107E+02  0.00000000000E+00 0.  1.
</event>
<event>
 7    1  0.4346085E-013  0.5930199E+02  0.7816164E-02  0.1266605E+00
        -11   -1    0    0    0    0  0.00000000000E+00  0.00000000000E+00  0.45593999997E+02  0.45594000000E+02  0.51100000000E-03 0. -1.
         11   -1    0    0    0    0 -0.00000000000E+00 -0.00000000000E+00 -0.45593999997E+02  0.45594000000E+02  0.51100000000E-03 0.  1.
    9900012    2    1    2    0    0 -0.24608324784E+01 -0.28459207489E+02 -0.14168112656E+02  0.59301990472E+02  0.50000084703E+02 0.  0.
         12    1    1    2    0    0  0.24608324784E+01  0.28459207489E+02  0.14168112656E+02  0.31886009528E+02  0.00000000000E+00 0. -1.
         11    1    3    3    0    0  0.59561332061E+01  0.45801235758E+01  0.12931690580E+02  0.14955991317E+02  0.51100000000E-03 0. -1.
        -11    1    3    3    0    0 -0.90940781291E+01 -0.19752206633E+02 -0.17982504746E+02  0.28217413083E+02  0.51100000000E-03 0.  1.
         12    1    3    3    0    0  0.67711244461E+00 -0.13287124432E+02 -0.91172984904E+01  0.16128586072E+02  0.00000000000E+00 0. -1.
</event>
<event>
 7    1  0.4346085E-013  0.5930192E+02  0.7816164E-02  0.1266605E+00
        -11   -1    0    0    0    0  0.00000000000E+00  0.00000000000E+00  0.45593999997E+02  0.45594000000E+02  0.51100000000E-03 0.  1.
         11   -1    0    0    0    0 -0.00000000000E+00 -0.00000000000E+00 -0.45593999997E+02  0.45594000000E+02  0.51100000000E-03 0. -1.
    9900012    2    1    2    0    0  0.17928129696E+02 -0.17571601874E+02  0.19660696948E+02  0.59301921043E+02  0.49999958080E+02 0.  0.
         12    1    1    2    0    0 -0.17928129696E+02  0.17571601874E+02 -0.19660696948E+02  0.31886078957E+02  0.00000000000E+00 0. -1.
         11    1    3    3    0    0  0.15405694203E+01  0.96086535510E+01 -0.81790781650E+01  0.12712076821E+02  0.51100000000E-03 0. -1.
        -11    1    3    3    0    0  0.99802879397E+01 -0.21297781126E+02  0.29506264832E+02  0.37733556589E+02  0.51100000000E-03 0.  1.
        -12    1    3    3    0    0  0.64072723360E+01 -0.58824742985E+01 -0.16664897187E+01  0.88562876332E+01  0.00000000000E+00 0.  1.
</event>
<event>
 7    1  0.4346085E-013  0.5930203E+02  0.7816164E-02  0.1266604E+00
        -11   -1    0    0    0    0  0.00000000000E+00  0.00000000000E+00  0.45593999997E+02  0.45594000000E+02  0.51100000000E-03 0.  1.
         11   -1    0    0    0    0 -0.00000000000E+00 -0.00000000000E+00 -0.45593999997E+02  0.45594000000E+02  0.51100000000E-03 0. -1.
    9900012    2    1    2    0    0 -0.98710153151E+00 -0.31852051890E+02  0.10896360491E+01  0.59302033090E+02  0.50000162429E+02 0.  0.
         12    1    1    2    0    0  0.98710153151E+00  0.31852051890E+02 -0.10896360491E+01  0.31885966910E+02  0.00000000000E+00 0. -1.
         11    1    3    3    0    0 -0.98225483368E+01 -0.14379489331E+02 -0.56934028246E+01  0.18321217352E+02  0.51100000000E-03 0. -1.
        -11    1    3    3    0    0  0.90976456346E+01  0.93214737660E+01 -0.10404395439E+01  0.13066734250E+02  0.51100000000E-03 0.  1.
        -12    1    3    3    0    0 -0.26219882931E+00 -0.26794036325E+02  0.78234784176E+01  0.27914081488E+02  0.00000000000E+00 0.  1.
</event>
<event>
 7    1  0.4346085E-013  0.5930194E+02  0.7816164E-02  0.1266605E+00
        -11   -1    0    0    0    0  0.00000000000E+00  0.00000000000E+00  0.45593999997E+02  0.45594000000E+02  0.51100000000E-03 0.  1.
         11   -1    0    0    0    0 -0.00000000000E+00 -0.00000000000E+00 -0.45593999997E+02  0.45594000000E+02  0.51100000000E-03 0. -1.
    9900012    2    1    2    0    0 -0.62474924116E+01 -0.93641226492E+01  0.29832916630E+02  0.59301939267E+02  0.49999991318E+02 0.  0.
         12    1    1    2    0    0  0.62474924116E+01  0.93641226492E+01 -0.29832916630E+02  0.31886060733E+02  0.00000000000E+00 0. -1.
         11    1    3    3    0    0 -0.63992379899E+01 -0.48075384827E+01 -0.10980439374E+02  0.13587962402E+02  0.51100000000E-03 0. -1.
        -11    1    3    3    0    0 -0.99527171838E+01 -0.22070581251E+01  0.19133753364E+02  0.21680133832E+02  0.51100000000E-03 0.  1.
         12    1    3    3    0    0  0.10104462762E+02 -0.23495260414E+01  0.21679602640E+02  0.24033843033E+02  0.00000000000E+00 0. -1.
</event>
<event>
 7    1  0.4346085E-013  0.5930199E+02  0.7816164E-02  0.1266605E+00
        -11   -1    0    0    0    0  0.00000000000E+00  0.00000000000E+00  0.45593999997E+02  0.45594000000E+02  0.51100000000E-03 0. -1.
         11   -1    0    0    0    0 -0.00000000000E+00 -0.00000000000E+00 -0.45593999997E+02  0.45594000000E+02  0.51100000000E-03 0.  1.
    9900012    2    1    2    0    0 -0.34746148230E+01 -0.16061300730E+02 -0.27325427747E+02  0.59301994749E+02  0.50000092503E+02 0.  0.
         12    1    1    2    0    0  0.34746148230E+01  0.16061300730E+02  0.27325427747E+02  0.31886005251E+02  0.00000000000E+00 0. -1.
         11    1    3    3    0    0  0.60875676903E+01 -0.44719864482E+00  0.10456198084E+02  0.12107458265E+02  0.51100000000E-03 0. -1.
        -11    1    3    3    0    0 -0.96875391404E+01 -0.14836950154E+02 -0.11999210523E+02  0.21400106493E+02  0.51100000000E-03 0.  1.
        -12    1    3    3    0    0  0.12535662709E+00 -0.77715193159E+00 -0.25782415308E+02  0.25794429990E+02  0.00000000000E+00 0.  1.
</event>
<event>
 7    1  0.4346085E-013  0.5930192E+02  0.7816164E-02  0.1266605E+00
        -11   -1    0    0    0    0  0.00000000000E+00  0.00000000000E+00  0.45593999997E+02  0.45594000000E+02  0.51100000000E-03 0.  1.
         11   -1    0    0    0    0 -0.00000000000E+00 -0.00000000000E+00 -0.45593999997E+02  0.45594000000E+02  0.51100000000E-03 0. -1.
    9900012    2    1    2    0    0  0.34836490915E+01 -0.24537336123E+02  0.20062531676E+02  0.59301923850E+02  0.49999963200E+02 0.  0.
         12    1    1    2    0    0 -0.34836490915E+01  0.24537336123E+02 -0.20062531676E+02  0.31886076150E+02  0.00000000000E+00 0. -1.
         11    1    3    3    0    0  0.19334137483E+02 -0.93467160312E+00  0.45229282642E+01  0.19878112676E+02  0.51100000000E-03 0. -1.
        -11    1    3    3    0    0 -0.30301784360E+01 -0.20446527782E+02  0.16113074229E+02  0.26208274286E+02  0.51100000000E-03 0.  1.
         12    1    3    3    0    0 -0.12820309955E+02 -0.31561367377E+01 -0.57347081642E+00  0.13215536888E+02  0.00000000000E+00 0. -1.
</event>
<event>
 7    1  0.4346085E-013  0.5930194E+02  0.7816164E-02  0.1266605E+00
        -11   -1    0    0    0    0  0.00000000000E+00  0.00000000000E+00  0.45593999997E+02  0.45594000000E+02  0.51100000000E-03 0.  1.
         11   -1    0    0    0    0 -0.00000000000E+00 -0.00000000000E+00 -0.45593999997E+02  0.45594000000E+02  0.51100000000E-03 0. -1.
    9900012    2    1    2    0    0  0.15353346750E+02 -0.16925013428E+02  0.22238237219E+02  0.59301944575E+02  0.50000000998E+02 0.  0.
         12    1    1    2    0    0 -0.15353346750E+02  0.16925013428E+02 -0.22238237219E+02  0.31886055425E+02  0.00000000000E+00 0. -1.
         11    1    3    3    0    0 -0.13250832818E+01  0.79834183958E+01 -0.63583935598E+01  0.10291743482E+02  0.51100000000E-03 0. -1.
        -11    1    3    3    0    0  0.68913691077E+01 -0.22221862262E+02  0.56836175136E+01  0.23950065530E+02  0.51100000000E-03 0.  1.
         12    1    3    3    0    0  0.97870609240E+01 -0.26865695620E+01  0.22913013265E+02  0.25060135563E+02  0.00000000000E+00 0. -1.
</event>
<event>
 7    1  0.4346085E-013  0.5930194E+02  0.7816164E-02  0.1266605E+00
        -11   -1    0    0    0    0  0.00000000000E+00  0.00000000000E+00  0.45593999997E+02  0.45594000000E+02  0.51100000000E-03 0. -1.
         11   -1    0    0    0    0 -0.00000000000E+00 -0.00000000000E+00 -0.45593999997E+02  0.45594000000E+02  0.51100000000E-03 0.  1.
    9900012    2    1    2    0    0 -0.30226950417E+02 -0.81783447373E+01  0.60138931277E+01  0.59301940903E+02  0.49999994302E+02 0.  0.
         12    1    1    2    0    0  0.30226950417E+02  0.81783447373E+01 -0.60138931277E+01  0.31886059097E+02  0.00000000000E+00 0. -1.
         11    1    3    3    0    0 -0.17075414677E+02  0.13628436029E+02  0.15250105094E+02  0.26643381179E+02  0.51100000000E-03 0. -1.
        -11    1    3    3    0    0 -0.16480703051E+02 -0.19855904062E+02 -0.39365973218E+01  0.26103013197E+02  0.51100000000E-03 0.  1.
        -12    1    3    3    0    0  0.33291673119E+01 -0.19508767036E+01 -0.52996146445E+01  0.65555465282E+01  0.00000000000E+00 0.  1.
</event>
<event>
 7    1  0.4346085E-013  0.5930205E+02  0.7816164E-02  0.1266604E+00
        -11   -1    0    0    0    0  0.00000000000E+00  0.00000000000E+00  0.45593999997E+02  0.45594000000E+02  0.51100000000E-03 0.  1.
         11   -1    0    0    0    0 -0.00000000000E+00 -0.00000000000E+00 -0.45593999997E+02  0.45594000000E+02  0.51100000000E-03 0. -1.
    9900012    2    1    2    0    0 -0.20204813290E+02  0.20137156392E+02  0.14246904781E+02  0.59302049434E+02  0.50000192235E+02 0.  0.
         12    1    1    2    0    0  0.20204813290E+02 -0.20137156392E+02 -0.14246904781E+02  0.31885950566E+02  0.00000000000E+00 0. -1.
         11    1    3    3    0    0 -0.19087964926E+02  0.75614410015E+01 -0.77737693984E+01  0.21953525593E+02  0.51100000000E-03 0. -1.
        -11    1    3    3    0    0 -0.30328796472E+01  0.21083913563E+02  0.17236491631E+02  0.27401211909E+02  0.51100000000E-03 0.  1.
        -12    1    3    3    0    0  0.19160312824E+01 -0.85081981726E+01  0.47841825480E+01  0.99473119320E+01  0.00000000000E+00 0.  1.
</event>
<event>
 7    1  0.4346085E-013  0.5930191E+02  0.7816164E-02  0.1266605E+00
        -11   -1    0    0    0    0  0.00000000000E+00  0.00000000000E+00  0.45593999997E+02  0.45594000000E+02  0.51100000000E-03 0. -1.
         11   -1    0    0    0    0 -0.00000000000E+00 -0.00000000000E+00 -0.45593999997E+02  0.45594000000E+02  0.51100000000E-03 0.  1.
    9900012    2    1    2    0    0  0.11243208139E+01 -0.31861765337E+02  0.53540007880E+00  0.59301908346E+02  0.49999934926E+02 0.  0.
         12    1    1    2    0    0 -0.11243208139E+01  0.31861765337E+02 -0.53540007880E+00  0.31886091654E+02  0.00000000000E+00 0. -1.
         11    1    3    3    0    0 -0.55448653814E+01 -0.19767813114E+02  0.22795535671E+02  0.30678142287E+02  0.51100000000E-03 0. -1.
        -11    1    3    3    0    0 -0.16437974519E+01 -0.41261147515E+01 -0.13334229311E+02  0.14054485569E+02  0.51100000000E-03 0.  1.
         12    1    3    3    0    0  0.83129836472E+01 -0.79678374714E+01 -0.89259062805E+01  0.14569280491E+02  0.00000000000E+00 0. -1.
</event>
<event>
 7    1  0.4346085E-013  0.5930198E+02  0.7816164E-02  0.1266605E+00
        -11   -1    0    0    0    0  0.00000000000E+00  0.00000000000E+00  0.45593999997E+02  0.45594000000E+02  0.51100000000E-03 0. -1.
         11   -1    0    0    0    0 -0.00000000000E+00 -0.00000000000E+00 -0.45593999997E+02  0.45594000000E+02  0.51100000000E-03 0.  1.
    9900012    2    1    2    0    0 -0.29091411754E+02  0.56473846803E+01 -0.11769248769E+02  0.59301977856E+02  0.50000061695E+02 0.  0.
         12    1    1    2    0    0  0.29091411754E+02 -0.56473846803E+01  0.11769248769E+02  0.31886022144E+02  0.00000000000E+00 0. -1.
         11    1    3    3    0    0 -0.57028646719E+01 -0.11964703706E+02  0.23252333242E+01  0.13456727333E+02  0.51100000000E-03 0. -1.
        -11    1    3    3    0    0 -0.20515699341E+01  0.21103282002E+02 -0.26075486296E+01  0.21362508293E+02  0.51100000000E-03 0.  1.
        -12    1    3    3    0    0 -0.21336977148E+02 -0.34911936159E+01 -0.11486933464E+02  0.24482742230E+02  0.00000000000E+00 0.  1.
</event>
<event>
 7    1  0.4346085E-013  0.5930190E+02  0.7816164E-02  0.1266605E+00
        -11   -1    0    0    0    0  0.00000000000E+00  0.00000000000E+00  0.45593999997E+02  0.45594000000E+02  0.51100000000E-03 0.  1.
         11   -1    0    0    0    0 -0.00000000000E+00 -0.00000000000E+00 -0.45593999997E+02  0.45594000000E+02  0.51100000000E-03 0. -1.
    9900012    2    1    2    0    0  0.79604692020E+01 -0.30856655039E+02  0.11051278218E+01  0.59301897422E+02  0.49999915002E+02 0.  0.
         12    1    1    2    0    0 -0.79604692020E+01  0.30856655039E+02 -0.11051278218E+01  0.31886102578E+02  0.00000000000E+00 0. -1.
         11    1    3    3    0    0  0.31125509142E+01 -0.21174234035E+02 -0.66514677637E+01  0.22411563619E+02  0.51100000000E-03 0. -1.
        -11    1    3    3    0    0  0.75785968378E+01  0.79946659067E+01 -0.75445922838E+01  0.13351804596E+02  0.51100000000E-03 0.  1.
        -12    1    3    3    0    0 -0.27306785500E+01 -0.17677086911E+02  0.15301187869E+02  0.23538529207E+02  0.00000000000E+00 0.  1.
</event>
<event>
 7    1  0.4346085E-013  0.5930196E+02  0.7816164E-02  0.1266605E+00
        -11   -1    0    0    0    0  0.00000000000E+00  0.00000000000E+00  0.45593999997E+02  0.45594000000E+02  0.51100000000E-03 0.  1.
         11   -1    0    0    0    0 -0.00000000000E+00 -0.00000000000E+00 -0.45593999997E+02  0.45594000000E+02  0.51100000000E-03 0. -1.
    9900012    2    1    2    0    0  0.11328344010E+02 -0.22931820469E+02  0.19039954255E+02  0.59301958758E+02  0.50000026865E+02 0.  0.
         12    1    1    2    0    0 -0.11328344010E+02  0.22931820469E+02 -0.19039954255E+02  0.31886041242E+02  0.00000000000E+00 0. -1.
         11    1    3    3    0    0 -0.11964671620E+02 -0.20221406151E+02  0.74645378866E+01  0.24653153141E+02  0.51100000000E-03 0. -1.
        -11    1    3    3    0    0  0.18202279720E+02 -0.98946044680E+01  0.14592733909E+02  0.25341153639E+02  0.51100000000E-03 0.  1.
         12    1    3    3    0    0  0.50907359094E+01  0.71841901494E+01 -0.30173175400E+01  0.93076519777E+01  0.00000000000E+00 0. -1.
</event>
<event>
 7    1  0.4346085E-013  0.5930194E+02  0.7816164E-02  0.1266605E+00
        -11   -1    0    0    0    0  0.00000000000E+00  0.00000000000E+00  0.45593999997E+02  0.45594000000E+02  0.51100000000E-03 0. -1.
         11   -1    0    0    0    0 -0.00000000000E+00 -0.00000000000E+00 -0.45593999997E+02  0.45594000000E+02  0.51100000000E-03 0.  1.
    9900012    2    1    2    0    0 -0.21282389115E+02 -0.21167932882E+02 -0.10756355675E+02  0.59301942602E+02  0.49999997400E+02 0.  0.
         12    1    1    2    0    0  0.21282389115E+02  0.21167932882E+02  0.10756355675E+02  0.31886057398E+02  0.00000000000E+00 0. -1.
         11    1    3    3    0    0  0.54672723009E+01 -0.28894464892E+01 -0.13599852137E+02  0.14939743835E+02  0.51100000000E-03 0. -1.
        -11    1    3    3    0    0 -0.17078111522E+02  0.60280533418E+01  0.10974826012E+01  0.18143973891E+02  0.51100000000E-03 0.  1.
        -12    1    3    3    0    0 -0.96715498943E+01 -0.24306539735E+02  0.17460138608E+01  0.26218224876E+02  0.00000000000E+00 0.  1.
</event>
<event>
 7    1  0.4346085E-013  0.5930194E+02  0.7816164E-02  0.1266605E+00
        -11   -1    0    0    0    0  0.00000000000E+00  0.00000000000E+00  0.45593999997E+02  0.45594000000E+02  0.51100000000E-03 0. -1.
         11   -1    0    0    0    0 -0.00000000000E+00 -0.00000000000E+00 -0.45593999997E+02  0.45594000000E+02  0.51100000000E-03 0.  1.
    9900012    2    1    2    0    0  0.28607798534E+02  0.13561381881E+02 -0.37951713961E+01  0.59301944404E+02  0.50000000687E+02 0.  0.
         12    1    1    2    0    0 -0.28607798534E+02 -0.13561381881E+02  0.37951713961E+01  0.31886055596E+02  0.00000000000E+00 0. -1.
         11    1    3    3    0    0 -0.29367856503E+01  0.45804797313E+01  0.32564913559E+01  0.63411545271E+01  0.51100000000E-03 0. -1.
        -11    1    3    3    0    0  0.32978099044E+02  0.20910182917E+02 -0.10546492626E+02  0.40447735081E+02  0.51100000000E-03 0.  1.
        -12    1    3    3    0    0 -0.14335148595E+01 -0.11929280768E+02  0.34948298745E+01  0.12513054796E+02  0.00000000000E+00 0.  1.
</event>
<event>
 7    1  0.4346085E-013  0.5930214E+02  0.7816164E-02  0.1266604E+00
        -11   -1    0    0    0    0  0.00000000000E+00  0.00000000000E+00  0.45593999997E+02  0.45594000000E+02  0.51100000000E-03 0. -1.
         11   -1    0    0    0    0 -0.00000000000E+00 -0.00000000000E+00 -0.45593999997E+02  0.45594000000E+02  0.51100000000E-03 0.  1.
    9900012    2    1    2    0    0 -0.14329803707E+02 -0.27727063156E+02 -0.65249332062E+01  0.59302140142E+02  0.50000357664E+02 0.  0.
         12    1    1    2    0    0  0.14329803707E+02  0.27727063156E+02  0.65249332062E+01  0.31885859858E+02  0.00000000000E+00 0. -1.
         11    1    3    3    0    0 -0.90898401118E+01  0.12738389009E+02 -0.72621531989E+01  0.17251974297E+02  0.51100000000E-03 0. -1.
        -11    1    3    3    0    0  0.20241031558E+01 -0.16443046008E+02 -0.24668012039E+01  0.16749801911E+02  0.51100000000E-03 0.  1.
         12    1    3    3    0    0 -0.72640667513E+01 -0.24022406157E+02  0.32040211966E+01  0.25300363933E+02  0.00000000000E+00 0. -1.
</event>
<event>
 7    1  0.4346085E-013  0.5930195E+02  0.7816164E-02  0.1266605E+00
        -11   -1    0    0    0    0  0.00000000000E+00  0.00000000000E+00  0.45593999997E+02  0.45594000000E+02  0.51100000000E-03 0. -1.
         11   -1    0    0    0    0 -0.00000000000E+00 -0.00000000000E+00 -0.45593999997E+02  0.45594000000E+02  0.51100000000E-03 0.  1.
    9900012    2    1    2    0    0  0.91432669001E+01  0.23499245636E+02 -0.19516829347E+02  0.59301945010E+02  0.50000001792E+02 0.  0.
         12    1    1    2    0    0 -0.91432669001E+01 -0.23499245636E+02  0.19516829347E+02  0.31886054990E+02  0.00000000000E+00 0. -1.
         11    1    3    3    0    0 -0.15187320884E+02  0.83154857277E+01  0.84202470284E+00  0.17335253802E+02  0.51100000000E-03 0. -1.
        -11    1    3    3    0    0  0.25075562787E+02  0.19298190660E+02 -0.20635820245E+02  0.37776197390E+02  0.51100000000E-03 0.  1.
        -12    1    3    3    0    0 -0.74497500304E+00 -0.41144307515E+01  0.27696619560E+00  0.41904938179E+01  0.00000000000E+00 0.  1.
</event>
<event>
 7    1  0.4346085E-013  0.5930194E+02  0.7816164E-02  0.1266605E+00
        -11   -1    0    0    0    0  0.00000000000E+00  0.00000000000E+00  0.45593999997E+02  0.45594000000E+02  0.51100000000E-03 0.  1.
         11   -1    0    0    0    0 -0.00000000000E+00 -0.00000000000E+00 -0.45593999997E+02  0.45594000000E+02  0.51100000000E-03 0. -1.
    9900012    2    1    2    0    0 -0.54859737354E+01  0.67165030115E+01  0.30684095372E+02  0.59301936754E+02  0.49999986734E+02 0.  0.
         12    1    1    2    0    0  0.54859737354E+01 -0.67165030115E+01 -0.30684095372E+02  0.31886063246E+02  0.00000000000E+00 0. -1.
         11    1    3    3    0    0 -0.23534687219E+02 -0.38488221777E+01  0.16414368939E+02  0.28950413513E+02  0.51100000000E-03 0. -1.
        -11    1    3    3    0    0  0.78548061089E+01  0.13055299453E+02  0.12504596645E+02  0.19710498734E+02  0.51100000000E-03 0.  1.
         12    1    3    3    0    0  0.10193907375E+02 -0.24899742638E+01  0.17651297889E+01  0.10641024507E+02  0.00000000000E+00 0. -1.
</event>
<event>
 7    1  0.4346085E-013  0.5930199E+02  0.7816164E-02  0.1266605E+00
        -11   -1    0    0    0    0  0.00000000000E+00  0.00000000000E+00  0.45593999997E+02  0.45594000000E+02  0.51100000000E-03 0.  1.
         11   -1    0    0    0    0 -0.00000000000E+00 -0.00000000000E+00 -0.45593999997E+02  0.45594000000E+02  0.51100000000E-03 0. -1.
    9900012    2    1    2    0    0  0.26063715703E+02  0.29349833925E+01  0.18132462784E+02  0.59301990366E+02  0.50000084510E+02 0.  0.
         12    1    1    2    0    0 -0.26063715703E+02 -0.29349833925E+01 -0.18132462784E+02  0.31886009634E+02  0.00000000000E+00 0. -1.
         11    1    3    3    0    0  0.25678238902E+02 -0.14319836731E+02  0.18504755145E+02  0.34739827869E+02  0.51100000000E-03 0. -1.
        -11    1    3    3    0    0  0.58787218102E+01  0.16517023103E+02  0.33986913674E+01  0.17858402101E+02  0.51100000000E-03 0.  1.
         12    1    3    3    0    0 -0.54932450090E+01  0.73779702035E+00 -0.37709837290E+01  0.67037603967E+01  0.00000000000E+00 0. -1.
</event>
<event>
 7    1  0.4890476E-013  0.5930194E+02  0.7816164E-02  0.1266605E+00
        -11   -1    0    0    0    0  0.00000000000E+00  0.00000000000E+00  0.45593999997E+02  0.45594000000E+02  0.51100000000E-03 0. -1.
         11   -1    0    0    0    0 -0.00000000000E+00 -0.00000000000E+00 -0.45593999997E+02  0.45594000000E+02  0.51100000000E-03 0.  1.
    9900012    2    1    2    0    0 -0.10186132510E+02 -0.11041010103E+02 -0.28125776569E+02  0.59301944941E+02  0.50000001665E+02 0.  0.
         12    1    1    2    0    0  0.10186132510E+02  0.11041010103E+02  0.28125776569E+02  0.31886055059E+02  0.00000000000E+00 0. -1.
         11    1    3    3    0    0  0.75778937263E+01 -0.14440997654E+02  0.40433634241E+01  0.16802252070E+02  0.51100000000E-03 0. -1.
        -11    1    3    3    0    0 -0.17386563277E+02 -0.59507063212E+01 -0.22358537132E+02  0.28941452472E+02  0.51100000000E-03 0.  1.
         12    1    3    3    0    0 -0.37746295976E+00  0.93506938728E+01 -0.98106028620E+01  0.13558240399E+02  0.00000000000E+00 0. -1.
</event>
<event>
 7    1  0.4346085E-013  0.5930191E+02  0.7816164E-02  0.1266605E+00
        -11   -1    0    0    0    0  0.00000000000E+00  0.00000000000E+00  0.45593999997E+02  0.45594000000E+02  0.51100000000E-03 0.  1.
         11   -1    0    0    0    0 -0.00000000000E+00 -0.00000000000E+00 -0.45593999997E+02  0.45594000000E+02  0.51100000000E-03 0. -1.
    9900012    2    1    2    0    0  0.16011177721E+01  0.28727161589E+02  0.13744439601E+02  0.59301905679E+02  0.49999930062E+02 0.  0.
         12    1    1    2    0    0 -0.16011177721E+01 -0.28727161589E+02 -0.13744439601E+02  0.31886094321E+02  0.00000000000E+00 0. -1.
         11    1    3    3    0    0 -0.16966588565E+02  0.89965023397E+01 -0.36895570877E+01  0.19555434376E+02  0.51100000000E-03 0. -1.
        -11    1    3    3    0    0  0.77190571692E+01  0.21682221392E+02  0.17180820757E+02  0.28720779415E+02  0.51100000000E-03 0.  1.
        -12    1    3    3    0    0  0.10848649168E+02 -0.19515621425E+01  0.25317593208E+00  0.11025691888E+02  0.00000000000E+00 0.  1.
</event>
<event>
 7    1  0.4346085E-013  0.5930194E+02  0.7816164E-02  0.1266605E+00
        -11   -1    0    0    0    0  0.00000000000E+00  0.00000000000E+00  0.45593999997E+02  0.45594000000E+02  0.51100000000E-03 0. -1.
         11   -1    0    0    0    0 -0.00000000000E+00 -0.00000000000E+00 -0.45593999997E+02  0.45594000000E+02  0.51100000000E-03 0.  1.
    9900012    2    1    2    0    0  0.29867684872E+02  0.59486522298E+01 -0.94475123392E+01  0.59301944234E+02  0.50000000375E+02 0.  0.
         12    1    1    2    0    0 -0.29867684872E+02 -0.59486522298E+01  0.94475123392E+01  0.31886055766E+02  0.00000000000E+00 0. -1.
         11    1    3    3    0    0  0.10867114044E+02 -0.91015935331E+01  0.82547200303E+01  0.16403462303E+02  0.51100000000E-03 0. -1.
        -11    1    3    3    0    0 -0.41795286557E+01  0.15083116432E+02 -0.95053435819E+01  0.18311756278E+02  0.51100000000E-03 0.  1.
        -12    1    3    3    0    0  0.23180099483E+02 -0.32870669496E-01 -0.81968887876E+01  0.24586725653E+02  0.00000000000E+00 0.  1.
</event>
<event>
 7    1  0.4346085E-013  0.5930195E+02  0.7816164E-02  0.1266605E+00
        -11   -1    0    0    0    0  0.00000000000E+00  0.00000000000E+00  0.45593999997E+02  0.45594000000E+02  0.51100000000E-03 0.  1.
         11   -1    0    0    0    0 -0.00000000000E+00 -0.00000000000E+00 -0.45593999997E+02  0.45594000000E+02  0.51100000000E-03 0. -1.
    9900012    2    1    2    0    0 -0.64339476052E+01 -0.27412187138E+02  0.14963177475E+02  0.59301947161E+02  0.50000005715E+02 0.  0.
         12    1    1    2    0    0  0.64339476052E+01  0.27412187138E+02 -0.14963177475E+02  0.31886052839E+02  0.00000000000E+00 0. -1.
         11    1    3    3    0    0  0.10458229459E+01  0.80399646333E+01  0.15109568581E+02  0.17147414963E+02  0.51100000000E-03 0. -1.
        -11    1    3    3    0    0 -0.10072966030E+02 -0.37390819794E+02 -0.12209545802E+01  0.38743112677E+02  0.51100000000E-03 0.  1.
        -12    1    3    3    0    0  0.25931954784E+01  0.19386680234E+01  0.10745634746E+01  0.34114195220E+01  0.00000000000E+00 0.  1.
</event>
<event>
 7    1  0.4346085E-013  0.5930186E+02  0.7816164E-02  0.1266605E+00
        -11   -1    0    0    0    0  0.00000000000E+00  0.00000000000E+00  0.45593999997E+02  0.45594000000E+02  0.51100000000E-03 0.  1.
         11   -1    0    0    0    0 -0.00000000000E+00 -0.00000000000E+00 -0.45593999997E+02  0.45594000000E+02  0.51100000000E-03 0. -1.
    9900012    2    1    2    0    0 -0.10451984602E+02 -0.29194134193E+02 -0.74286278461E+01  0.59301859358E+02  0.49999845582E+02 0.  0.
         12    1    1    2    0    0  0.10451984602E+02  0.29194134193E+02  0.74286278461E+01  0.31886140642E+02  0.00000000000E+00 0. -1.
         11    1    3    3    0    0  0.16139435180E+01  0.92117919850E+01 -0.79819566418E+01  0.12295265648E+02  0.51100000000E-03 0. -1.
        -11    1    3    3    0    0 -0.10758423650E+02 -0.37645169161E+02  0.75282661632E+01  0.39869502534E+02  0.51100000000E-03 0.  1.
        -12    1    3    3    0    0 -0.13075044696E+01 -0.76075701645E+00 -0.69749373674E+01  0.71370911761E+01  0.00000000000E+00 0.  1.
</event>
<event>
 7    1  0.4346085E-013  0.5930195E+02  0.7816164E-02  0.1266605E+00
        -11   -1    0    0    0    0  0.00000000000E+00  0.00000000000E+00  0.45593999997E+02  0.45594000000E+02  0.51100000000E-03 0.  1.
         11   -1    0    0    0    0 -0.00000000000E+00 -0.00000000000E+00 -0.45593999997E+02  0.45594000000E+02  0.51100000000E-03 0. -1.
    9900012    2    1    2    0    0  0.18792222668E+02  0.23860193232E+02  0.97089584077E+01  0.59301947763E+02  0.50000006812E+02 0.  0.
         12    1    1    2    0    0 -0.18792222668E+02 -0.23860193232E+02 -0.97089584077E+01  0.31886052237E+02  0.00000000000E+00 0. -1.
         11    1    3    3    0    0 -0.75047918654E+01  0.95954644526E+01 -0.49068157410E+01  0.13132847368E+02  0.51100000000E-03 0. -1.
        -11    1    3    3    0    0  0.25458906772E+02 -0.62058433637E+00  0.25361282789E+00  0.25467732107E+02  0.51100000000E-03 0.  1.
        -12    1    3    3    0    0  0.83810776119E+00  0.14885313116E+02  0.14362161321E+02  0.20701368288E+02  0.00000000000E+00 0.  1.
</event>
<event>
 7    1  0.4346085E-013  0.5930196E+02  0.7816164E-02  0.1266605E+00
        -11   -1    0    0    0    0  0.00000000000E+00  0.00000000000E+00  0.45593999997E+02  0.45594000000E+02  0.51100000000E-03 0. -1.
         11   -1    0    0    0    0 -0.00000000000E+00 -0.00000000000E+00 -0.45593999997E+02  0.45594000000E+02  0.51100000000E-03 0.  1.
    9900012    2    1    2    0    0 -0.10900419345E+02  0.13586562885E+02 -0.26707785817E+02  0.59301958286E+02  0.50000026003E+02 0.  0.
         12    1    1    2    0    0  0.10900419345E+02 -0.13586562885E+02  0.26707785817E+02  0.31886041714E+02  0.00000000000E+00 0. -1.
         11    1    3    3    0    0  0.43505809406E+01  0.41789755417E+00 -0.16433870979E+02  0.17005125947E+02  0.51100000000E-03 0. -1.
        -11    1    3    3    0    0 -0.25821913418E+02  0.57455651102E+01 -0.12384065894E+02  0.29208694242E+02  0.51100000000E-03 0.  1.
        -12    1    3    3    0    0  0.10570913133E+02  0.74231002210E+01  0.21101510548E+01  0.13088138096E+02  0.00000000000E+00 0.  1.
</event>
<event>
 7    1  0.4346085E-013  0.5930192E+02  0.7816164E-02  0.1266605E+00
        -11   -1    0    0    0    0  0.00000000000E+00  0.00000000000E+00  0.45593999997E+02  0.45594000000E+02  0.51100000000E-03 0. -1.
         11   -1    0    0    0    0 -0.00000000000E+00 -0.00000000000E+00 -0.45593999997E+02  0.45594000000E+02  0.51100000000E-03 0.  1.
    9900012    2    1    2    0    0 -0.27950561713E+02  0.13452976708E+02 -0.73827914059E+01  0.59301920102E+02  0.49999956364E+02 0.  0.
         12    1    1    2    0    0  0.27950561713E+02 -0.13452976708E+02  0.73827914059E+01  0.31886079898E+02  0.00000000000E+00 0. -1.
         11    1    3    3    0    0 -0.30747407629E+02  0.17213885497E+02 -0.12006552746E+02  0.37227385603E+02  0.51100000000E-03 0. -1.
        -11    1    3    3    0    0  0.10563084002E+02  0.17793289565E+01 -0.13834730042E+01  0.10800868158E+02  0.51100000000E-03 0.  1.
         12    1    3    3    0    0 -0.77662380856E+01 -0.55402377454E+01  0.60072343439E+01  0.11273666340E+02  0.00000000000E+00 0. -1.
</event>
<event>
 7    1  0.4346085E-013  0.5930190E+02  0.7816164E-02  0.1266605E+00
        -11   -1    0    0    0    0  0.00000000000E+00  0.00000000000E+00  0.45593999997E+02  0.45594000000E+02  0.51100000000E-03 0.  1.
         11   -1    0    0    0    0 -0.00000000000E+00 -0.00000000000E+00 -0.45593999997E+02  0.45594000000E+02  0.51100000000E-03 0. -1.
    9900012    2    1    2    0    0 -0.28406328191E+02 -0.24814125983E+01  0.14270466838E+02  0.59301904072E+02  0.49999927130E+02 0.  0.
         12    1    1    2    0    0  0.28406328191E+02  0.24814125983E+01 -0.14270466838E+02  0.31886095928E+02  0.00000000000E+00 0. -1.
         11    1    3    3    0    0 -0.50048986558E+01  0.83856405049E+00 -0.10978425460E+02  0.12094545302E+02  0.51100000000E-03 0.  1.
        -11    1    3    3    0    0 -0.18356978674E+02 -0.17016239001E+02  0.18509354579E+02  0.31130808903E+02  0.51100000000E-03 0. -1.
        -12    1    3    3    0    0 -0.50444508609E+01  0.13696262352E+02  0.67395377196E+01  0.16076549866E+02  0.00000000000E+00 0.  1.
</event>
<event>
 7    1  0.4346085E-013  0.5930195E+02  0.7816164E-02  0.1266605E+00
        -11   -1    0    0    0    0  0.00000000000E+00  0.00000000000E+00  0.45593999997E+02  0.45594000000E+02  0.51100000000E-03 0.  1.
         11   -1    0    0    0    0 -0.00000000000E+00 -0.00000000000E+00 -0.45593999997E+02  0.45594000000E+02  0.51100000000E-03 0. -1.
    9900012    2    1    2    0    0 -0.77960533363E+01  0.26977871375E+02  0.15104181845E+02  0.59301948179E+02  0.50000007571E+02 0.  0.
         12    1    1    2    0    0  0.77960533363E+01 -0.26977871375E+02 -0.15104181845E+02  0.31886051821E+02  0.00000000000E+00 0. -1.
         11    1    3    3    0    0  0.19075012060E-01  0.30874107385E+02 -0.48550485728E+01  0.31253517683E+02  0.51100000000E-03 0. -1.
        -11    1    3    3    0    0  0.18393133795E+01  0.10237331422E+00  0.17121386924E+02  0.17220204542E+02  0.51100000000E-03 0.  1.
        -12    1    3    3    0    0 -0.96544417278E+01 -0.39986093242E+01  0.28378434933E+01  0.10828225953E+02  0.00000000000E+00 0.  1.
</event>
<event>
 7    1  0.4346085E-013  0.5930195E+02  0.7816164E-02  0.1266605E+00
        -11   -1    0    0    0    0  0.00000000000E+00  0.00000000000E+00  0.45593999997E+02  0.45594000000E+02  0.51100000000E-03 0.  1.
         11   -1    0    0    0    0 -0.00000000000E+00 -0.00000000000E+00 -0.45593999997E+02  0.45594000000E+02  0.51100000000E-03 0. -1.
    9900012    2    1    2    0    0  0.17632336005E+02  0.13335136738E+02  0.22978143617E+02  0.59301949305E+02  0.50000009625E+02 0.  0.
         12    1    1    2    0    0 -0.17632336005E+02 -0.13335136738E+02 -0.22978143617E+02  0.31886050695E+02  0.00000000000E+00 0. -1.
         11    1    3    3    0    0 -0.11536509891E+02 -0.77171862596E+01 -0.38761192896E+01  0.14410771154E+02  0.51100000000E-03 0. -1.
        -11    1    3    3    0    0  0.19057247757E+02  0.13646124547E+02  0.17436308604E+02  0.29213357651E+02  0.51100000000E-03 0.  1.
         12    1    3    3    0    0  0.10111598139E+02  0.74061984501E+01  0.94179543024E+01  0.15677820500E+02  0.00000000000E+00 0. -1.
</event>
<event>
 7    1  0.4346085E-013  0.5930194E+02  0.7816164E-02  0.1266605E+00
        -11   -1    0    0    0    0  0.00000000000E+00  0.00000000000E+00  0.45593999997E+02  0.45594000000E+02  0.51100000000E-03 0.  1.
         11   -1    0    0    0    0 -0.00000000000E+00 -0.00000000000E+00 -0.45593999997E+02  0.45594000000E+02  0.51100000000E-03 0. -1.
    9900012    2    1    2    0    0 -0.18751120179E+02 -0.18628224544E+02  0.17835509738E+02  0.59301942463E+02  0.49999997147E+02 0.  0.
         12    1    1    2    0    0  0.18751120179E+02  0.18628224544E+02 -0.17835509738E+02  0.31886057537E+02  0.00000000000E+00 0. -1.
         11    1    3    3    0    0 -0.20947244827E+02 -0.21148147167E+02  0.17841244601E+01  0.29819696424E+02  0.51100000000E-03 0. -1.
        -11    1    3    3    0    0  0.99883342850E+01 -0.53407608243E+01  0.14353753900E+02  0.18284441453E+02  0.51100000000E-03 0.  1.
        -12    1    3    3    0    0 -0.77922096363E+01  0.78606834466E+01  0.16976313777E+01  0.11197804587E+02  0.00000000000E+00 0.  1.
</event>
<event>
 7    1  0.4346085E-013  0.5930195E+02  0.7816164E-02  0.1266605E+00
        -11   -1    0    0    0    0  0.00000000000E+00  0.00000000000E+00  0.45593999997E+02  0.45594000000E+02  0.51100000000E-03 0. -1.
         11   -1    0    0    0    0 -0.00000000000E+00 -0.00000000000E+00 -0.45593999997E+02  0.45594000000E+02  0.51100000000E-03 0.  1.
    9900012    2    1    2    0    0 -0.14306711597E+02  0.28456271884E+02  0.15095134718E+01  0.59301952312E+02  0.50000015108E+02 0.  0.
         12    1    1    2    0    0  0.14306711597E+02 -0.28456271884E+02 -0.15095134718E+01  0.31886047688E+02  0.00000000000E+00 0. -1.
         11    1    3    3    0    0 -0.38528195069E+00 -0.47576097952E+01  0.29570860837E+01  0.56149489323E+01  0.51100000000E-03 0. -1.
        -11    1    3    3    0    0 -0.25371876909E+02  0.20252675123E+02 -0.10560456027E+02  0.34138339434E+02  0.51100000000E-03 0.  1.
        -12    1    3    3    0    0  0.11450447263E+02  0.12961206557E+02  0.91128834149E+01  0.19548663946E+02  0.00000000000E+00 0.  1.
</event>
<event>
 7    1  0.4346085E-013  0.5930193E+02  0.7816164E-02  0.1266605E+00
        -11   -1    0    0    0    0  0.00000000000E+00  0.00000000000E+00  0.45593999997E+02  0.45594000000E+02  0.51100000000E-03 0. -1.
         11   -1    0    0    0    0 -0.00000000000E+00 -0.00000000000E+00 -0.45593999997E+02  0.45594000000E+02  0.51100000000E-03 0.  1.
    9900012    2    1    2    0    0  0.22614463398E+02 -0.10696787253E+02 -0.19770837188E+02  0.59301933836E+02  0.49999981413E+02 0.  0.
         12    1    1    2    0    0 -0.22614463398E+02  0.10696787253E+02  0.19770837188E+02  0.31886066164E+02  0.00000000000E+00 0. -1.
         11    1    3    3    0    0  0.17995638311E+02 -0.18817146455E+02 -0.16989454791E+02  0.31089702046E+02  0.51100000000E-03 0. -1.
        -11    1    3    3    0    0 -0.90623432613E+01 -0.16746888966E+00  0.50786038638E+01  0.10389722262E+02  0.51100000000E-03 0.  1.
         12    1    3    3    0    0  0.13681168348E+02  0.82878280923E+01 -0.78599862612E+01  0.17822509528E+02  0.00000000000E+00 0. -1.
</event>
<event>
 7    1  0.4346085E-013  0.5930195E+02  0.7816164E-02  0.1266605E+00
        -11   -1    0    0    0    0  0.00000000000E+00  0.00000000000E+00  0.45593999997E+02  0.45594000000E+02  0.51100000000E-03 0.  1.
         11   -1    0    0    0    0 -0.00000000000E+00 -0.00000000000E+00 -0.45593999997E+02  0.45594000000E+02  0.51100000000E-03 0. -1.
    9900012    2    1    2    0    0 -0.26118145877E+02  0.55250650573E+01  0.17436645014E+02  0.59301945411E+02  0.50000002522E+02 0.  0.
         12    1    1    2    0    0  0.26118145877E+02 -0.55250650573E+01 -0.17436645014E+02  0.31886054589E+02  0.00000000000E+00 0. -1.
         11    1    3    3    0    0 -0.10791300829E+02  0.17794418053E+02  0.10186800285E+02  0.23170334217E+02  0.51100000000E-03 0. -1.
        -11    1    3    3    0    0 -0.20786500866E+02 -0.11917319251E+02  0.13757988845E+02  0.27629393292E+02  0.51100000000E-03 0.  1.
        -12    1    3    3    0    0  0.54596558185E+01 -0.35203374413E+00 -0.65081441157E+01  0.85022179015E+01  0.00000000000E+00 0.  1.
</event>
<event>
 7    1  0.4346085E-013  0.5930186E+02  0.7816164E-02  0.1266605E+00
        -11   -1    0    0    0    0  0.00000000000E+00  0.00000000000E+00  0.45593999997E+02  0.45594000000E+02  0.51100000000E-03 0. -1.
         11   -1    0    0    0    0 -0.00000000000E+00 -0.00000000000E+00 -0.45593999997E+02  0.45594000000E+02  0.51100000000E-03 0.  1.
    9900012    2    1    2    0    0 -0.30662046328E+02  0.72448415966E+01 -0.49068440790E+01  0.59301859851E+02  0.49999846482E+02 0.  0.
         12    1    1    2    0    0  0.30662046328E+02 -0.72448415966E+01  0.49068440790E+01  0.31886140149E+02  0.00000000000E+00 0. -1.
         11    1    3    3    0    0  0.97022048299E+01  0.72215942215E+01 -0.54370872481E+01  0.13260698310E+02  0.51100000000E-03 0. -1.
        -11    1    3    3    0    0 -0.13665264743E+02 -0.98774046694E+01  0.40724564041E+01  0.17346108639E+02  0.51100000000E-03 0.  1.
         12    1    3    3    0    0 -0.26698986415E+02  0.99006520445E+01 -0.35422132351E+01  0.28695052903E+02  0.00000000000E+00 0. -1.
</event>
<event>
 7    1  0.4346085E-013  0.5930190E+02  0.7816164E-02  0.1266605E+00
        -11   -1    0    0    0    0  0.00000000000E+00  0.00000000000E+00  0.45593999997E+02  0.45594000000E+02  0.51100000000E-03 0.  1.
         11   -1    0    0    0    0 -0.00000000000E+00 -0.00000000000E+00 -0.45593999997E+02  0.45594000000E+02  0.51100000000E-03 0. -1.
    9900012    2    1    2    0    0 -0.78325868699E+00 -0.27576395503E+02  0.15989134412E+02  0.59301897975E+02  0.49999916011E+02 0.  0.
         12    1    1    2    0    0  0.78325868699E+00  0.27576395503E+02 -0.15989134412E+02  0.31886102025E+02  0.00000000000E+00 0. -1.
         11    1    3    3    0    0 -0.72227261492E+01 -0.10302643643E+02 -0.10394092898E+02  0.16320214658E+02  0.51100000000E-03 0. -1.
        -11    1    3    3    0    0  0.13929945257E+02 -0.92667411199E+01  0.27257297088E+02  0.31982434408E+02  0.51100000000E-03 0.  1.
        -12    1    3    3    0    0 -0.74904777947E+01 -0.80070107401E+01 -0.87406977793E+00  0.10999248909E+02  0.00000000000E+00 0.  1.
</event>
<event>
 7    1  0.4346085E-013  0.5930196E+02  0.7816164E-02  0.1266605E+00
        -11   -1    0    0    0    0  0.00000000000E+00  0.00000000000E+00  0.45593999997E+02  0.45594000000E+02  0.51100000000E-03 0.  1.
         11   -1    0    0    0    0 -0.00000000000E+00 -0.00000000000E+00 -0.45593999997E+02  0.45594000000E+02  0.51100000000E-03 0. -1.
    9900012    2    1    2    0    0 -0.30081190852E+02  0.13555183175E+01  0.10488273522E+02  0.59301963017E+02  0.50000034633E+02 0.  0.
         12    1    1    2    0    0  0.30081190852E+02 -0.13555183175E+01 -0.10488273522E+02  0.31886036983E+02  0.00000000000E+00 0. -1.
         11    1    3    3    0    0 -0.16535323093E+02 -0.12494511546E+02 -0.14940757139E+02  0.25549089078E+02  0.51100000000E-03 0. -1.
        -11    1    3    3    0    0 -0.18089077035E+01  0.79524953321E+01  0.53319523831E+01  0.97439235200E+01  0.51100000000E-03 0.  1.
         12    1    3    3    0    0 -0.11736960055E+02  0.58975345315E+01  0.20097078279E+02  0.24008950419E+02  0.00000000000E+00 0. -1.
</event>
<event>
 7    1  0.4346085E-013  0.5930192E+02  0.7816164E-02  0.1266605E+00
        -11   -1    0    0    0    0  0.00000000000E+00  0.00000000000E+00  0.45593999997E+02  0.45594000000E+02  0.51100000000E-03 0. -1.
         11   -1    0    0    0    0 -0.00000000000E+00 -0.00000000000E+00 -0.45593999997E+02  0.45594000000E+02  0.51100000000E-03 0.  1.
    9900012    2    1    2    0    0  0.16580634928E+02 -0.80157952302E+00 -0.27224289215E+02  0.59301922982E+02  0.49999961618E+02 0.  0.
         12    1    1    2    0    0 -0.16580634928E+02  0.80157952302E+00  0.27224289215E+02  0.31886077018E+02  0.00000000000E+00 0. -1.
         11    1    3    3    0    0 -0.14449714548E+02  0.51126937433E+01 -0.11322933182E+02  0.19056303522E+02  0.51100000000E-03 0. -1.
        -11    1    3    3    0    0  0.31036900314E+02 -0.55692475671E+01 -0.19207182450E+02  0.36921830365E+02  0.51100000000E-03 0.  1.
        -12    1    3    3    0    0 -0.65508377301E-02 -0.34502569920E+00  0.33058264175E+01  0.33237890952E+01  0.00000000000E+00 0.  1.
</event>
<event>
 7    1  0.4346085E-013  0.5930196E+02  0.7816164E-02  0.1266605E+00
        -11   -1    0    0    0    0  0.00000000000E+00  0.00000000000E+00  0.45593999997E+02  0.45594000000E+02  0.51100000000E-03 0. -1.
         11   -1    0    0    0    0 -0.00000000000E+00 -0.00000000000E+00 -0.45593999997E+02  0.45594000000E+02  0.51100000000E-03 0.  1.
    9900012    2    1    2    0    0  0.31235325016E+02  0.38160494152E+01  0.51489423902E+01  0.59301962778E+02  0.50000034195E+02 0.  0.
         12    1    1    2    0    0 -0.31235325016E+02 -0.38160494152E+01 -0.51489423902E+01  0.31886037222E+02  0.00000000000E+00 0. -1.
         11    1    3    3    0    0  0.20937151681E+02  0.16983694587E+02 -0.64499086110E+01  0.27720236717E+02  0.51100000000E-03 0. -1.
        -11    1    3    3    0    0  0.75793330131E+01 -0.18715074223E+02  0.21681305443E+01  0.20307660683E+02  0.51100000000E-03 0.  1.
         12    1    3    3    0    0  0.27188403226E+01  0.55474290519E+01  0.94307204569E+01  0.11274065377E+02  0.00000000000E+00 0. -1.
</event>
<event>
 7    1  0.4346085E-013  0.5930189E+02  0.7816164E-02  0.1266605E+00
        -11   -1    0    0    0    0  0.00000000000E+00  0.00000000000E+00  0.45593999997E+02  0.45594000000E+02  0.51100000000E-03 0.  1.
         11   -1    0    0    0    0 -0.00000000000E+00 -0.00000000000E+00 -0.45593999997E+02  0.45594000000E+02  0.51100000000E-03 0. -1.
    9900012    2    1    2    0    0  0.23253604023E+02 -0.21535600503E+02 -0.34945529951E+01  0.59301888765E+02  0.49999899213E+02 0.  0.
         12    1    1    2    0    0 -0.23253604023E+02  0.21535600503E+02  0.34945529951E+01  0.31886111235E+02  0.00000000000E+00 0. -1.
         11    1    3    3    0    0 -0.15155786835E+01  0.34045679802E+01  0.10358948038E+02  0.11008899427E+02  0.51100000000E-03 0.  1.
        -11    1    3    3    0    0  0.10387890750E+02 -0.11616085567E+02 -0.22085576741E+02  0.27029880103E+02  0.51100000000E-03 0. -1.
        -12    1    3    3    0    0  0.14381291956E+02 -0.13324082916E+02  0.82320757074E+01  0.21263109235E+02  0.00000000000E+00 0.  1.
</event>
<event>
 7    1  0.4346085E-013  0.5930214E+02  0.7816164E-02  0.1266604E+00
        -11   -1    0    0    0    0  0.00000000000E+00  0.00000000000E+00  0.45593999997E+02  0.45594000000E+02  0.51100000000E-03 0.  1.
         11   -1    0    0    0    0 -0.00000000000E+00 -0.00000000000E+00 -0.45593999997E+02  0.45594000000E+02  0.51100000000E-03 0. -1.
    9900012    2    1    2    0    0 -0.37190736248E+00  0.56613224914E+01  0.31377045624E+02  0.59302142954E+02  0.50000362793E+02 0.  0.
         12    1    1    2    0    0  0.37190736248E+00 -0.56613224914E+01 -0.31377045624E+02  0.31885857046E+02  0.00000000000E+00 0. -1.
         11    1    3    3    0    0 -0.22931002436E+02 -0.44126089518E+01  0.10142464373E+02  0.25459213937E+02  0.51100000000E-03 0. -1.
        -11    1    3    3    0    0  0.18042677264E+02  0.72055613860E+01  0.11081611994E+02  0.22366502686E+02  0.51100000000E-03 0.  1.
         12    1    3    3    0    0  0.45164178096E+01  0.28683700572E+01  0.10152969257E+02  0.11476426332E+02  0.00000000000E+00 0. -1.
</event>
<event>
 7    1  0.4346085E-013  0.5930193E+02  0.7816164E-02  0.1266605E+00
        -11   -1    0    0    0    0  0.00000000000E+00  0.00000000000E+00  0.45593999997E+02  0.45594000000E+02  0.51100000000E-03 0.  1.
         11   -1    0    0    0    0 -0.00000000000E+00 -0.00000000000E+00 -0.45593999997E+02  0.45594000000E+02  0.51100000000E-03 0. -1.
    9900012    2    1    2    0    0 -0.25437538314E+00 -0.61151354943E+01  0.31293158670E+02  0.59301931436E+02  0.49999977036E+02 0.  0.
         12    1    1    2    0    0  0.25437538314E+00  0.61151354943E+01 -0.31293158670E+02  0.31886068564E+02  0.00000000000E+00 0. -1.
         11    1    3    3    0    0 -0.31098192551E+01 -0.69704394256E+00 -0.22017356080E+01  0.38735624438E+01  0.51100000000E-03 0. -1.
        -11    1    3    3    0    0  0.53013966213E+01  0.10780969410E+02  0.36803656033E+02  0.38714896425E+02  0.51100000000E-03 0.  1.
        -12    1    3    3    0    0 -0.24459527493E+01 -0.16199060962E+02 -0.33087617552E+01  0.16713472567E+02  0.00000000000E+00 0.  1.
</event>
<event>
 7    1  0.4346085E-013  0.5930195E+02  0.7816164E-02  0.1266605E+00
        -11   -1    0    0    0    0  0.00000000000E+00  0.00000000000E+00  0.45593999997E+02  0.45594000000E+02  0.51100000000E-03 0.  1.
         11   -1    0    0    0    0 -0.00000000000E+00 -0.00000000000E+00 -0.45593999997E+02  0.45594000000E+02  0.51100000000E-03 0. -1.
    9900012    2    1    2    0    0 -0.28402357811E+02 -0.77790204207E+01  0.12227553184E+02  0.59301950625E+02  0.50000012031E+02 0.  0.
         12    1    1    2    0    0  0.28402357811E+02  0.77790204207E+01 -0.12227553184E+02  0.31886049375E+02  0.00000000000E+00 0. -1.
         11    1    3    3    0    0 -0.17142537569E+02  0.64677886199E+01  0.29491621645E+01  0.18557921265E+02  0.51100000000E-03 0. -1.
        -11    1    3    3    0    0  0.14161959086E+01 -0.20874751411E+02 -0.39133172188E+01  0.21285556353E+02  0.51100000000E-03 0.  1.
        -12    1    3    3    0    0 -0.12676016150E+02  0.66279423709E+01  0.13191708238E+02  0.19458473007E+02  0.00000000000E+00 0.  1.
</event>
<event>
 7    1  0.4346085E-013  0.5930176E+02  0.7816164E-02  0.1266605E+00
        -11   -1    0    0    0    0  0.00000000000E+00  0.00000000000E+00  0.45593999997E+02  0.45594000000E+02  0.51100000000E-03 0. -1.
         11   -1    0    0    0    0 -0.00000000000E+00 -0.00000000000E+00 -0.45593999997E+02  0.45594000000E+02  0.51100000000E-03 0.  1.
    9900012    2    1    2    0    0 -0.30713500140E+02 -0.25870123145E+01 -0.81682500946E+01  0.59301764205E+02  0.49999672046E+02 0.  0.
         12    1    1    2    0    0  0.30713500140E+02  0.25870123145E+01  0.81682500946E+01  0.31886235795E+02  0.00000000000E+00 0. -1.
         11    1    3    3    0    0 -0.16142053431E+02 -0.37709372005E+01  0.12342671030E+02  0.20667060380E+02  0.51100000000E-03 0. -1.
        -11    1    3    3    0    0 -0.23575716607E+01 -0.11309624727E+02 -0.17403018348E+02  0.20888532822E+02  0.51100000000E-03 0.  1.
         12    1    3    3    0    0 -0.12213875048E+02  0.12493549613E+02 -0.31079027764E+01  0.17746171004E+02  0.00000000000E+00 0. -1.
</event>
<event>
 7    1  0.4346085E-013  0.5930196E+02  0.7816164E-02  0.1266605E+00
        -11   -1    0    0    0    0  0.00000000000E+00  0.00000000000E+00  0.45593999997E+02  0.45594000000E+02  0.51100000000E-03 0.  1.
         11   -1    0    0    0    0 -0.00000000000E+00 -0.00000000000E+00 -0.45593999997E+02  0.45594000000E+02  0.51100000000E-03 0. -1.
    9900012    2    1    2    0    0 -0.24823097204E+01 -0.14038150155E+02  0.28521710501E+02  0.59301960872E+02  0.50000030720E+02 0.  0.
         12    1    1    2    0    0  0.24823097204E+01  0.14038150155E+02 -0.28521710501E+02  0.31886039128E+02  0.00000000000E+00 0. -1.
         11    1    3    3    0    0  0.97359059833E+01 -0.17106538209E+02 -0.39695437889E+01  0.20079312562E+02  0.51100000000E-03 0. -1.
        -11    1    3    3    0    0 -0.36595426923E+01 -0.16168977861E+01  0.28336772606E+02  0.28617814262E+02  0.51100000000E-03 0.  1.
         12    1    3    3    0    0 -0.85586730114E+01  0.46852858402E+01  0.41544816848E+01  0.10604834048E+02  0.00000000000E+00 0. -1.
</event>
<event>
 7    1  0.4346085E-013  0.5930195E+02  0.7816164E-02  0.1266605E+00
        -11   -1    0    0    0    0  0.00000000000E+00  0.00000000000E+00  0.45593999997E+02  0.45594000000E+02  0.51100000000E-03 0. -1.
         11   -1    0    0    0    0 -0.00000000000E+00 -0.00000000000E+00 -0.45593999997E+02  0.45594000000E+02  0.51100000000E-03 0.  1.
    9900012    2    1    2    0    0 -0.18290303587E+02  0.26069589762E+02  0.16005019844E+01  0.59301947841E+02  0.50000006954E+02 0.  0.
         12    1    1    2    0    0  0.18290303587E+02 -0.26069589762E+02 -0.16005019844E+01  0.31886052159E+02  0.00000000000E+00 0. -1.
         11    1    3    3    0    0 -0.29831460303E+02  0.18109071747E+02  0.11058009584E+02  0.36607841777E+02  0.51100000000E-03 0. -1.
        -11    1    3    3    0    0  0.10411601446E+02  0.10907036086E+02 -0.11475284954E+02  0.18948536775E+02  0.51100000000E-03 0.  1.
         12    1    3    3    0    0  0.11295552695E+01 -0.29465180713E+01  0.20177773542E+01  0.37455692895E+01  0.00000000000E+00 0. -1.
</event>
<event>
 7    1  0.4346085E-013  0.5930193E+02  0.7816164E-02  0.1266605E+00
        -11   -1    0    0    0    0  0.00000000000E+00  0.00000000000E+00  0.45593999997E+02  0.45594000000E+02  0.51100000000E-03 0. -1.
         11   -1    0    0    0    0 -0.00000000000E+00 -0.00000000000E+00 -0.45593999997E+02  0.45594000000E+02  0.51100000000E-03 0.  1.
    9900012    2    1    2    0    0  0.16640921043E+02 -0.27194641730E+02 -0.50282406286E+00  0.59301927429E+02  0.49999969728E+02 0.  0.
         12    1    1    2    0    0 -0.16640921043E+02  0.27194641730E+02  0.50282406286E+00  0.31886072571E+02  0.00000000000E+00 0. -1.
         11    1    3    3    0    0  0.27864090891E+01  0.28628588389E+01  0.42878944455E+01  0.58605524808E+01  0.51100000000E-03 0. -1.
        -11    1    3    3    0    0  0.25599032117E+02 -0.25096224602E+02  0.64737299255E+01  0.36428561789E+02  0.51100000000E-03 0.  1.
        -12    1    3    3    0    0 -0.11744520163E+02 -0.49612759667E+01 -0.11264448434E+02  0.17012813160E+02  0.00000000000E+00 0.  1.
</event>
<event>
 7    1  0.4346085E-013  0.5930196E+02  0.7816164E-02  0.1266605E+00
        -11   -1    0    0    0    0  0.00000000000E+00  0.00000000000E+00  0.45593999997E+02  0.45594000000E+02  0.51100000000E-03 0. -1.
         11   -1    0    0    0    0 -0.00000000000E+00 -0.00000000000E+00 -0.45593999997E+02  0.45594000000E+02  0.51100000000E-03 0.  1.
    9900012    2    1    2    0    0  0.19152567297E+02 -0.17226852154E+02 -0.18791874148E+02  0.59301955981E+02  0.50000021800E+02 0.  0.
         12    1    1    2    0    0 -0.19152567297E+02  0.17226852154E+02  0.18791874148E+02  0.31886044019E+02  0.00000000000E+00 0. -1.
         11    1    3    3    0    0 -0.83373509271E+01  0.19082394412E+01  0.70729730175E+00  0.85821365627E+01  0.51100000000E-03 0. -1.
        -11    1    3    3    0    0  0.12784617133E+02 -0.27010843112E+02 -0.15027581292E+02  0.33449368912E+02  0.51100000000E-03 0.  1.
         12    1    3    3    0    0  0.14705301091E+02  0.78757515175E+01 -0.44715901580E+01  0.17270450506E+02  0.00000000000E+00 0. -1.
</event>
<event>
 7    1  0.4346085E-013  0.5930189E+02  0.7816164E-02  0.1266605E+00
        -11   -1    0    0    0    0  0.00000000000E+00  0.00000000000E+00  0.45593999997E+02  0.45594000000E+02  0.51100000000E-03 0. -1.
         11   -1    0    0    0    0 -0.00000000000E+00 -0.00000000000E+00 -0.45593999997E+02  0.45594000000E+02  0.51100000000E-03 0.  1.
    9900012    2    1    2    0    0  0.69889496138E+01  0.29378016574E+02 -0.10237710480E+02  0.59301890322E+02  0.49999902053E+02 0.  0.
         12    1    1    2    0    0 -0.69889496138E+01 -0.29378016574E+02  0.10237710480E+02  0.31886109678E+02  0.00000000000E+00 0. -1.
         11    1    3    3    0    0  0.45419636940E+01  0.69204109940E+01  0.18379945755E+02  0.20157974321E+02  0.51100000000E-03 0. -1.
        -11    1    3    3    0    0  0.80654470411E+01  0.11404030240E+02 -0.18244961364E+02  0.22977857975E+02  0.51100000000E-03 0.  1.
         12    1    3    3    0    0 -0.56184611213E+01  0.11053575341E+02 -0.10372694871E+02  0.16166058025E+02  0.00000000000E+00 0. -1.
</event>
<event>
 7    1  0.4346085E-013  0.5930200E+02  0.7816164E-02  0.1266605E+00
        -11   -1    0    0    0    0  0.00000000000E+00  0.00000000000E+00  0.45593999997E+02  0.45594000000E+02  0.51100000000E-03 0. -1.
         11   -1    0    0    0    0 -0.00000000000E+00 -0.00000000000E+00 -0.45593999997E+02  0.45594000000E+02  0.51100000000E-03 0.  1.
    9900012    2    1    2    0    0  0.16301801808E+02 -0.14433617291E+02 -0.23294607942E+02  0.59302002925E+02  0.50000107415E+02 0.  0.
         12    1    1    2    0    0 -0.16301801808E+02  0.14433617291E+02  0.23294607942E+02  0.31885997075E+02  0.00000000000E+00 0. -1.
         11    1    3    3    0    0  0.16985354955E+02 -0.19777676020E+02 -0.69581513569E+01  0.26982857934E+02  0.51100000000E-03 0. -1.
        -11    1    3    3    0    0 -0.81616727720E+01  0.19981833017E+01 -0.21191139569E+02  0.22796272402E+02  0.51100000000E-03 0.  1.
         12    1    3    3    0    0  0.74781196243E+01  0.33458754267E+01  0.48546829840E+01  0.95228725898E+01  0.00000000000E+00 0. -1.
</event>
<event>
 7    1  0.4346085E-013  0.5930190E+02  0.7816164E-02  0.1266605E+00
        -11   -1    0    0    0    0  0.00000000000E+00  0.00000000000E+00  0.45593999997E+02  0.45594000000E+02  0.51100000000E-03 0.  1.
         11   -1    0    0    0    0 -0.00000000000E+00 -0.00000000000E+00 -0.45593999997E+02  0.45594000000E+02  0.51100000000E-03 0. -1.
    9900012    2    1    2    0    0 -0.82048436054E+01  0.30718342328E+02  0.24056320570E+01  0.59301904604E+02  0.49999928101E+02 0.  0.
         12    1    1    2    0    0  0.82048436054E+01 -0.30718342328E+02 -0.24056320570E+01  0.31886095396E+02  0.00000000000E+00 0. -1.
         11    1    3    3    0    0 -0.23007384516E+01 -0.47460942079E+01 -0.77781604748E+01  0.93977969911E+01  0.51100000000E-03 0. -1.
        -11    1    3    3    0    0 -0.13320549135E+02  0.35937364783E+02  0.14879213733E+02  0.41113528411E+02  0.51100000000E-03 0.  1.
        -12    1    3    3    0    0  0.74164439815E+01 -0.47292824751E+00 -0.46954212009E+01  0.87905792023E+01  0.00000000000E+00 0.  1.
</event>
<event>
 7    1  0.4346085E-013  0.5930195E+02  0.7816164E-02  0.1266605E+00
        -11   -1    0    0    0    0  0.00000000000E+00  0.00000000000E+00  0.45593999997E+02  0.45594000000E+02  0.51100000000E-03 0. -1.
         11   -1    0    0    0    0 -0.00000000000E+00 -0.00000000000E+00 -0.45593999997E+02  0.45594000000E+02  0.51100000000E-03 0.  1.
    9900012    2    1    2    0    0  0.19085155315E+01 -0.21830668321E+02 -0.23162467981E+02  0.59301946091E+02  0.50000003764E+02 0.  0.
         12    1    1    2    0    0 -0.19085155315E+01  0.21830668321E+02  0.23162467981E+02  0.31886053909E+02  0.00000000000E+00 0. -1.
         11    1    3    3    0    0  0.34318202570E+01 -0.72390596008E+01  0.10991026909E+02  0.13600884050E+02  0.51100000000E-03 0. -1.
        -11    1    3    3    0    0  0.56724613851E+00 -0.17463704398E+02 -0.37149822873E+02  0.41053770585E+02  0.51100000000E-03 0.  1.
        -12    1    3    3    0    0 -0.20905508640E+01  0.28720956777E+01  0.29963279831E+01  0.46472914563E+01  0.00000000000E+00 0.  1.
</event>
<event>
 7    1  0.4346085E-013  0.5930194E+02  0.7816164E-02  0.1266605E+00
        -11   -1    0    0    0    0  0.00000000000E+00  0.00000000000E+00  0.45593999997E+02  0.45594000000E+02  0.51100000000E-03 0. -1.
         11   -1    0    0    0    0 -0.00000000000E+00 -0.00000000000E+00 -0.45593999997E+02  0.45594000000E+02  0.51100000000E-03 0.  1.
    9900012    2    1    2    0    0 -0.13848395669E+02 -0.28445277567E+02 -0.39760238163E+01  0.59301942799E+02  0.49999997758E+02 0.  0.
         12    1    1    2    0    0  0.13848395669E+02  0.28445277567E+02  0.39760238163E+01  0.31886057201E+02  0.00000000000E+00 0. -1.
         11    1    3    3    0    0 -0.14057077490E+01  0.13040955117E+02  0.55461682173E+01  0.14240874509E+02  0.51100000000E-03 0. -1.
        -11    1    3    3    0    0 -0.47885584167E+01 -0.20502432533E+02 -0.84884517826E+01  0.22700965737E+02  0.51100000000E-03 0.  1.
         12    1    3    3    0    0 -0.76541295035E+01 -0.20983800151E+02 -0.10337402510E+01  0.22360102552E+02  0.00000000000E+00 0. -1.
</event>
<event>
 7    1  0.4346085E-013  0.5930201E+02  0.7816164E-02  0.1266605E+00
        -11   -1    0    0    0    0  0.00000000000E+00  0.00000000000E+00  0.45593999997E+02  0.45594000000E+02  0.51100000000E-03 0.  1.
         11   -1    0    0    0    0 -0.00000000000E+00 -0.00000000000E+00 -0.45593999997E+02  0.45594000000E+02  0.51100000000E-03 0. -1.
    9900012    2    1    2    0    0  0.61303527818E+00  0.27925733615E+02 -0.15378354459E+02  0.59302012543E+02  0.50000124956E+02 0.  0.
         12    1    1    2    0    0 -0.61303527818E+00 -0.27925733615E+02  0.15378354459E+02  0.31885987457E+02  0.00000000000E+00 0. -1.
         11    1    3    3    0    0  0.91815879554E+01  0.26650922342E+02 -0.27255091100E+02  0.39209861135E+02  0.51100000000E-03 0. -1.
        -11    1    3    3    0    0 -0.82317551287E+01 -0.31283630261E+01  0.12842530420E+02  0.15571738360E+02  0.51100000000E-03 0.  1.
        -12    1    3    3    0    0 -0.33679754847E+00  0.44031742999E+01 -0.96579377848E+00  0.45204130482E+01  0.00000000000E+00 0.  1.
</event>
<event>
 7    1  0.4346085E-013  0.5930196E+02  0.7816164E-02  0.1266605E+00
        -11   -1    0    0    0    0  0.00000000000E+00  0.00000000000E+00  0.45593999997E+02  0.45594000000E+02  0.51100000000E-03 0.  1.
         11   -1    0    0    0    0 -0.00000000000E+00 -0.00000000000E+00 -0.45593999997E+02  0.45594000000E+02  0.51100000000E-03 0. -1.
    9900012    2    1    2    0    0 -0.11685186959E+02 -0.18560223710E+02  0.23145058799E+02  0.59301964730E+02  0.50000037756E+02 0.  0.
         12    1    1    2    0    0  0.11685186959E+02  0.18560223710E+02 -0.23145058799E+02  0.31886035270E+02  0.00000000000E+00 0. -1.
         11    1    3    3    0    0 -0.79770699481E+01  0.92029063778E+01  0.12558748318E+01  0.12243543303E+02  0.51100000000E-03 0. -1.
        -11    1    3    3    0    0  0.70024603394E+00 -0.26534105497E+02  0.28546281887E+02  0.38979986003E+02  0.51100000000E-03 0.  1.
        -12    1    3    3    0    0 -0.44083630450E+01 -0.12290245912E+01 -0.66570979200E+01  0.80784354239E+01  0.00000000000E+00 0.  1.
</event>
<event>
 7    1  0.4346085E-013  0.5930193E+02  0.7816164E-02  0.1266605E+00
        -11   -1    0    0    0    0  0.00000000000E+00  0.00000000000E+00  0.45593999997E+02  0.45594000000E+02  0.51100000000E-03 0.  1.
         11   -1    0    0    0    0 -0.00000000000E+00 -0.00000000000E+00 -0.45593999997E+02  0.45594000000E+02  0.51100000000E-03 0. -1.
    9900012    2    1    2    0    0 -0.67109557725E+01  0.14716907874E+02  0.27479025462E+02  0.59301934939E+02  0.49999983424E+02 0.  0.
         12    1    1    2    0    0  0.67109557725E+01 -0.14716907874E+02 -0.27479025462E+02  0.31886065061E+02  0.00000000000E+00 0. -1.
         11    1    3    3    0    0  0.13926491221E+01  0.95737955110E+01 -0.95355664648E+01  0.13583963344E+02  0.51100000000E-03 0. -1.
        -11    1    3    3    0    0  0.15627310624E+01  0.52359854265E+01  0.35518199096E+02  0.35936056253E+02  0.51100000000E-03 0.  1.
         12    1    3    3    0    0 -0.96663359570E+01 -0.92873063120E-01  0.14963928307E+01  0.97819153412E+01  0.00000000000E+00 0. -1.
</event>
<event>
 7    1  0.4346085E-013  0.5930191E+02  0.7816164E-02  0.1266605E+00
        -11   -1    0    0    0    0  0.00000000000E+00  0.00000000000E+00  0.45593999997E+02  0.45594000000E+02  0.51100000000E-03 0. -1.
         11   -1    0    0    0    0 -0.00000000000E+00 -0.00000000000E+00 -0.45593999997E+02  0.45594000000E+02  0.51100000000E-03 0.  1.
    9900012    2    1    2    0    0  0.68305125195E+01  0.29538675935E+02 -0.98759014230E+01  0.59301910459E+02  0.49999938779E+02 0.  0.
         12    1    1    2    0    0 -0.68305125195E+01 -0.29538675935E+02  0.98759014230E+01  0.31886089541E+02  0.00000000000E+00 0. -1.
         11    1    3    3    0    0 -0.10649371827E+02  0.23345149278E+02  0.11923933314E+02  0.28294616114E+02  0.51100000000E-03 0. -1.
        -11    1    3    3    0    0  0.58564019063E+01  0.81501160682E+01 -0.78297350734E+01  0.12728966446E+02  0.51100000000E-03 0.  1.
         12    1    3    3    0    0  0.11623482440E+02 -0.19565894108E+01 -0.13970099664E+02  0.18278327899E+02  0.00000000000E+00 0. -1.
</event>
<event>
 7    1  0.4346085E-013  0.5930189E+02  0.7816164E-02  0.1266605E+00
        -11   -1    0    0    0    0  0.00000000000E+00  0.00000000000E+00  0.45593999997E+02  0.45594000000E+02  0.51100000000E-03 0.  1.
         11   -1    0    0    0    0 -0.00000000000E+00 -0.00000000000E+00 -0.45593999997E+02  0.45594000000E+02  0.51100000000E-03 0. -1.
    9900012    2    1    2    0    0  0.12330893301E+02 -0.26987172558E+02 -0.11677555250E+02  0.59301894736E+02  0.49999910104E+02 0.  0.
         12    1    1    2    0    0 -0.12330893301E+02  0.26987172558E+02  0.11677555250E+02  0.31886105264E+02  0.00000000000E+00 0. -1.
         11    1    3    3    0    0 -0.55662739919E+01 -0.33965016627E+02 -0.17815819521E+02  0.38755763263E+02  0.51100000000E-03 0. -1.
        -11    1    3    3    0    0  0.15829641121E+02  0.57366910817E+01  0.39599399230E+01  0.17296481927E+02  0.51100000000E-03 0.  1.
         12    1    3    3    0    0  0.20675261720E+01  0.12411529877E+01  0.21783243480E+01  0.32496495466E+01  0.00000000000E+00 0. -1.
</event>
<event>
 7    1  0.4346085E-013  0.5930186E+02  0.7816164E-02  0.1266605E+00
        -11   -1    0    0    0    0  0.00000000000E+00  0.00000000000E+00  0.45593999997E+02  0.45594000000E+02  0.51100000000E-03 0.  1.
         11   -1    0    0    0    0 -0.00000000000E+00 -0.00000000000E+00 -0.45593999997E+02  0.45594000000E+02  0.51100000000E-03 0. -1.
    9900012    2    1    2    0    0  0.51833693624E+00  0.18703156807E+01  0.31827023089E+02  0.59301856416E+02  0.49999840218E+02 0.  0.
         12    1    1    2    0    0 -0.51833693624E+00 -0.18703156807E+01 -0.31827023089E+02  0.31886143584E+02  0.00000000000E+00 0. -1.
         11    1    3    3    0    0 -0.19229953674E+01  0.91470178715E+01  0.17409083607E+02  0.19759606257E+02  0.51100000000E-03 0. -1.
        -11    1    3    3    0    0  0.61364287836E+01 -0.54233374846E+01 -0.11042771474E+02  0.13748132592E+02  0.51100000000E-03 0.  1.
        -12    1    3    3    0    0 -0.36950964800E+01 -0.18533647062E+01  0.25460710955E+02  0.25794117567E+02  0.00000000000E+00 0.  1.
</event>
<event>
 7    1  0.4346085E-013  0.5930193E+02  0.7816164E-02  0.1266605E+00
        -11   -1    0    0    0    0  0.00000000000E+00  0.00000000000E+00  0.45593999997E+02  0.45594000000E+02  0.51100000000E-03 0. -1.
         11   -1    0    0    0    0 -0.00000000000E+00 -0.00000000000E+00 -0.45593999997E+02  0.45594000000E+02  0.51100000000E-03 0.  1.
    9900012    2    1    2    0    0  0.28173430664E+02 -0.14452840652E+02 -0.37542706998E+01  0.59301931776E+02  0.49999977655E+02 0.  0.
         12    1    1    2    0    0 -0.28173430664E+02  0.14452840652E+02  0.37542706998E+01  0.31886068224E+02  0.00000000000E+00 0. -1.
         11    1    3    3    0    0  0.57711768130E+01 -0.14796093252E+02  0.10479187565E+02  0.19027459884E+02  0.51100000000E-03 0. -1.
        -11    1    3    3    0    0  0.26942131367E+02 -0.12097499116E+01 -0.19401171899E+02  0.33222694183E+02  0.51100000000E-03 0.  1.
        -12    1    3    3    0    0 -0.45398775155E+01  0.15530025115E+01  0.51677136340E+01  0.70517777091E+01  0.00000000000E+00 0.  1.
</event>
<event>
 7    1  0.4346085E-013  0.5930195E+02  0.7816164E-02  0.1266605E+00
        -11   -1    0    0    0    0  0.00000000000E+00  0.00000000000E+00  0.45593999997E+02  0.45594000000E+02  0.51100000000E-03 0.  1.
         11   -1    0    0    0    0 -0.00000000000E+00 -0.00000000000E+00 -0.45593999997E+02  0.45594000000E+02  0.51100000000E-03 0. -1.
    9900012    2    1    2    0    0  0.21731941460E+02  0.20766891122E+02  0.10638563287E+02  0.59301951714E+02  0.50000014017E+02 0.  0.
         12    1    1    2    0    0 -0.21731941460E+02 -0.20766891122E+02 -0.10638563287E+02  0.31886048286E+02  0.00000000000E+00 0. -1.
         11    1    3    3    0    0  0.20543730443E+02 -0.85280650032E+01  0.75544734845E+01  0.23491335064E+02  0.51100000000E-03 0. -1.
        -11    1    3    3    0    0  0.10288558334E+02  0.16682164614E+02 -0.13255297952E+01  0.19644492315E+02  0.51100000000E-03 0.  1.
         12    1    3    3    0    0 -0.91003473171E+01  0.12612791511E+02  0.44096195982E+01  0.16166124334E+02  0.00000000000E+00 0. -1.
</event>
<event>
 7    1  0.4346085E-013  0.5930193E+02  0.7816164E-02  0.1266605E+00
        -11   -1    0    0    0    0  0.00000000000E+00  0.00000000000E+00  0.45593999997E+02  0.45594000000E+02  0.51100000000E-03 0.  1.
         11   -1    0    0    0    0 -0.00000000000E+00 -0.00000000000E+00 -0.45593999997E+02  0.45594000000E+02  0.51100000000E-03 0. -1.
    9900012    2    1    2    0    0 -0.11620957481E+02 -0.29492553587E+02  0.34444348257E+01  0.59301929356E+02  0.49999973243E+02 0.  0.
         12    1    1    2    0    0  0.11620957481E+02  0.29492553587E+02 -0.34444348257E+01  0.31886070644E+02  0.00000000000E+00 0. -1.
         11    1    3    3    0    0  0.38148356368E+01  0.16225683808E+01  0.11389298107E+00  0.41471280374E+01  0.51100000000E-03 0. -1.
        -11    1    3    3    0    0 -0.94215510004E+01 -0.39733955697E+02  0.10825560292E+02  0.42246249710E+02  0.51100000000E-03 0.  1.
        -12    1    3    3    0    0 -0.60142421178E+01  0.86188337301E+01 -0.74950184475E+01  0.12908551609E+02  0.00000000000E+00 0.  1.
</event>
<event>
 7    1  0.4346085E-013  0.5930199E+02  0.7816164E-02  0.1266605E+00
        -11   -1    0    0    0    0  0.00000000000E+00  0.00000000000E+00  0.45593999997E+02  0.45594000000E+02  0.51100000000E-03 0.  1.
         11   -1    0    0    0    0 -0.00000000000E+00 -0.00000000000E+00 -0.45593999997E+02  0.45594000000E+02  0.51100000000E-03 0. -1.
    9900012    2    1    2    0    0 -0.14358728561E+02  0.24532531600E+02  0.14446431128E+02  0.59301991078E+02  0.50000085809E+02 0.  0.
         12    1    1    2    0    0  0.14358728561E+02 -0.24532531600E+02 -0.14446431128E+02  0.31886008922E+02  0.00000000000E+00 0. -1.
         11    1    3    3    0    0 -0.16041968025E+02 -0.57108335548E+01  0.11603579036E+02  0.20605858504E+02  0.51100000000E-03 0. -1.
        -11    1    3    3    0    0 -0.45569312219E+01  0.30688951143E+02  0.61358196199E+01  0.31626343878E+02  0.51100000000E-03 0.  1.
         12    1    3    3    0    0  0.62401706859E+01 -0.44558598832E+00 -0.32929675277E+01  0.70697886956E+01  0.00000000000E+00 0. -1.
</event>
<event>
 7    1  0.4346085E-013  0.5930198E+02  0.7816164E-02  0.1266605E+00
        -11   -1    0    0    0    0  0.00000000000E+00  0.00000000000E+00  0.45593999997E+02  0.45594000000E+02  0.51100000000E-03 0. -1.
         11   -1    0    0    0    0 -0.00000000000E+00 -0.00000000000E+00 -0.45593999997E+02  0.45594000000E+02  0.51100000000E-03 0.  1.
    9900012    2    1    2    0    0  0.25905704016E+02 -0.18578842571E+02  0.66307504211E+00  0.59301975470E+02  0.50000057343E+02 0.  0.
         12    1    1    2    0    0 -0.25905704016E+02  0.18578842571E+02 -0.66307504211E+00  0.31886024530E+02  0.00000000000E+00 0. -1.
         11    1    3    3    0    0  0.80120352802E+01 -0.63308787640E+01 -0.21389108432E+02  0.23701617984E+02  0.51100000000E-03 0.  1.
        -11    1    3    3    0    0  0.10234359637E+02  0.28054868568E+01  0.11675253862E+02  0.15777339024E+02  0.51100000000E-03 0. -1.
         12    1    3    3    0    0  0.76593090986E+01 -0.15053450664E+02  0.10376929612E+02  0.19823018462E+02  0.00000000000E+00 0. -1.
</event>
<event>
 7    1  0.4346085E-013  0.5930200E+02  0.7816164E-02  0.1266605E+00
        -11   -1    0    0    0    0  0.00000000000E+00  0.00000000000E+00  0.45593999997E+02  0.45594000000E+02  0.51100000000E-03 0. -1.
         11   -1    0    0    0    0 -0.00000000000E+00 -0.00000000000E+00 -0.45593999997E+02  0.45594000000E+02  0.51100000000E-03 0.  1.
    9900012    2    1    2    0    0  0.54344941784E+01  0.26058977748E+02 -0.17553150987E+02  0.59301997462E+02  0.50000097452E+02 0.  0.
         12    1    1    2    0    0 -0.54344941784E+01 -0.26058977748E+02  0.17553150987E+02  0.31886002538E+02  0.00000000000E+00 0. -1.
         11    1    3    3    0    0  0.17783667694E+02  0.11363066826E+02  0.62368916575E+01  0.22006293240E+02  0.51100000000E-03 0. -1.
        -11    1    3    3    0    0  0.16036405838E+01  0.51919006511E+01 -0.18978749383E+02  0.19741337946E+02  0.51100000000E-03 0.  1.
         12    1    3    3    0    0 -0.13952814099E+02  0.95040102713E+01 -0.48112932619E+01  0.17554366277E+02  0.00000000000E+00 0. -1.
</event>
<event>
 7    1  0.4346085E-013  0.5930194E+02  0.7816164E-02  0.1266605E+00
        -11   -1    0    0    0    0  0.00000000000E+00  0.00000000000E+00  0.45593999997E+02  0.45594000000E+02  0.51100000000E-03 0.  1.
         11   -1    0    0    0    0 -0.00000000000E+00 -0.00000000000E+00 -0.45593999997E+02  0.45594000000E+02  0.51100000000E-03 0. -1.
    9900012    2    1    2    0    0  0.63260165431E+01 -0.18125553059E+02  0.25459119664E+02  0.59301938264E+02  0.49999989488E+02 0.  0.
         12    1    1    2    0    0 -0.63260165431E+01  0.18125553059E+02 -0.25459119664E+02  0.31886061736E+02  0.00000000000E+00 0. -1.
         11    1    3    3    0    0 -0.18711883592E+02 -0.85096447862E+01  0.86995870899E+01  0.22321098937E+02  0.51100000000E-03 0. -1.
        -11    1    3    3    0    0  0.35051976888E+01 -0.10017931242E+02  0.95276394380E+01  0.14262582891E+02  0.51100000000E-03 0.  1.
         12    1    3    3    0    0  0.21532702447E+02  0.40202296979E+00  0.72318931362E+01  0.22718256435E+02  0.00000000000E+00 0. -1.
</event>
<event>
 7    1  0.4346085E-013  0.5930180E+02  0.7816164E-02  0.1266605E+00
        -11   -1    0    0    0    0  0.00000000000E+00  0.00000000000E+00  0.45593999997E+02  0.45594000000E+02  0.51100000000E-03 0.  1.
         11   -1    0    0    0    0 -0.00000000000E+00 -0.00000000000E+00 -0.45593999997E+02  0.45594000000E+02  0.51100000000E-03 0. -1.
    9900012    2    1    2    0    0 -0.17723635249E+01 -0.20708560089E+02  0.24181476007E+02  0.59301803687E+02  0.49999744052E+02 0.  0.
         12    1    1    2    0    0  0.17723635249E+01  0.20708560089E+02 -0.24181476007E+02  0.31886196313E+02  0.00000000000E+00 0. -1.
         11    1    3    3    0    0 -0.55510119157E+01 -0.92903114578E+01 -0.83719498699E+01  0.13682586201E+02  0.51100000000E-03 0. -1.
        -11    1    3    3    0    0  0.14601265102E+01  0.21571354805E+01  0.31714976859E+02  0.31821768655E+02  0.51100000000E-03 0.  1.
        -12    1    3    3    0    0  0.23185218806E+01 -0.13575384112E+02  0.83844901750E+00  0.13797448831E+02  0.00000000000E+00 0.  1.
</event>
<event>
 7    1  0.4346085E-013  0.5930195E+02  0.7816164E-02  0.1266605E+00
        -11   -1    0    0    0    0  0.00000000000E+00  0.00000000000E+00  0.45593999997E+02  0.45594000000E+02  0.51100000000E-03 0. -1.
         11   -1    0    0    0    0 -0.00000000000E+00 -0.00000000000E+00 -0.45593999997E+02  0.45594000000E+02  0.51100000000E-03 0.  1.
    9900012    2    1    2    0    0 -0.31642070114E+02  0.33441735270E+01 -0.20775552786E+01  0.59301947663E+02  0.50000006630E+02 0.  0.
         12    1    1    2    0    0  0.31642070114E+02 -0.33441735270E+01  0.20775552786E+01  0.31886052337E+02  0.00000000000E+00 0. -1.
         11    1    3    3    0    0  0.22970543830E+01 -0.24570490749E+00  0.65829268528E+00  0.24021197432E+01  0.51100000000E-03 0. -1.
        -11    1    3    3    0    0 -0.25021636760E+02 -0.90160369765E+01 -0.20340441042E+02  0.33482902666E+02  0.51100000000E-03 0.  1.
        -12    1    3    3    0    0 -0.89174877372E+01  0.12605915411E+02  0.17604593078E+02  0.23416925254E+02  0.00000000000E+00 0.  1.
</event>
<event>
 7    1  0.4346085E-013  0.5930192E+02  0.7816164E-02  0.1266605E+00
        -11   -1    0    0    0    0  0.00000000000E+00  0.00000000000E+00  0.45593999997E+02  0.45594000000E+02  0.51100000000E-03 0.  1.
         11   -1    0    0    0    0 -0.00000000000E+00 -0.00000000000E+00 -0.45593999997E+02  0.45594000000E+02  0.51100000000E-03 0. -1.
    9900012    2    1    2    0    0  0.88026598127E+01 -0.19173040591E+02  0.23908784203E+02  0.59301917341E+02  0.49999951330E+02 0.  0.
         12    1    1    2    0    0 -0.88026598127E+01  0.19173040591E+02 -0.23908784203E+02  0.31886082659E+02  0.00000000000E+00 0. -1.
         11    1    3    3    0    0 -0.21466728579E+01  0.54499548589E+01  0.68398780016E+01  0.90052286845E+01  0.51100000000E-03 0. -1.
        -11    1    3    3    0    0  0.22765886713E+02 -0.15091210587E+02 -0.18535975928E+00  0.27314183007E+02  0.51100000000E-03 0.  1.
        -12    1    3    3    0    0 -0.11816554042E+02 -0.95317848626E+01  0.17254265961E+02  0.22982505650E+02  0.00000000000E+00 0.  1.
</event>
<event>
 7    1  0.4346085E-013  0.5930195E+02  0.7816164E-02  0.1266605E+00
        -11   -1    0    0    0    0  0.00000000000E+00  0.00000000000E+00  0.45593999997E+02  0.45594000000E+02  0.51100000000E-03 0.  1.
         11   -1    0    0    0    0 -0.00000000000E+00 -0.00000000000E+00 -0.45593999997E+02  0.45594000000E+02  0.51100000000E-03 0. -1.
    9900012    2    1    2    0    0  0.29787614157E+02 -0.81209705356E+01 -0.79666748370E+01  0.59301952462E+02  0.50000015383E+02 0.  0.
         12    1    1    2    0    0 -0.29787614157E+02  0.81209705356E+01  0.79666748370E+01  0.31886047538E+02  0.00000000000E+00 0. -1.
         11    1    3    3    0    0  0.44032115330E+01 -0.37164089779E+01  0.15694614922E+01  0.59718654650E+01  0.51100000000E-03 0. -1.
        -11    1    3    3    0    0  0.19865777409E+02  0.15969557179E+02 -0.17337409400E+02  0.30826313979E+02  0.51100000000E-03 0.  1.
        -12    1    3    3    0    0  0.55186252149E+01 -0.20374118736E+02  0.78012730705E+01  0.22503773019E+02  0.00000000000E+00 0.  1.
</event>
<event>
 7    1  0.4346085E-013  0.5930197E+02  0.7816164E-02  0.1266605E+00
        -11   -1    0    0    0    0  0.00000000000E+00  0.00000000000E+00  0.45593999997E+02  0.45594000000E+02  0.51100000000E-03 0.  1.
         11   -1    0    0    0    0 -0.00000000000E+00 -0.00000000000E+00 -0.45593999997E+02  0.45594000000E+02  0.51100000000E-03 0. -1.
    9900012    2    1    2    0    0  0.20227200403E+01  0.31229583834E+02  0.61107219101E+01  0.59301965046E+02  0.50000038333E+02 0.  0.
         12    1    1    2    0    0 -0.20227200403E+01 -0.31229583834E+02 -0.61107219101E+01  0.31886034954E+02  0.00000000000E+00 0. -1.
         11    1    3    3    0    0  0.88874959326E+01  0.13163465795E+02 -0.15446851178E+02  0.22155577791E+02  0.51100000000E-03 0. -1.
        -11    1    3    3    0    0  0.57853937798E+01  0.45219746925E+01  0.16307025049E+02  0.17884018075E+02  0.51100000000E-03 0.  1.
         12    1    3    3    0    0 -0.12650169672E+02  0.13544143346E+02  0.52505480393E+01  0.19262369180E+02  0.00000000000E+00 0. -1.
</event>
<event>
 7    1  0.4346085E-013  0.5930194E+02  0.7816164E-02  0.1266605E+00
        -11   -1    0    0    0    0  0.00000000000E+00  0.00000000000E+00  0.45593999997E+02  0.45594000000E+02  0.51100000000E-03 0.  1.
         11   -1    0    0    0    0 -0.00000000000E+00 -0.00000000000E+00 -0.45593999997E+02  0.45594000000E+02  0.51100000000E-03 0. -1.
    9900012    2    1    2    0    0  0.59940703472E+01  0.20139403979E+02  0.23983246962E+02  0.59301943380E+02  0.49999998818E+02 0.  0.
         12    1    1    2    0    0 -0.59940703472E+01 -0.20139403979E+02 -0.23983246962E+02  0.31886056620E+02  0.00000000000E+00 0. -1.
         11    1    3    3    0    0  0.29664293478E+01 -0.64559228886E+01  0.26848495768E+02  0.27772655053E+02  0.51100000000E-03 0. -1.
        -11    1    3    3    0    0  0.97179200302E+01  0.17616557632E+02 -0.29330636417E+01  0.20331845344E+02  0.51100000000E-03 0.  1.
         12    1    3    3    0    0 -0.66902790308E+01  0.89787692356E+01  0.67814835393E-01  0.11197442983E+02  0.00000000000E+00 0. -1.
</event>
<event>
 7    1  0.4346085E-013  0.5930193E+02  0.7816164E-02  0.1266605E+00
        -11   -1    0    0    0    0  0.00000000000E+00  0.00000000000E+00  0.45593999997E+02  0.45594000000E+02  0.51100000000E-03 0.  1.
         11   -1    0    0    0    0 -0.00000000000E+00 -0.00000000000E+00 -0.45593999997E+02  0.45594000000E+02  0.51100000000E-03 0. -1.
    9900012    2    1    2    0    0 -0.20899705053E+02  0.12693176298E+02  0.20464772416E+02  0.59301932418E+02  0.49999978826E+02 0.  0.
         12    1    1    2    0    0  0.20899705053E+02 -0.12693176298E+02 -0.20464772416E+02  0.31886067582E+02  0.00000000000E+00 0. -1.
         11    1    3    3    0    0 -0.18592913606E+02  0.11321760009E+02  0.22815296742E+02  0.31534369373E+02  0.51100000000E-03 0.  1.
        -11    1    3    3    0    0  0.11529435213E+02  0.45110162128E+01 -0.49681478898E+01  0.13340151323E+02  0.51100000000E-03 0. -1.
        -12    1    3    3    0    0 -0.13836226660E+02 -0.31395999248E+01  0.26176235642E+01  0.14427411722E+02  0.00000000000E+00 0.  1.
</event>
<event>
 7    1  0.4346085E-013  0.5930195E+02  0.7816164E-02  0.1266605E+00
        -11   -1    0    0    0    0  0.00000000000E+00  0.00000000000E+00  0.45593999997E+02  0.45594000000E+02  0.51100000000E-03 0. -1.
         11   -1    0    0    0    0 -0.00000000000E+00 -0.00000000000E+00 -0.45593999997E+02  0.45594000000E+02  0.51100000000E-03 0.  1.
    9900012    2    1    2    0    0 -0.20570035389E+01 -0.23661655547E+02 -0.21274754562E+02  0.59301946803E+02  0.50000005061E+02 0.  0.
         12    1    1    2    0    0  0.20570035389E+01  0.23661655547E+02  0.21274754562E+02  0.31886053197E+02  0.00000000000E+00 0. -1.
         11    1    3    3    0    0 -0.18778103156E+02 -0.73113961108E+01 -0.14854402603E+02  0.25034515138E+02  0.51100000000E-03 0. -1.
        -11    1    3    3    0    0  0.14550671086E+02 -0.14922492367E+02 -0.14755505649E+02  0.25536792178E+02  0.51100000000E-03 0.  1.
        -12    1    3    3    0    0  0.21704285308E+01 -0.14277670694E+01  0.83351536907E+01  0.87306394874E+01  0.00000000000E+00 0.  1.
</event>
<event>
 7    1  0.4346085E-013  0.5930195E+02  0.7816164E-02  0.1266605E+00
        -11   -1    0    0    0    0  0.00000000000E+00  0.00000000000E+00  0.45593999997E+02  0.45594000000E+02  0.51100000000E-03 0.  1.
         11   -1    0    0    0    0 -0.00000000000E+00 -0.00000000000E+00 -0.45593999997E+02  0.45594000000E+02  0.51100000000E-03 0. -1.
    9900012    2    1    2    0    0 -0.65327015796E+01  0.75297595871E+00  0.31200598133E+02  0.59301945264E+02  0.50000002255E+02 0.  0.
         12    1    1    2    0    0  0.65327015796E+01 -0.75297595871E+00 -0.31200598133E+02  0.31886054736E+02  0.00000000000E+00 0. -1.
         11    1    3    3    0    0  0.18797100213E+02  0.20746590771E+01  0.13664525773E+02  0.23331404835E+02  0.51100000000E-03 0. -1.
        -11    1    3    3    0    0 -0.22038140349E+02 -0.44027348604E+01  0.20626531664E+02  0.30504385145E+02  0.51100000000E-03 0.  1.
        -12    1    3    3    0    0 -0.32916614430E+01  0.30810517420E+01 -0.30904593036E+01  0.54661552850E+01  0.00000000000E+00 0.  1.
</event>
<event>
 7    1  0.4346085E-013  0.5930195E+02  0.7816164E-02  0.1266605E+00
        -11   -1    0    0    0    0  0.00000000000E+00  0.00000000000E+00  0.45593999997E+02  0.45594000000E+02  0.51100000000E-03 0. -1.
         11   -1    0    0    0    0 -0.00000000000E+00 -0.00000000000E+00 -0.45593999997E+02  0.45594000000E+02  0.51100000000E-03 0.  1.
    9900012    2    1    2    0    0 -0.21287957021E+02 -0.16894780849E+02  0.16676615275E+02  0.59301949271E+02  0.50000009563E+02 0.  0.
         12    1    1    2    0    0  0.21287957021E+02  0.16894780849E+02 -0.16676615275E+02  0.31886050729E+02  0.00000000000E+00 0. -1.
         11    1    3    3    0    0 -0.80545523718E+00 -0.21218550640E+02  0.20429222284E+02  0.29465721997E+02  0.51100000000E-03 0. -1.
        -11    1    3    3    0    0 -0.90357494394E+01  0.53401199371E+01  0.81521362363E+01  0.13289807160E+02  0.51100000000E-03 0.  1.
         12    1    3    3    0    0 -0.11446752344E+02 -0.10163501454E+01 -0.11904743245E+02  0.16546420114E+02  0.00000000000E+00 0. -1.
</event>
<event>
 7    1  0.4346085E-013  0.5930195E+02  0.7816164E-02  0.1266605E+00
        -11   -1    0    0    0    0  0.00000000000E+00  0.00000000000E+00  0.45593999997E+02  0.45594000000E+02  0.51100000000E-03 0.  1.
         11   -1    0    0    0    0 -0.00000000000E+00 -0.00000000000E+00 -0.45593999997E+02  0.45594000000E+02  0.51100000000E-03 0. -1.
    9900012    2    1    2    0    0 -0.19516318448E+01  0.16045218193E+01  0.31785795054E+02  0.59301950945E+02  0.50000012616E+02 0.  0.
         12    1    1    2    0    0  0.19516318448E+01 -0.16045218193E+01 -0.31785795054E+02  0.31886049055E+02  0.00000000000E+00 0. -1.
         11    1    3    3    0    0  0.14510584922E+02  0.55089975707E+01 -0.64887811392E+01  0.16822913242E+02  0.51100000000E-03 0. -1.
        -11    1    3    3    0    0 -0.21715662033E+01  0.93441224753E+00  0.16916464917E+01  0.29069733638E+01  0.51100000000E-03 0.  1.
         12    1    3    3    0    0 -0.14290650563E+02 -0.48388879989E+01  0.36582929701E+02  0.39572064340E+02  0.00000000000E+00 0. -1.
</event>
<event>
 7    1  0.4346085E-013  0.5930198E+02  0.7816164E-02  0.1266605E+00
        -11   -1    0    0    0    0  0.00000000000E+00  0.00000000000E+00  0.45593999997E+02  0.45594000000E+02  0.51100000000E-03 0. -1.
         11   -1    0    0    0    0 -0.00000000000E+00 -0.00000000000E+00 -0.45593999997E+02  0.45594000000E+02  0.51100000000E-03 0.  1.
    9900012    2    1    2    0    0 -0.24631313885E+02  0.72842044164E+01 -0.18893311492E+02  0.59301976780E+02  0.50000059732E+02 0.  0.
         12    1    1    2    0    0  0.24631313885E+02 -0.72842044164E+01  0.18893311492E+02  0.31886023220E+02  0.00000000000E+00 0. -1.
         11    1    3    3    0    0 -0.10814631574E+02 -0.97298951938E+01  0.55396484182E+01  0.15566464641E+02  0.51100000000E-03 0. -1.
        -11    1    3    3    0    0  0.17223477189E+01  0.15051750137E+01 -0.21459239335E+02  0.21580801342E+02  0.51100000000E-03 0.  1.
         12    1    3    3    0    0 -0.15539030030E+02  0.15508924596E+02 -0.29737205750E+01  0.22154710796E+02  0.00000000000E+00 0. -1.
</event>
<event>
 7    1  0.4346085E-013  0.5930197E+02  0.7816164E-02  0.1266605E+00
        -11   -1    0    0    0    0  0.00000000000E+00  0.00000000000E+00  0.45593999997E+02  0.45594000000E+02  0.51100000000E-03 0.  1.
         11   -1    0    0    0    0 -0.00000000000E+00 -0.00000000000E+00 -0.45593999997E+02  0.45594000000E+02  0.51100000000E-03 0. -1.
    9900012    2    1    2    0    0 -0.18835990569E+02 -0.18876640144E+02  0.17481322267E+02  0.59301973091E+02  0.50000053004E+02 0.  0.
         12    1    1    2    0    0  0.18835990569E+02  0.18876640144E+02 -0.17481322267E+02  0.31886026909E+02  0.00000000000E+00 0. -1.
         11    1    3    3    0    0  0.23080045974E+00  0.58601547891E+00 -0.50942329745E-01  0.63188478049E+00  0.51100000000E-03 0.  1.
        -11    1    3    3    0    0 -0.22763107405E+02 -0.51825721083E+01 -0.11560747569E+02  0.26051276303E+02  0.51100000000E-03 0. -1.
        -12    1    3    3    0    0  0.36963163764E+01 -0.14280083515E+02  0.29093012165E+02  0.32618812008E+02  0.00000000000E+00 0.  1.
</event>
<event>
 7    1  0.4346085E-013  0.5930196E+02  0.7816164E-02  0.1266605E+00
        -11   -1    0    0    0    0  0.00000000000E+00  0.00000000000E+00  0.45593999997E+02  0.45594000000E+02  0.51100000000E-03 0.  1.
         11   -1    0    0    0    0 -0.00000000000E+00 -0.00000000000E+00 -0.45593999997E+02  0.45594000000E+02  0.51100000000E-03 0. -1.
    9900012    2    1    2    0    0 -0.16430900546E+02 -0.25290729315E+02  0.10350090437E+02  0.59301955183E+02  0.50000020345E+02 0.  0.
         12    1    1    2    0    0  0.16430900546E+02  0.25290729315E+02 -0.10350090437E+02  0.31886044817E+02  0.00000000000E+00 0. -1.
         11    1    3    3    0    0 -0.85123190587E+01  0.13189094003E+02  0.58953291512E+01  0.16768025597E+02  0.51100000000E-03 0. -1.
        -11    1    3    3    0    0  0.19128926412E+01 -0.26349585331E+02  0.50991433157E+01  0.26906524640E+02  0.51100000000E-03 0.  1.
         12    1    3    3    0    0 -0.98314741280E+01 -0.12130237986E+02 -0.64438203044E+00  0.15627404946E+02  0.00000000000E+00 0. -1.
</event>
<event>
 7    1  0.4346085E-013  0.5930196E+02  0.7816164E-02  0.1266605E+00
        -11   -1    0    0    0    0  0.00000000000E+00  0.00000000000E+00  0.45593999997E+02  0.45594000000E+02  0.51100000000E-03 0.  1.
         11   -1    0    0    0    0 -0.00000000000E+00 -0.00000000000E+00 -0.45593999997E+02  0.45594000000E+02  0.51100000000E-03 0. -1.
    9900012    2    1    2    0    0  0.65360437222E+01 -0.12476845767E+02  0.28606430095E+02  0.59301962450E+02  0.50000033598E+02 0.  0.
         12    1    1    2    0    0 -0.65360437222E+01  0.12476845767E+02 -0.28606430095E+02  0.31886037550E+02  0.00000000000E+00 0. -1.
         11    1    3    3    0    0 -0.53614854969E+01 -0.23817932704E+02  0.17895454495E+01  0.24479418257E+02  0.51100000000E-03 0. -1.
        -11    1    3    3    0    0  0.22656381030E+01  0.10755823860E+02  0.77386027018E+01  0.13442724239E+02  0.51100000000E-03 0.  1.
         12    1    3    3    0    0  0.96318911160E+01  0.58526307657E+00  0.19078281944E+02  0.21379819954E+02  0.00000000000E+00 0. -1.
</event>
<event>
 7    1  0.4346085E-013  0.5930194E+02  0.7816164E-02  0.1266605E+00
        -11   -1    0    0    0    0  0.00000000000E+00  0.00000000000E+00  0.45593999997E+02  0.45594000000E+02  0.51100000000E-03 0.  1.
         11   -1    0    0    0    0 -0.00000000000E+00 -0.00000000000E+00 -0.45593999997E+02  0.45594000000E+02  0.51100000000E-03 0. -1.
    9900012    2    1    2    0    0  0.20238525831E+02 -0.20127542097E+02  0.14212852408E+02  0.59301936394E+02  0.49999986079E+02 0.  0.
         12    1    1    2    0    0 -0.20238525831E+02  0.20127542097E+02 -0.14212852408E+02  0.31886063606E+02  0.00000000000E+00 0. -1.
         11    1    3    3    0    0 -0.23914318563E+01  0.92415391169E+00  0.69702826029E+00  0.26568506605E+01  0.51100000000E-03 0. -1.
        -11    1    3    3    0    0  0.35805764460E+02 -0.12616660415E+02  0.36251898407E+01  0.38136267388E+02  0.51100000000E-03 0.  1.
        -12    1    3    3    0    0 -0.13175806773E+02 -0.84350355942E+01  0.98906343067E+01  0.18508818346E+02  0.00000000000E+00 0.  1.
</event>
<event>
 7    1  0.4346085E-013  0.5930195E+02  0.7816164E-02  0.1266605E+00
        -11   -1    0    0    0    0  0.00000000000E+00  0.00000000000E+00  0.45593999997E+02  0.45594000000E+02  0.51100000000E-03 0.  1.
         11   -1    0    0    0    0 -0.00000000000E+00 -0.00000000000E+00 -0.45593999997E+02  0.45594000000E+02  0.51100000000E-03 0. -1.
    9900012    2    1    2    0    0 -0.11141227436E+02  0.29872931124E+02 -0.44881643103E+00  0.59301946639E+02  0.50000004763E+02 0.  0.
         12    1    1    2    0    0  0.11141227436E+02 -0.29872931124E+02  0.44881643103E+00  0.31886053361E+02  0.00000000000E+00 0. -1.
         11    1    3    3    0    0 -0.14064239963E+00  0.14963662009E+02  0.14643960010E+02  0.20937443159E+02  0.51100000000E-03 0.  1.
        -11    1    3    3    0    0 -0.15084706490E+01  0.21095629709E+02 -0.16664439893E+02  0.26925910082E+02  0.51100000000E-03 0. -1.
        -12    1    3    3    0    0 -0.94921143874E+01 -0.61863605936E+01  0.15716634521E+01  0.11438593399E+02  0.00000000000E+00 0.  1.
</event>
<event>
 7    1  0.4346085E-013  0.5930192E+02  0.7816164E-02  0.1266605E+00
        -11   -1    0    0    0    0  0.00000000000E+00  0.00000000000E+00  0.45593999997E+02  0.45594000000E+02  0.51100000000E-03 0.  1.
         11   -1    0    0    0    0 -0.00000000000E+00 -0.00000000000E+00 -0.45593999997E+02  0.45594000000E+02  0.51100000000E-03 0. -1.
    9900012    2    1    2    0    0 -0.31248178515E+02 -0.41948531815E+01 -0.47620060032E+01  0.59301919104E+02  0.49999954545E+02 0.  0.
         12    1    1    2    0    0  0.31248178515E+02  0.41948531815E+01  0.47620060032E+01  0.31886080896E+02  0.00000000000E+00 0. -1.
         11    1    3    3    0    0 -0.22924253629E+02  0.83584447996E+01 -0.19753984208E+02  0.31394344972E+02  0.51100000000E-03 0. -1.
        -11    1    3    3    0    0  0.31126477639E+01 -0.10015761847E+02  0.25001493089E+01  0.10782152304E+02  0.51100000000E-03 0.  1.
        -12    1    3    3    0    0 -0.11436572650E+02 -0.25375361342E+01  0.12491828895E+02  0.17125421828E+02  0.00000000000E+00 0.  1.
</event>
<event>
 7    1  0.4346085E-013  0.5930193E+02  0.7816164E-02  0.1266605E+00
        -11   -1    0    0    0    0  0.00000000000E+00  0.00000000000E+00  0.45593999997E+02  0.45594000000E+02  0.51100000000E-03 0. -1.
         11   -1    0    0    0    0 -0.00000000000E+00 -0.00000000000E+00 -0.45593999997E+02  0.45594000000E+02  0.51100000000E-03 0.  1.
    9900012    2    1    2    0    0  0.43935015378E+01 -0.15235369323E+02 -0.27664089624E+02  0.59301934252E+02  0.49999982171E+02 0.  0.
         12    1    1    2    0    0 -0.43935015378E+01  0.15235369323E+02  0.27664089624E+02  0.31886065748E+02  0.00000000000E+00 0. -1.
         11    1    3    3    0    0  0.14274381777E+02 -0.15705595622E+02 -0.16331788478E+01  0.21285933908E+02  0.51100000000E-03 0. -1.
        -11    1    3    3    0    0 -0.11317697951E+02  0.79735900879E+01 -0.26972944742E+02  0.30318446103E+02  0.51100000000E-03 0.  1.
        -12    1    3    3    0    0  0.14368177115E+01 -0.75033637894E+01  0.94203396611E+00  0.76975542405E+01  0.00000000000E+00 0.  1.
</event>
<event>
 7    1  0.4346085E-013  0.5930194E+02  0.7816164E-02  0.1266605E+00
        -11   -1    0    0    0    0  0.00000000000E+00  0.00000000000E+00  0.45593999997E+02  0.45594000000E+02  0.51100000000E-03 0.  1.
         11   -1    0    0    0    0 -0.00000000000E+00 -0.00000000000E+00 -0.45593999997E+02  0.45594000000E+02  0.51100000000E-03 0. -1.
    9900012    2    1    2    0    0 -0.48421097500E+01 -0.22896362763E+02  0.21657136859E+02  0.59301936719E+02  0.49999986671E+02 0.  0.
         12    1    1    2    0    0  0.48421097500E+01  0.22896362763E+02 -0.21657136859E+02  0.31886063281E+02  0.00000000000E+00 0. -1.
         11    1    3    3    0    0 -0.17877619883E+01  0.35778568283E+01 -0.74331476774E+01  0.84409026215E+01  0.51100000000E-03 0. -1.
        -11    1    3    3    0    0 -0.55356919923E+01 -0.24926933232E+02  0.35550246650E+02  0.43770034536E+02  0.51100000000E-03 0.  1.
        -12    1    3    3    0    0  0.24813442307E+01 -0.15472863596E+01 -0.64599621137E+01  0.70909995614E+01  0.00000000000E+00 0.  1.
</event>
<event>
 7    1  0.4346085E-013  0.5930190E+02  0.7816164E-02  0.1266605E+00
        -11   -1    0    0    0    0  0.00000000000E+00  0.00000000000E+00  0.45593999997E+02  0.45594000000E+02  0.51100000000E-03 0. -1.
         11   -1    0    0    0    0 -0.00000000000E+00 -0.00000000000E+00 -0.45593999997E+02  0.45594000000E+02  0.51100000000E-03 0.  1.
    9900012    2    1    2    0    0 -0.56622855161E+01 -0.29304412490E+02 -0.11221097051E+02  0.59301904477E+02  0.49999927869E+02 0.  0.
         12    1    1    2    0    0  0.56622855161E+01  0.29304412490E+02  0.11221097051E+02  0.31886095523E+02  0.00000000000E+00 0. -1.
         11    1    3    3    0    0  0.49589679007E+01 -0.32055358216E+01 -0.47830019007E+01  0.75989426888E+01  0.51100000000E-03 0. -1.
        -11    1    3    3    0    0 -0.22120795823E+02 -0.31171175392E+02 -0.16658995265E+01  0.38258946727E+02  0.51100000000E-03 0.  1.
        -12    1    3    3    0    0  0.11499542406E+02  0.50722987231E+01 -0.47721956242E+01  0.13444015061E+02  0.00000000000E+00 0.  1.
</event>
<event>
 7    1  0.4346085E-013  0.5930200E+02  0.7816164E-02  0.1266605E+00
        -11   -1    0    0    0    0  0.00000000000E+00  0.00000000000E+00  0.45593999997E+02  0.45594000000E+02  0.51100000000E-03 0.  1.
         11   -1    0    0    0    0 -0.00000000000E+00 -0.00000000000E+00 -0.45593999997E+02  0.45594000000E+02  0.51100000000E-03 0. -1.
    9900012    2    1    2    0    0 -0.73597803337E+01 -0.30166212665E+02 -0.72491371723E+01  0.59302003970E+02  0.50000109320E+02 0.  0.
         12    1    1    2    0    0  0.73597803337E+01  0.30166212665E+02  0.72491371723E+01  0.31885996030E+02  0.00000000000E+00 0. -1.
         11    1    3    3    0    0  0.34658471818E+01 -0.15799303444E+02 -0.94346467023E+01  0.18725454458E+02  0.51100000000E-03 0. -1.
        -11    1    3    3    0    0 -0.22375773393E+02 -0.40962659014E+00  0.55024916389E+00  0.22386286054E+02  0.51100000000E-03 0.  1.
        -12    1    3    3    0    0  0.11550145877E+02 -0.13957282631E+02  0.16352603661E+01  0.18190263459E+02  0.00000000000E+00 0.  1.
</event>
<event>
 7    1  0.4449378E-013  0.5930203E+02  0.7816164E-02  0.1266604E+00
        -11   -1    0    0    0    0  0.00000000000E+00  0.00000000000E+00  0.45593999997E+02  0.45594000000E+02  0.51100000000E-03 0. -1.
         11   -1    0    0    0    0 -0.00000000000E+00 -0.00000000000E+00 -0.45593999997E+02  0.45594000000E+02  0.51100000000E-03 0.  1.
    9900012    2    1    2    0    0  0.16201795866E+02  0.14349623230E+02 -0.23415919612E+02  0.59302028674E+02  0.50000154374E+02 0.  0.
         12    1    1    2    0    0 -0.16201795866E+02 -0.14349623230E+02  0.23415919612E+02  0.31885971326E+02  0.00000000000E+00 0. -1.
         11    1    3    3    0    0  0.30846572639E+01 -0.97849835780E+01  0.62567509354E+01  0.12016985753E+02  0.51100000000E-03 0. -1.
        -11    1    3    3    0    0 -0.23219505720E+00  0.10617600302E+02 -0.25794879170E+02  0.27895575677E+02  0.51100000000E-03 0.  1.
         12    1    3    3    0    0  0.13349333659E+02  0.13517006506E+02 -0.38777913772E+01  0.19389467244E+02  0.00000000000E+00 0. -1.
</event>
<event>
 7    1  0.4346085E-013  0.5930188E+02  0.7816164E-02  0.1266605E+00
        -11   -1    0    0    0    0  0.00000000000E+00  0.00000000000E+00  0.45593999997E+02  0.45594000000E+02  0.51100000000E-03 0.  1.
         11   -1    0    0    0    0 -0.00000000000E+00 -0.00000000000E+00 -0.45593999997E+02  0.45594000000E+02  0.51100000000E-03 0. -1.
    9900012    2    1    2    0    0  0.21240712736E+01 -0.29676306980E+02 -0.11468635057E+02  0.59301882882E+02  0.49999888486E+02 0.  0.
         12    1    1    2    0    0 -0.21240712736E+01  0.29676306980E+02  0.11468635057E+02  0.31886117118E+02  0.00000000000E+00 0. -1.
         11    1    3    3    0    0 -0.12184276755E+02 -0.29155354269E+02 -0.84640464663E+01  0.32712862385E+02  0.51100000000E-03 0. -1.
        -11    1    3    3    0    0  0.79836509194E+01  0.10812000581E+02 -0.15798766544E+01  0.13532702948E+02  0.51100000000E-03 0.  1.
        -12    1    3    3    0    0  0.63246971090E+01 -0.11332953293E+02 -0.14247119364E+01  0.13056317550E+02  0.00000000000E+00 0.  1.
</event>
<event>
 7    1  0.4346085E-013  0.5930194E+02  0.7816164E-02  0.1266605E+00
        -11   -1    0    0    0    0  0.00000000000E+00  0.00000000000E+00  0.45593999997E+02  0.45594000000E+02  0.51100000000E-03 0.  1.
         11   -1    0    0    0    0 -0.00000000000E+00 -0.00000000000E+00 -0.45593999997E+02  0.45594000000E+02  0.51100000000E-03 0. -1.
    9900012    2    1    2    0    0 -0.31360146813E+02  0.31110694968E+01 -0.48562834269E+01  0.59301936426E+02  0.49999986136E+02 0.  0.
         12    1    1    2    0    0  0.31360146813E+02 -0.31110694968E+01  0.48562834269E+01  0.31886063574E+02  0.00000000000E+00 0. -1.
         11    1    3    3    0    0 -0.39292700686E-01  0.87335328497E+01 -0.41048117617E+01  0.96501616469E+01  0.51100000000E-03 0. -1.
        -11    1    3    3    0    0 -0.37263243322E+02 -0.11316567844E+02  0.54817373270E+01  0.39327642379E+02  0.51100000000E-03 0.  1.
        -12    1    3    3    0    0  0.59423892105E+01  0.56941044908E+01 -0.62332089923E+01  0.10324132401E+02  0.00000000000E+00 0.  1.
</event>
<event>
 7    1  0.4346085E-013  0.5930194E+02  0.7816164E-02  0.1266605E+00
        -11   -1    0    0    0    0  0.00000000000E+00  0.00000000000E+00  0.45593999997E+02  0.45594000000E+02  0.51100000000E-03 0. -1.
         11   -1    0    0    0    0 -0.00000000000E+00 -0.00000000000E+00 -0.45593999997E+02  0.45594000000E+02  0.51100000000E-03 0.  1.
    9900012    2    1    2    0    0 -0.24384120167E+02 -0.59447641881E+00 -0.20537331144E+02  0.59301942090E+02  0.49999996465E+02 0.  0.
         12    1    1    2    0    0  0.24384120167E+02  0.59447641881E+00  0.20537331144E+02  0.31886057910E+02  0.00000000000E+00 0. -1.
         11    1    3    3    0    0 -0.20474302101E+02 -0.16842242975E+02 -0.42747299691E+01  0.26853891925E+02  0.51100000000E-03 0. -1.
        -11    1    3    3    0    0 -0.37520047994E+01  0.21646068934E+02 -0.98830605199E+01  0.24089514852E+02  0.51100000000E-03 0.  1.
        -12    1    3    3    0    0 -0.15781326667E+00 -0.53983023778E+01 -0.63795406554E+01  0.83585353121E+01  0.00000000000E+00 0.  1.
</event>
<event>
 7    1  0.4346085E-013  0.5930195E+02  0.7816164E-02  0.1266605E+00
        -11   -1    0    0    0    0  0.00000000000E+00  0.00000000000E+00  0.45593999997E+02  0.45594000000E+02  0.51100000000E-03 0. -1.
         11   -1    0    0    0    0 -0.00000000000E+00 -0.00000000000E+00 -0.45593999997E+02  0.45594000000E+02  0.51100000000E-03 0.  1.
    9900012    2    1    2    0    0  0.10116048514E+02  0.25934201943E+02 -0.15550016426E+02  0.59301948523E+02  0.50000008198E+02 0.  0.
         12    1    1    2    0    0 -0.10116048514E+02 -0.25934201943E+02  0.15550016426E+02  0.31886051477E+02  0.00000000000E+00 0. -1.
         11    1    3    3    0    0  0.17339220665E+02  0.23874548165E+02  0.42854423593E+01  0.29816231148E+02  0.51100000000E-03 0.  1.
        -11    1    3    3    0    0  0.78691281197E+00 -0.43843637265E+01 -0.18606315016E+02  0.19132089164E+02  0.51100000000E-03 0. -1.
        -12    1    3    3    0    0 -0.80100849634E+01  0.64440175042E+01 -0.12291437698E+01  0.10353628211E+02  0.00000000000E+00 0.  1.
</event>
<event>
 7    1  0.4346085E-013  0.5930193E+02  0.7816164E-02  0.1266605E+00
        -11   -1    0    0    0    0  0.00000000000E+00  0.00000000000E+00  0.45593999997E+02  0.45594000000E+02  0.51100000000E-03 0.  1.
         11   -1    0    0    0    0 -0.00000000000E+00 -0.00000000000E+00 -0.45593999997E+02  0.45594000000E+02  0.51100000000E-03 0. -1.
    9900012    2    1    2    0    0  0.85481334060E+01  0.54703031385E+01  0.30227909364E+02  0.59301932420E+02  0.49999978831E+02 0.  0.
         12    1    1    2    0    0 -0.85481334060E+01 -0.54703031385E+01 -0.30227909364E+02  0.31886067580E+02  0.00000000000E+00 0. -1.
         11    1    3    3    0    0 -0.49307169412E+01  0.13795854030E+00 -0.77803648380E+01  0.92122244538E+01  0.51100000000E-03 0. -1.
        -11    1    3    3    0    0 -0.33917263589E+00 -0.10463739561E+02  0.19383977968E+02  0.22030512608E+02  0.51100000000E-03 0.  1.
         12    1    3    3    0    0  0.13818022983E+02  0.15796084159E+02  0.18624296235E+02  0.28059195358E+02  0.00000000000E+00 0. -1.
</event>
<event>
 7    1  0.4346085E-013  0.5930195E+02  0.7816164E-02  0.1266605E+00
        -11   -1    0    0    0    0  0.00000000000E+00  0.00000000000E+00  0.45593999997E+02  0.45594000000E+02  0.51100000000E-03 0. -1.
         11   -1    0    0    0    0 -0.00000000000E+00 -0.00000000000E+00 -0.45593999997E+02  0.45594000000E+02  0.51100000000E-03 0.  1.
    9900012    2    1    2    0    0  0.18201328626E+02 -0.22251537175E+02 -0.13794970072E+02  0.59301945530E+02  0.50000002739E+02 0.  0.
         12    1    1    2    0    0 -0.18201328626E+02  0.22251537175E+02  0.13794970072E+02  0.31886054470E+02  0.00000000000E+00 0. -1.
         11    1    3    3    0    0  0.87940156073E+01  0.14648438030E+02  0.22499704125E+01  0.17232928200E+02  0.51100000000E-03 0. -1.
        -11    1    3    3    0    0  0.97615079504E+01 -0.31160725183E+02 -0.15894595452E+02  0.36316883075E+02  0.51100000000E-03 0.  1.
        -12    1    3    3    0    0 -0.35419493124E+00 -0.57392500216E+01 -0.15034503228E+00  0.57521342550E+01  0.00000000000E+00 0.  1.
</event>
<event>
 7    1  0.4346085E-013  0.5930198E+02  0.7816164E-02  0.1266605E+00
        -11   -1    0    0    0    0  0.00000000000E+00  0.00000000000E+00  0.45593999997E+02  0.45594000000E+02  0.51100000000E-03 0.  1.
         11   -1    0    0    0    0 -0.00000000000E+00 -0.00000000000E+00 -0.45593999997E+02  0.45594000000E+02  0.51100000000E-03 0. -1.
    9900012    2    1    2    0    0  0.77768514866E+01 -0.29248876033E+02 -0.10037051078E+02  0.59301975434E+02  0.50000057278E+02 0.  0.
         12    1    1    2    0    0 -0.77768514866E+01  0.29248876033E+02  0.10037051078E+02  0.31886024566E+02  0.00000000000E+00 0. -1.
         11    1    3    3    0    0  0.71667676060E+01 -0.19547225446E+02 -0.25521634500E+02  0.32936460168E+02  0.51100000000E-03 0. -1.
        -11    1    3    3    0    0  0.64207904567E+01 -0.13109965036E+02  0.10329860051E+02  0.17883057408E+02  0.51100000000E-03 0.  1.
         12    1    3    3    0    0 -0.58107065761E+01  0.34083144487E+01  0.51547233702E+01  0.84824578584E+01  0.00000000000E+00 0. -1.
</event>
<event>
 7    1  0.4346085E-013  0.5930193E+02  0.7816164E-02  0.1266605E+00
        -11   -1    0    0    0    0  0.00000000000E+00  0.00000000000E+00  0.45593999997E+02  0.45594000000E+02  0.51100000000E-03 0.  1.
         11   -1    0    0    0    0 -0.00000000000E+00 -0.00000000000E+00 -0.45593999997E+02  0.45594000000E+02  0.51100000000E-03 0. -1.
    9900012    2    1    2    0    0 -0.16055365438E+02 -0.19315503283E+02  0.19643264841E+02  0.59301932823E+02  0.49999979565E+02 0.  0.
         12    1    1    2    0    0  0.16055365438E+02  0.19315503283E+02 -0.19643264841E+02  0.31886067177E+02  0.00000000000E+00 0. -1.
         11    1    3    3    0    0  0.11752182680E+02  0.42707828034E+01 -0.35156981728E+01  0.12988976765E+02  0.51100000000E-03 0. -1.
        -11    1    3    3    0    0 -0.26759113968E+02 -0.13511364212E+02  0.17424932561E+02  0.34673266622E+02  0.51100000000E-03 0.  1.
        -12    1    3    3    0    0 -0.10484341500E+01 -0.10074921875E+02  0.57340304524E+01  0.11639689436E+02  0.00000000000E+00 0.  1.
</event>
<event>
 7    1  0.4346085E-013  0.5930194E+02  0.7816164E-02  0.1266605E+00
        -11   -1    0    0    0    0  0.00000000000E+00  0.00000000000E+00  0.45593999997E+02  0.45594000000E+02  0.51100000000E-03 0. -1.
         11   -1    0    0    0    0 -0.00000000000E+00 -0.00000000000E+00 -0.45593999997E+02  0.45594000000E+02  0.51100000000E-03 0.  1.
    9900012    2    1    2    0    0  0.23001964160E+02  0.10493414151E+02 -0.19429841304E+02  0.59301939898E+02  0.49999992468E+02 0.  0.
         12    1    1    2    0    0 -0.23001964160E+02 -0.10493414151E+02  0.19429841304E+02  0.31886060102E+02  0.00000000000E+00 0. -1.
         11    1    3    3    0    0  0.29011646614E+01 -0.14635236726E+01  0.21539296822E+01  0.38984703757E+01  0.51100000000E-03 0. -1.
        -11    1    3    3    0    0  0.51980557899E+01  0.27919080526E+02 -0.16972989301E+02  0.33084395226E+02  0.51100000000E-03 0.  1.
        -12    1    3    3    0    0  0.14902743708E+02 -0.15962142702E+02 -0.46107816851E+01  0.22319074296E+02  0.00000000000E+00 0.  1.
</event>
<event>
 7    1  0.4346085E-013  0.5930194E+02  0.7816164E-02  0.1266605E+00
        -11   -1    0    0    0    0  0.00000000000E+00  0.00000000000E+00  0.45593999997E+02  0.45594000000E+02  0.51100000000E-03 0.  1.
         11   -1    0    0    0    0 -0.00000000000E+00 -0.00000000000E+00 -0.45593999997E+02  0.45594000000E+02  0.51100000000E-03 0. -1.
    9900012    2    1    2    0    0  0.15706868974E+02 -0.18213942324E+02  0.20934838563E+02  0.59301938882E+02  0.49999990615E+02 0.  0.
         12    1    1    2    0    0 -0.15706868974E+02  0.18213942324E+02 -0.20934838563E+02  0.31886061118E+02  0.00000000000E+00 0. -1.
         11    1    3    3    0    0  0.18429840332E+02 -0.23268442964E+02  0.24105721367E+02  0.38238269515E+02  0.51100000000E-03 0. -1.
        -11    1    3    3    0    0  0.13422413074E+01  0.50150765300E+01  0.77966066798E+01  0.93669461571E+01  0.51100000000E-03 0.  1.
         12    1    3    3    0    0 -0.40652126650E+01  0.39424109274E-01 -0.10967489484E+02  0.11696723210E+02  0.00000000000E+00 0. -1.
</event>
<event>
 7    1  0.4346085E-013  0.5930194E+02  0.7816164E-02  0.1266605E+00
        -11   -1    0    0    0    0  0.00000000000E+00  0.00000000000E+00  0.45593999997E+02  0.45594000000E+02  0.51100000000E-03 0.  1.
         11   -1    0    0    0    0 -0.00000000000E+00 -0.00000000000E+00 -0.45593999997E+02  0.45594000000E+02  0.51100000000E-03 0. -1.
    9900012    2    1    2    0    0 -0.23593346244E+02  0.30305955868E+01  0.21234185701E+02  0.59301935034E+02  0.49999983598E+02 0.  0.
         12    1    1    2    0    0  0.23593346244E+02 -0.30305955868E+01 -0.21234185701E+02  0.31886064966E+02  0.00000000000E+00 0. -1.
         11    1    3    3    0    0 -0.15627474813E+02  0.63546683823E+01  0.24707034758E+02  0.29917174767E+02  0.51100000000E-03 0. -1.
        -11    1    3    3    0    0 -0.13124241500E+02  0.66207889342E+01 -0.86363991670E+01  0.17048986829E+02  0.51100000000E-03 0.  1.
         12    1    3    3    0    0  0.51583700682E+01 -0.99448617297E+01  0.51635501101E+01  0.12335773438E+02  0.00000000000E+00 0. -1.
</event>
<event>
 7    1  0.4346085E-013  0.5930194E+02  0.7816164E-02  0.1266605E+00
        -11   -1    0    0    0    0  0.00000000000E+00  0.00000000000E+00  0.45593999997E+02  0.45594000000E+02  0.51100000000E-03 0.  1.
         11   -1    0    0    0    0 -0.00000000000E+00 -0.00000000000E+00 -0.45593999997E+02  0.45594000000E+02  0.51100000000E-03 0. -1.
    9900012    2    1    2    0    0  0.31408615669E+02 -0.30955245974E+01 -0.45428730005E+01  0.59301935554E+02  0.49999984545E+02 0.  0.
         12    1    1    2    0    0 -0.31408615669E+02  0.30955245974E+01  0.45428730005E+01  0.31886064446E+02  0.00000000000E+00 0. -1.
         11    1    3    3    0    0  0.79852320929E+00 -0.12127427368E+02  0.40462003282E+01  0.12809522678E+02  0.51100000000E-03 0. -1.
        -11    1    3    3    0    0  0.10261024019E+02  0.19882327969E+02 -0.17684690974E+01  0.22443775587E+02  0.51100000000E-03 0.  1.
        -12    1    3    3    0    0  0.20349068441E+02 -0.10850425198E+02 -0.68206042313E+01  0.24048637289E+02  0.00000000000E+00 0.  1.
</event>
<event>
 7    1  0.4346085E-013  0.5930194E+02  0.7816164E-02  0.1266605E+00
        -11   -1    0    0    0    0  0.00000000000E+00  0.00000000000E+00  0.45593999997E+02  0.45594000000E+02  0.51100000000E-03 0.  1.
         11   -1    0    0    0    0 -0.00000000000E+00 -0.00000000000E+00 -0.45593999997E+02  0.45594000000E+02  0.51100000000E-03 0. -1.
    9900012    2    1    2    0    0 -0.72666189020E+01 -0.25891968922E+02  0.17132504716E+02  0.59301944697E+02  0.50000001221E+02 0.  0.
         12    1    1    2    0    0  0.72666189020E+01  0.25891968922E+02 -0.17132504716E+02  0.31886055303E+02  0.00000000000E+00 0. -1.
         11    1    3    3    0    0  0.43577748398E+01  0.13860651325E+02  0.13766744966E+00  0.14530203346E+02  0.51100000000E-03 0. -1.
        -11    1    3    3    0    0 -0.82438036043E+01 -0.28110687911E+02  0.12282200061E+02  0.31765130431E+02  0.51100000000E-03 0.  1.
         12    1    3    3    0    0 -0.33805901374E+01 -0.11641932336E+02  0.47126372058E+01  0.13006610920E+02  0.00000000000E+00 0. -1.
</event>
<event>
 7    1  0.4346085E-013  0.5930193E+02  0.7816164E-02  0.1266605E+00
        -11   -1    0    0    0    0  0.00000000000E+00  0.00000000000E+00  0.45593999997E+02  0.45594000000E+02  0.51100000000E-03 0.  1.
         11   -1    0    0    0    0 -0.00000000000E+00 -0.00000000000E+00 -0.45593999997E+02  0.45594000000E+02  0.51100000000E-03 0. -1.
    9900012    2    1    2    0    0  0.24823953319E+02  0.16624699937E+02  0.11140560708E+02  0.59301930953E+02  0.49999976155E+02 0.  0.
         12    1    1    2    0    0 -0.24823953319E+02 -0.16624699937E+02 -0.11140560708E+02  0.31886069047E+02  0.00000000000E+00 0. -1.
         11    1    3    3    0    0 -0.48815311770E+01 -0.98339404116E+00  0.16401533430E+02  0.17140790809E+02  0.51100000000E-03 0.  1.
        -11    1    3    3    0    0  0.13871251781E+02  0.85010125511E+00 -0.11762117322E+02  0.18206638961E+02  0.51100000000E-03 0. -1.
         12    1    3    3    0    0  0.15834232715E+02  0.16757992723E+02  0.65011445998E+01  0.23954501182E+02  0.00000000000E+00 0. -1.
</event>
<event>
 7    1  0.4346085E-013  0.5930195E+02  0.7816164E-02  0.1266605E+00
        -11   -1    0    0    0    0  0.00000000000E+00  0.00000000000E+00  0.45593999997E+02  0.45594000000E+02  0.51100000000E-03 0.  1.
         11   -1    0    0    0    0 -0.00000000000E+00 -0.00000000000E+00 -0.45593999997E+02  0.45594000000E+02  0.51100000000E-03 0. -1.
    9900012    2    1    2    0    0  0.11045266230E+02 -0.62500713682E+01  0.29251648779E+02  0.59301948904E+02  0.50000008894E+02 0.  0.
         12    1    1    2    0    0 -0.11045266230E+02  0.62500713682E+01 -0.29251648779E+02  0.31886051096E+02  0.00000000000E+00 0. -1.
         11    1    3    3    0    0  0.15083746195E+02 -0.65363496595E+00 -0.33056929434E+01  0.15455557060E+02  0.51100000000E-03 0. -1.
        -11    1    3    3    0    0 -0.13731347567E+02  0.23960300462E+01  0.75297175268E+01  0.15842585404E+02  0.51100000000E-03 0.  1.
        -12    1    3    3    0    0  0.96928676023E+01 -0.79924664484E+01  0.25027624195E+02  0.28003806440E+02  0.00000000000E+00 0.  1.
</event>
<event>
 7    1  0.4346085E-013  0.5930193E+02  0.7816164E-02  0.1266605E+00
        -11   -1    0    0    0    0  0.00000000000E+00  0.00000000000E+00  0.45593999997E+02  0.45594000000E+02  0.51100000000E-03 0. -1.
         11   -1    0    0    0    0 -0.00000000000E+00 -0.00000000000E+00 -0.45593999997E+02  0.45594000000E+02  0.51100000000E-03 0.  1.
    9900012    2    1    2    0    0  0.28443477951E+02  0.13634759460E+02  0.46672611845E+01  0.59301930464E+02  0.49999975263E+02 0.  0.
         12    1    1    2    0    0 -0.28443477951E+02 -0.13634759460E+02 -0.46672611845E+01  0.31886069536E+02  0.00000000000E+00 0. -1.
         11    1    3    3    0    0  0.60953488323E+01 -0.86098591540E+01 -0.15538831050E+02  0.18781326436E+02  0.51100000000E-03 0. -1.
        -11    1    3    3    0    0  0.80433359937E+01  0.31700159357E+01 -0.88179188471E+00  0.86903286548E+01  0.51100000000E-03 0.  1.
         12    1    3    3    0    0  0.14304793125E+02  0.19074602678E+02  0.21087884119E+02  0.31830275373E+02  0.00000000000E+00 0. -1.
</event>
<event>
 7    1  0.4346085E-013  0.5930194E+02  0.7816164E-02  0.1266605E+00
        -11   -1    0    0    0    0  0.00000000000E+00  0.00000000000E+00  0.45593999997E+02  0.45594000000E+02  0.51100000000E-03 0.  1.
         11   -1    0    0    0    0 -0.00000000000E+00 -0.00000000000E+00 -0.45593999997E+02  0.45594000000E+02  0.51100000000E-03 0. -1.
    9900012    2    1    2    0    0  0.22812195101E+02  0.60812570817E+01  0.21432281999E+02  0.59301942785E+02  0.49999997734E+02 0.  0.
         12    1    1    2    0    0 -0.22812195101E+02 -0.60812570817E+01 -0.21432281999E+02  0.31886057215E+02  0.00000000000E+00 0. -1.
         11    1    3    3    0    0  0.20180897093E+02  0.65937129886E+01 -0.85816233495E+01  0.22899561525E+02  0.51100000000E-03 0. -1.
        -11    1    3    3    0    0 -0.66195269671E+01 -0.62744493082E+01  0.18018287734E+02  0.20195186172E+02  0.51100000000E-03 0.  1.
         12    1    3    3    0    0  0.92508249745E+01  0.57619934013E+01  0.11995617615E+02  0.16207195088E+02  0.00000000000E+00 0. -1.
</event>
<event>
 7    1  0.4346085E-013  0.5930194E+02  0.7816164E-02  0.1266605E+00
        -11   -1    0    0    0    0  0.00000000000E+00  0.00000000000E+00  0.45593999997E+02  0.45594000000E+02  0.51100000000E-03 0. -1.
         11   -1    0    0    0    0 -0.00000000000E+00 -0.00000000000E+00 -0.45593999997E+02  0.45594000000E+02  0.51100000000E-03 0.  1.
    9900012    2    1    2    0    0  0.27272020604E+02 -0.16512915729E+02 -0.53029112726E+00  0.59301941880E+02  0.49999996084E+02 0.  0.
         12    1    1    2    0    0 -0.27272020604E+02  0.16512915729E+02  0.53029112726E+00  0.31886058120E+02  0.00000000000E+00 0. -1.
         11    1    3    3    0    0  0.23731010253E+02 -0.14390092508E+02 -0.12486483043E+02  0.30432677652E+02  0.51100000000E-03 0. -1.
        -11    1    3    3    0    0 -0.79911931096E+01  0.26829179844E-01 -0.41020588853E+01  0.89825817269E+01  0.51100000000E-03 0.  1.
         12    1    3    3    0    0  0.11532203461E+02 -0.21496524007E+01  0.16058250802E+02  0.19886682501E+02  0.00000000000E+00 0. -1.
</event>
<event>
 7    1  0.4346085E-013  0.5930191E+02  0.7816164E-02  0.1266605E+00
        -11   -1    0    0    0    0  0.00000000000E+00  0.00000000000E+00  0.45593999997E+02  0.45594000000E+02  0.51100000000E-03 0.  1.
         11   -1    0    0    0    0 -0.00000000000E+00 -0.00000000000E+00 -0.45593999997E+02  0.45594000000E+02  0.51100000000E-03 0. -1.
    9900012    2    1    2    0    0  0.11838763872E+02 -0.25436191769E+02  0.15151459680E+02  0.59301907230E+02  0.49999932889E+02 0.  0.
         12    1    1    2    0    0 -0.11838763872E+02  0.25436191769E+02 -0.15151459680E+02  0.31886092770E+02  0.00000000000E+00 0. -1.
         11    1    3    3    0    0  0.17382570504E+02 -0.31781355473E+02  0.84900719877E+01  0.37206042999E+02  0.51100000000E-03 0. -1.
        -11    1    3    3    0    0  0.67507628330E+01  0.58011714892E+00  0.49888234675E+01  0.84141365918E+01  0.51100000000E-03 0.  1.
         12    1    3    3    0    0 -0.12294569465E+02  0.57650465553E+01  0.16725642243E+01  0.13681727639E+02  0.00000000000E+00 0. -1.
</event>
<event>
 7    1  0.4346085E-013  0.5930196E+02  0.7816164E-02  0.1266605E+00
        -11   -1    0    0    0    0  0.00000000000E+00  0.00000000000E+00  0.45593999997E+02  0.45594000000E+02  0.51100000000E-03 0.  1.
         11   -1    0    0    0    0 -0.00000000000E+00 -0.00000000000E+00 -0.45593999997E+02  0.45594000000E+02  0.51100000000E-03 0. -1.
    9900012    2    1    2    0    0 -0.18176232686E+02  0.13372371954E+01  0.26164018407E+02  0.59301960779E+02  0.50000030551E+02 0.  0.
         12    1    1    2    0    0  0.18176232686E+02 -0.13372371954E+01 -0.26164018407E+02  0.31886039221E+02  0.00000000000E+00 0. -1.
         11    1    3    3    0    0  0.72716882426E+01 -0.28795655575E+01 -0.78906447209E+01  0.11109978491E+02  0.51100000000E-03 0. -1.
        -11    1    3    3    0    0 -0.10209329925E+02  0.10390366376E+02  0.26184896727E+02  0.29963960816E+02  0.51100000000E-03 0.  1.
         12    1    3    3    0    0 -0.15238591004E+02 -0.61735636227E+01  0.78697664017E+01  0.18228021472E+02  0.00000000000E+00 0. -1.
</event>
<event>
 7    1  0.4346085E-013  0.5930197E+02  0.7816164E-02  0.1266605E+00
        -11   -1    0    0    0    0  0.00000000000E+00  0.00000000000E+00  0.45593999997E+02  0.45594000000E+02  0.51100000000E-03 0.  1.
         11   -1    0    0    0    0 -0.00000000000E+00 -0.00000000000E+00 -0.45593999997E+02  0.45594000000E+02  0.51100000000E-03 0. -1.
    9900012    2    1    2    0    0  0.30007176377E+02  0.86307480226E+01 -0.64651796596E+01  0.59301968677E+02  0.50000044954E+02 0.  0.
         12    1    1    2    0    0 -0.30007176377E+02 -0.86307480226E+01  0.64651796596E+01  0.31886031323E+02  0.00000000000E+00 0. -1.
         11    1    3    3    0    0 -0.42768633105E+01 -0.33509224904E+00 -0.13200182654E+02  0.13879793549E+02  0.51100000000E-03 0. -1.
        -11    1    3    3    0    0  0.30631716986E+02  0.10032156846E+02  0.15574793567E+02  0.35798330288E+02  0.51100000000E-03 0.  1.
        -12    1    3    3    0    0  0.36523227008E+01 -0.10663165739E+01 -0.88397905716E+01  0.96238448396E+01  0.00000000000E+00 0.  1.
</event>
<event>
 7    1  0.4346085E-013  0.5930188E+02  0.7816164E-02  0.1266605E+00
        -11   -1    0    0    0    0  0.00000000000E+00  0.00000000000E+00  0.45593999997E+02  0.45594000000E+02  0.51100000000E-03 0.  1.
         11   -1    0    0    0    0 -0.00000000000E+00 -0.00000000000E+00 -0.45593999997E+02  0.45594000000E+02  0.51100000000E-03 0. -1.
    9900012    2    1    2    0    0  0.10271765511E+02 -0.10499945654E+02  0.28301350721E+02  0.59301882675E+02  0.49999888107E+02 0.  0.
         12    1    1    2    0    0 -0.10271765511E+02  0.10499945654E+02 -0.28301350721E+02  0.31886117325E+02  0.00000000000E+00 0. -1.
         11    1    3    3    0    0 -0.38636005941E+01 -0.26085196891E+02  0.21996310252E+02  0.34339519091E+02  0.51100000000E-03 0.  1.
        -11    1    3    3    0    0  0.40080569704E+01  0.10853228099E+02  0.73949185780E+01  0.13731056110E+02  0.51100000000E-03 0. -1.
         12    1    3    3    0    0  0.10127309135E+02  0.47320231382E+01 -0.10898781090E+01  0.11231307474E+02  0.00000000000E+00 0. -1.
</event>
<event>
 7    1  0.4346085E-013  0.5930194E+02  0.7816164E-02  0.1266605E+00
        -11   -1    0    0    0    0  0.00000000000E+00  0.00000000000E+00  0.45593999997E+02  0.45594000000E+02  0.51100000000E-03 0.  1.
         11   -1    0    0    0    0 -0.00000000000E+00 -0.00000000000E+00 -0.45593999997E+02  0.45594000000E+02  0.51100000000E-03 0. -1.
    9900012    2    1    2    0    0  0.96460555547E+01 -0.14622870039E+02  0.26642937737E+02  0.59301939610E+02  0.49999991942E+02 0.  0.
         12    1    1    2    0    0 -0.96460555547E+01  0.14622870039E+02 -0.26642937737E+02  0.31886060390E+02  0.00000000000E+00 0. -1.
         11    1    3    3    0    0 -0.35814402107E+01 -0.94934315476E+00  0.17955863656E+02  0.18334148639E+02  0.51100000000E-03 0.  1.
        -11    1    3    3    0    0  0.32388196628E+01 -0.24063213514E+02  0.27856247322E+00  0.24281799660E+02  0.51100000000E-03 0. -1.
         12    1    3    3    0    0  0.99886761026E+01  0.10389686630E+02  0.84085116083E+01  0.16685991311E+02  0.00000000000E+00 0. -1.
</event>
<event>
 7    1  0.4346085E-013  0.5930194E+02  0.7816164E-02  0.1266605E+00
        -11   -1    0    0    0    0  0.00000000000E+00  0.00000000000E+00  0.45593999997E+02  0.45594000000E+02  0.51100000000E-03 0.  1.
         11   -1    0    0    0    0 -0.00000000000E+00 -0.00000000000E+00 -0.45593999997E+02  0.45594000000E+02  0.51100000000E-03 0. -1.
    9900012    2    1    2    0    0 -0.18454737698E+02  0.42987506705E+01  0.25644961824E+02  0.59301942423E+02  0.49999997073E+02 0.  0.
         12    1    1    2    0    0  0.18454737698E+02 -0.42987506705E+01 -0.25644961824E+02  0.31886057577E+02  0.00000000000E+00 0. -1.
         11    1    3    3    0    0  0.42227560520E+01  0.85208263302E+01  0.56754723936E+01  0.11074616796E+02  0.51100000000E-03 0. -1.
        -11    1    3    3    0    0 -0.21982405479E+02 -0.48852765510E+01  0.30355962683E+02  0.37796515028E+02  0.51100000000E-03 0.  1.
        -12    1    3    3    0    0 -0.69508827133E+00  0.66320089130E+00 -0.10386473252E+02  0.10430810599E+02  0.00000000000E+00 0.  1.
</event>
<event>
 7    1  0.4346085E-013  0.5930192E+02  0.7816164E-02  0.1266605E+00
        -11   -1    0    0    0    0  0.00000000000E+00  0.00000000000E+00  0.45593999997E+02  0.45594000000E+02  0.51100000000E-03 0.  1.
         11   -1    0    0    0    0 -0.00000000000E+00 -0.00000000000E+00 -0.45593999997E+02  0.45594000000E+02  0.51100000000E-03 0. -1.
    9900012    2    1    2    0    0  0.25327797345E+02 -0.16743373591E+02 -0.97408407081E+01  0.59301923803E+02  0.49999963115E+02 0.  0.
         12    1    1    2    0    0 -0.25327797345E+02  0.16743373591E+02  0.97408407081E+01  0.31886076197E+02  0.00000000000E+00 0. -1.
         11    1    3    3    0    0  0.54227264765E+01 -0.12189406999E+02 -0.23027121741E+02  0.26612702631E+02  0.51100000000E-03 0. -1.
        -11    1    3    3    0    0  0.24433214430E+02 -0.41048167756E+01  0.87806098119E+01  0.26285558718E+02  0.51100000000E-03 0.  1.
         12    1    3    3    0    0 -0.45281435622E+01 -0.44914981651E+00  0.45056712207E+01  0.64036624541E+01  0.00000000000E+00 0. -1.
</event>
<event>
 7    1  0.4346085E-013  0.5930192E+02  0.7816164E-02  0.1266605E+00
        -11   -1    0    0    0    0  0.00000000000E+00  0.00000000000E+00  0.45593999997E+02  0.45594000000E+02  0.51100000000E-03 0. -1.
         11   -1    0    0    0    0 -0.00000000000E+00 -0.00000000000E+00 -0.45593999997E+02  0.45594000000E+02  0.51100000000E-03 0.  1.
    9900012    2    1    2    0    0  0.26011646231E+02 -0.87047020705E+01 -0.16258666312E+02  0.59301924543E+02  0.49999964465E+02 0.  0.
         12    1    1    2    0    0 -0.26011646231E+02  0.87047020705E+01  0.16258666312E+02  0.31886075457E+02  0.00000000000E+00 0. -1.
         11    1    3    3    0    0  0.27828818697E+02  0.69633397098E+01 -0.77143412506E+01  0.29705930572E+02  0.51100000000E-03 0. -1.
        -11    1    3    3    0    0 -0.12150121426E+02 -0.11663393403E+02 -0.26669948880E+01  0.17052069034E+02  0.51100000000E-03 0.  1.
         12    1    3    3    0    0  0.10332948961E+02 -0.40046483771E+01 -0.58773301731E+01  0.12543924937E+02  0.00000000000E+00 0. -1.
</event>
<event>
 7    1  0.4346085E-013  0.5930208E+02  0.7816164E-02  0.1266604E+00
        -11   -1    0    0    0    0  0.00000000000E+00  0.00000000000E+00  0.45593999997E+02  0.45594000000E+02  0.51100000000E-03 0. -1.
         11   -1    0    0    0    0 -0.00000000000E+00 -0.00000000000E+00 -0.45593999997E+02  0.45594000000E+02  0.51100000000E-03 0.  1.
    9900012    2    1    2    0    0 -0.48728191293E+01  0.30350446958E+02 -0.84745443615E+01  0.59302079926E+02  0.50000247845E+02 0.  0.
         12    1    1    2    0    0  0.48728191293E+01 -0.30350446958E+02  0.84745443615E+01  0.31885920074E+02  0.00000000000E+00 0. -1.
         11    1    3    3    0    0 -0.68667208717E+01 -0.11393126882E+02  0.29152834389E+01  0.13618152352E+02  0.51100000000E-03 0. -1.
        -11    1    3    3    0    0  0.61723334221E+01  0.93074431777E+01 -0.55177002003E+01  0.12456773826E+02  0.51100000000E-03 0.  1.
         12    1    3    3    0    0 -0.41784316797E+01  0.32436130663E+02 -0.58721276000E+01  0.33227153749E+02  0.00000000000E+00 0. -1.
</event>
<event>
 7    1  0.4346085E-013  0.5930197E+02  0.7816164E-02  0.1266605E+00
        -11   -1    0    0    0    0  0.00000000000E+00  0.00000000000E+00  0.45593999997E+02  0.45594000000E+02  0.51100000000E-03 0.  1.
         11   -1    0    0    0    0 -0.00000000000E+00 -0.00000000000E+00 -0.45593999997E+02  0.45594000000E+02  0.51100000000E-03 0. -1.
    9900012    2    1    2    0    0 -0.28040766309E+02 -0.46327765026E+01  0.14455853950E+02  0.59301970038E+02  0.50000047436E+02 0.  0.
         12    1    1    2    0    0  0.28040766309E+02  0.46327765026E+01 -0.14455853950E+02  0.31886029962E+02  0.00000000000E+00 0. -1.
         11    1    3    3    0    0 -0.10037064995E+02 -0.25225627209E+02  0.45861044556E+01  0.27533748312E+02  0.51100000000E-03 0.  1.
        -11    1    3    3    0    0 -0.80205531227E+01  0.16680861620E+02  0.23180200567E+01  0.18653515326E+02  0.51100000000E-03 0. -1.
        -12    1    3    3    0    0 -0.99831481916E+01  0.39119890860E+01  0.75517294376E+01  0.13114706399E+02  0.00000000000E+00 0.  1.
</event>
<event>
 7    1  0.4346085E-013  0.5930193E+02  0.7816164E-02  0.1266605E+00
        -11   -1    0    0    0    0  0.00000000000E+00  0.00000000000E+00  0.45593999997E+02  0.45594000000E+02  0.51100000000E-03 0.  1.
         11   -1    0    0    0    0 -0.00000000000E+00 -0.00000000000E+00 -0.45593999997E+02  0.45594000000E+02  0.51100000000E-03 0. -1.
    9900012    2    1    2    0    0 -0.26394631603E+02 -0.17889718875E+02  0.53533565275E-01  0.59301929613E+02  0.49999973711E+02 0.  0.
         12    1    1    2    0    0  0.26394631603E+02  0.17889718875E+02 -0.53533565275E-01  0.31886070387E+02  0.00000000000E+00 0. -1.
         11    1    3    3    0    0 -0.12907876893E+02  0.90721906192E+01 -0.11193737768E+02  0.19344707131E+02  0.51100000000E-03 0. -1.
        -11    1    3    3    0    0  0.40811913981E+01 -0.11828117706E+02  0.11164906452E+02  0.16769485026E+02  0.51100000000E-03 0.  1.
         12    1    3    3    0    0 -0.17567946108E+02 -0.15133791788E+02  0.82364880834E-01  0.23187737456E+02  0.00000000000E+00 0. -1.
</event>
<event>
 7    1  0.4346085E-013  0.5930194E+02  0.7816164E-02  0.1266605E+00
        -11   -1    0    0    0    0  0.00000000000E+00  0.00000000000E+00  0.45593999997E+02  0.45594000000E+02  0.51100000000E-03 0. -1.
         11   -1    0    0    0    0 -0.00000000000E+00 -0.00000000000E+00 -0.45593999997E+02  0.45594000000E+02  0.51100000000E-03 0.  1.
    9900012    2    1    2    0    0  0.12953944514E+01  0.29443058895E+02 -0.12171649509E+02  0.59301940105E+02  0.49999992845E+02 0.  0.
         12    1    1    2    0    0 -0.12953944514E+01 -0.29443058895E+02  0.12171649509E+02  0.31886059895E+02  0.00000000000E+00 0. -1.
         11    1    3    3    0    0 -0.11587535729E+02  0.16519149557E+01 -0.60986003256E+01  0.13198209480E+02  0.51100000000E-03 0. -1.
        -11    1    3    3    0    0  0.18410361669E+02  0.32756591353E+02 -0.80212671343E+01  0.38422342725E+02  0.51100000000E-03 0.  1.
        -12    1    3    3    0    0 -0.55274314879E+01 -0.49654474130E+01  0.19482179514E+01  0.76813878987E+01  0.00000000000E+00 0.  1.
</event>
<event>
 7    1  0.4346085E-013  0.5930193E+02  0.7816164E-02  0.1266605E+00
        -11   -1    0    0    0    0  0.00000000000E+00  0.00000000000E+00  0.45593999997E+02  0.45594000000E+02  0.51100000000E-03 0.  1.
         11   -1    0    0    0    0 -0.00000000000E+00 -0.00000000000E+00 -0.45593999997E+02  0.45594000000E+02  0.51100000000E-03 0. -1.
    9900012    2    1    2    0    0 -0.30576745402E+02 -0.36987678065E+01  0.82524854299E+01  0.59301925321E+02  0.49999965884E+02 0.  0.
         12    1    1    2    0    0  0.30576745402E+02  0.36987678065E+01 -0.82524854299E+01  0.31886074679E+02  0.00000000000E+00 0. -1.
         11    1    3    3    0    0  0.47622173313E+01 -0.11217230844E+02  0.10331476924E+02  0.15976369970E+02  0.51100000000E-03 0.  1.
        -11    1    3    3    0    0 -0.85122653176E+01 -0.75340450006E+01 -0.50149713194E+01  0.12424589832E+02  0.51100000000E-03 0. -1.
         12    1    3    3    0    0 -0.26826697416E+02  0.15052508038E+02  0.29359798257E+01  0.30900965519E+02  0.00000000000E+00 0. -1.
</event>
<event>
 7    1  0.4346085E-013  0.5930197E+02  0.7816164E-02  0.1266605E+00
        -11   -1    0    0    0    0  0.00000000000E+00  0.00000000000E+00  0.45593999997E+02  0.45594000000E+02  0.51100000000E-03 0. -1.
         11   -1    0    0    0    0 -0.00000000000E+00 -0.00000000000E+00 -0.45593999997E+02  0.45594000000E+02  0.51100000000E-03 0.  1.
    9900012    2    1    2    0    0  0.74021639512E+01 -0.27420014393E+02 -0.14493791250E+02  0.59301965357E+02  0.50000038899E+02 0.  0.
         12    1    1    2    0    0 -0.74021639512E+01  0.27420014393E+02  0.14493791250E+02  0.31886034643E+02  0.00000000000E+00 0. -1.
         11    1    3    3    0    0  0.11345338189E+02 -0.42060352749E+01  0.74269307343E+01  0.14197419898E+02  0.51100000000E-03 0. -1.
        -11    1    3    3    0    0 -0.14454273958E+02 -0.55021929867E+01 -0.18685862400E+02  0.24256166581E+02  0.51100000000E-03 0.  1.
        -12    1    3    3    0    0  0.10511099720E+02 -0.17711786131E+02 -0.32348595847E+01  0.20848378877E+02  0.00000000000E+00 0.  1.
</event>
<event>
 7    1  0.4346085E-013  0.5930195E+02  0.7816164E-02  0.1266605E+00
        -11   -1    0    0    0    0  0.00000000000E+00  0.00000000000E+00  0.45593999997E+02  0.45594000000E+02  0.51100000000E-03 0. -1.
         11   -1    0    0    0    0 -0.00000000000E+00 -0.00000000000E+00 -0.45593999997E+02  0.45594000000E+02  0.51100000000E-03 0.  1.
    9900012    2    1    2    0    0 -0.30535912182E+02 -0.18723314460E+01  0.89873758993E+01  0.59301945315E+02  0.50000002347E+02 0.  0.
         12    1    1    2    0    0  0.30535912182E+02  0.18723314460E+01 -0.89873758993E+01  0.31886054685E+02  0.00000000000E+00 0. -1.
         11    1    3    3    0    0  0.16683283754E+01  0.18744618972E+01  0.10633785734E+02  0.10925855860E+02  0.51100000000E-03 0. -1.
        -11    1    3    3    0    0 -0.36983292780E+02  0.47564585588E+01 -0.58692968294E+01  0.37747006351E+02  0.51100000000E-03 0.  1.
        -12    1    3    3    0    0  0.47790522229E+01 -0.85032519020E+01  0.42228869942E+01  0.10629083104E+02  0.00000000000E+00 0.  1.
</event>
<event>
 7    1  0.4346085E-013  0.5930197E+02  0.7816164E-02  0.1266605E+00
        -11   -1    0    0    0    0  0.00000000000E+00  0.00000000000E+00  0.45593999997E+02  0.45594000000E+02  0.51100000000E-03 0.  1.
         11   -1    0    0    0    0 -0.00000000000E+00 -0.00000000000E+00 -0.45593999997E+02  0.45594000000E+02  0.51100000000E-03 0. -1.
    9900012    2    1    2    0    0  0.25990593952E+02  0.67376836277E+01 -0.17199171630E+02  0.59301970780E+02  0.50000048789E+02 0.  0.
         12    1    1    2    0    0 -0.25990593952E+02 -0.67376836277E+01  0.17199171630E+02  0.31886029220E+02  0.00000000000E+00 0. -1.
         11    1    3    3    0    0  0.31125601877E+02  0.14210714103E+02 -0.16721716743E+02  0.38083635575E+02  0.51100000000E-03 0. -1.
        -11    1    3    3    0    0 -0.51331599758E+01 -0.75320811814E+01 -0.89330800891E+01  0.12762503610E+02  0.51100000000E-03 0.  1.
        -12    1    3    3    0    0 -0.18479491751E-02  0.59050706345E-01  0.84556252018E+01  0.84558315945E+01  0.00000000000E+00 0.  1.
</event>
<event>
 7    1  0.4346085E-013  0.5930196E+02  0.7816164E-02  0.1266605E+00
        -11   -1    0    0    0    0  0.00000000000E+00  0.00000000000E+00  0.45593999997E+02  0.45594000000E+02  0.51100000000E-03 0. -1.
         11   -1    0    0    0    0 -0.00000000000E+00 -0.00000000000E+00 -0.45593999997E+02  0.45594000000E+02  0.51100000000E-03 0.  1.
    9900012    2    1    2    0    0 -0.25700528095E+02 -0.15848188289E+02  0.10248785369E+02  0.59301955750E+02  0.50000021378E+02 0.  0.
         12    1    1    2    0    0  0.25700528095E+02  0.15848188289E+02 -0.10248785369E+02  0.31886044250E+02  0.00000000000E+00 0. -1.
         11    1    3    3    0    0  0.25106376353E+01  0.33658380926E+01  0.40646062072E+01  0.58440731756E+01  0.51100000000E-03 0. -1.
        -11    1    3    3    0    0 -0.23624762568E+02 -0.17685198945E+02 -0.14028134259E+02  0.32675437551E+02  0.51100000000E-03 0.  1.
        -12    1    3    3    0    0 -0.45864031622E+01 -0.15288274373E+01  0.20212313421E+02  0.20782445023E+02  0.00000000000E+00 0.  1.
</event>
<event>
 7    1  0.4346085E-013  0.5930194E+02  0.7816164E-02  0.1266605E+00
        -11   -1    0    0    0    0  0.00000000000E+00  0.00000000000E+00  0.45593999997E+02  0.45594000000E+02  0.51100000000E-03 0. -1.
         11   -1    0    0    0    0 -0.00000000000E+00 -0.00000000000E+00 -0.45593999997E+02  0.45594000000E+02  0.51100000000E-03 0.  1.
    9900012    2    1    2    0    0 -0.19251857012E+01 -0.13781621403E+02 -0.28689392976E+02  0.59301941952E+02  0.49999996215E+02 0.  0.
         12    1    1    2    0    0  0.19251857012E+01  0.13781621403E+02  0.28689392976E+02  0.31886058048E+02  0.00000000000E+00 0. -1.
         11    1    3    3    0    0 -0.12044715326E+02 -0.15971568661E+02  0.29215660477E+01  0.20216372602E+02  0.51100000000E-03 0. -1.
        -11    1    3    3    0    0 -0.45225240967E+01  0.56056743281E+01 -0.59412340297E+01  0.93367591237E+01  0.51100000000E-03 0.  1.
         12    1    3    3    0    0  0.14642053721E+02 -0.34157270706E+01 -0.25669724994E+02  0.29748810226E+02  0.00000000000E+00 0. -1.
</event>
<event>
 7    1  0.4346085E-013  0.5930191E+02  0.7816164E-02  0.1266605E+00
        -11   -1    0    0    0    0  0.00000000000E+00  0.00000000000E+00  0.45593999997E+02  0.45594000000E+02  0.51100000000E-03 0.  1.
         11   -1    0    0    0    0 -0.00000000000E+00 -0.00000000000E+00 -0.45593999997E+02  0.45594000000E+02  0.51100000000E-03 0. -1.
    9900012    2    1    2    0    0 -0.18831132473E+02  0.12471258739E+02 -0.22507311520E+02  0.59301907160E+02  0.49999932762E+02 0.  0.
         12    1    1    2    0    0  0.18831132473E+02 -0.12471258739E+02  0.22507311520E+02  0.31886092840E+02  0.00000000000E+00 0. -1.
         11    1    3    3    0    0  0.10080519438E+02  0.39315782466E+01 -0.10177175993E+00  0.10820560864E+02  0.51100000000E-03 0. -1.
        -11    1    3    3    0    0 -0.30504892030E+02  0.14876796872E+02 -0.11624619260E+02  0.35874772419E+02  0.51100000000E-03 0.  1.
        -12    1    3    3    0    0  0.15932401180E+01 -0.63371163799E+01 -0.10780920500E+02  0.12606573877E+02  0.00000000000E+00 0.  1.
</event>
<event>
 7    1  0.4346085E-013  0.5930193E+02  0.7816164E-02  0.1266605E+00
        -11   -1    0    0    0    0  0.00000000000E+00  0.00000000000E+00  0.45593999997E+02  0.45594000000E+02  0.51100000000E-03 0.  1.
         11   -1    0    0    0    0 -0.00000000000E+00 -0.00000000000E+00 -0.45593999997E+02  0.45594000000E+02  0.51100000000E-03 0. -1.
    9900012    2    1    2    0    0  0.23775353101E+02  0.14801195346E+02  0.15243978996E+02  0.59301926326E+02  0.49999967715E+02 0.  0.
         12    1    1    2    0    0 -0.23775353101E+02 -0.14801195346E+02 -0.15243978996E+02  0.31886073674E+02  0.00000000000E+00 0. -1.
         11    1    3    3    0    0 -0.76841028258E+01  0.14269337563E+02  0.20129507901E+02  0.25842920101E+02  0.51100000000E-03 0. -1.
        -11    1    3    3    0    0  0.14578070248E+02  0.20492033374E+01  0.25669737442E+01  0.14943517689E+02  0.51100000000E-03 0.  1.
         12    1    3    3    0    0  0.16881385679E+02 -0.15173455543E+01 -0.74525026494E+01  0.18515488536E+02  0.00000000000E+00 0. -1.
</event>
<event>
 7    1  0.4346085E-013  0.5930196E+02  0.7816164E-02  0.1266605E+00
        -11   -1    0    0    0    0  0.00000000000E+00  0.00000000000E+00  0.45593999997E+02  0.45594000000E+02  0.51100000000E-03 0. -1.
         11   -1    0    0    0    0 -0.00000000000E+00 -0.00000000000E+00 -0.45593999997E+02  0.45594000000E+02  0.51100000000E-03 0.  1.
    9900012    2    1    2    0    0  0.12160088401E+02  0.25942851976E+02 -0.13993573280E+02  0.59301962119E+02  0.50000032994E+02 0.  0.
         12    1    1    2    0    0 -0.12160088401E+02 -0.25942851976E+02  0.13993573280E+02  0.31886037881E+02  0.00000000000E+00 0. -1.
         11    1    3    3    0    0 -0.15747165460E+01 -0.10999124427E+02  0.66102382786E+01  0.12928871595E+02  0.51100000000E-03 0. -1.
        -11    1    3    3    0    0 -0.18038074064E+01  0.46354707122E+01 -0.56570987929E+01  0.75328664462E+01  0.51100000000E-03 0.  1.
         12    1    3    3    0    0  0.15538612354E+02  0.32306505691E+02 -0.14946712766E+02  0.38840224077E+02  0.00000000000E+00 0. -1.
</event>
<event>
 7    1  0.4346085E-013  0.5930216E+02  0.7816164E-02  0.1266604E+00
        -11   -1    0    0    0    0  0.00000000000E+00  0.00000000000E+00  0.45593999997E+02  0.45594000000E+02  0.51100000000E-03 0. -1.
         11   -1    0    0    0    0 -0.00000000000E+00 -0.00000000000E+00 -0.45593999997E+02  0.45594000000E+02  0.51100000000E-03 0.  1.
    9900012    2    1    2    0    0  0.11208412200E+02 -0.23566022876E+02 -0.18322682268E+02  0.59302162647E+02  0.50000398707E+02 0.  0.
         12    1    1    2    0    0 -0.11208412200E+02  0.23566022876E+02  0.18322682268E+02  0.31885837353E+02  0.00000000000E+00 0. -1.
         11    1    3    3    0    0 -0.12966057135E+02  0.28712157379E+00  0.15343299640E+01  0.13059680131E+02  0.51100000000E-03 0.  1.
        -11    1    3    3    0    0  0.10891833152E+02 -0.26746006853E+01 -0.17956399440E+02  0.21171154890E+02  0.51100000000E-03 0. -1.
         12    1    3    3    0    0  0.13282636183E+02 -0.21178543764E+02 -0.19006127919E+01  0.25071327626E+02  0.00000000000E+00 0. -1.
</event>
<event>
 7    1  0.4346085E-013  0.5930192E+02  0.7816164E-02  0.1266605E+00
        -11   -1    0    0    0    0  0.00000000000E+00  0.00000000000E+00  0.45593999997E+02  0.45594000000E+02  0.51100000000E-03 0.  1.
         11   -1    0    0    0    0 -0.00000000000E+00 -0.00000000000E+00 -0.45593999997E+02  0.45594000000E+02  0.51100000000E-03 0. -1.
    9900012    2    1    2    0    0  0.22003513863E+02  0.56965874389E+01  0.22363278067E+02  0.59301922526E+02  0.49999960786E+02 0.  0.
         12    1    1    2    0    0 -0.22003513863E+02 -0.56965874389E+01 -0.22363278067E+02  0.31886077474E+02  0.00000000000E+00 0. -1.
         11    1    3    3    0    0 -0.39703598291E+01  0.10265962201E+02 -0.72870026157E+01  0.13200535764E+02  0.51100000000E-03 0. -1.
        -11    1    3    3    0    0  0.21487231623E+02  0.30844816379E+01  0.30223176670E+02  0.37210960187E+02  0.51100000000E-03 0.  1.
         12    1    3    3    0    0  0.44866420698E+01 -0.76538564000E+01 -0.57289598734E+00  0.88904265740E+01  0.00000000000E+00 0. -1.
</event>
<event>
 7    1  0.4346085E-013  0.5930197E+02  0.7816164E-02  0.1266605E+00
        -11   -1    0    0    0    0  0.00000000000E+00  0.00000000000E+00  0.45593999997E+02  0.45594000000E+02  0.51100000000E-03 0. -1.
         11   -1    0    0    0    0 -0.00000000000E+00 -0.00000000000E+00 -0.45593999997E+02  0.45594000000E+02  0.51100000000E-03 0.  1.
    9900012    2    1    2    0    0  0.14153788939E+02  0.28301411348E+02  0.39267711513E+01  0.59301966109E+02  0.50000040271E+02 0.  0.
         12    1    1    2    0    0 -0.14153788939E+02 -0.28301411348E+02 -0.39267711513E+01  0.31886033891E+02  0.00000000000E+00 0. -1.
         11    1    3    3    0    0  0.52260709780E+01  0.20780359064E+02  0.15406119302E+01  0.21482751827E+02  0.51100000000E-03 0. -1.
        -11    1    3    3    0    0 -0.10248356008E+02 -0.20483300294E+01 -0.87835557705E+01  0.13651934259E+02  0.51100000000E-03 0.  1.
        -12    1    3    3    0    0  0.19176073969E+02  0.95693823136E+01  0.11169714992E+02  0.24167280023E+02  0.00000000000E+00 0.  1.
</event>
<event>
 7    1  0.4346085E-013  0.5930194E+02  0.7816164E-02  0.1266605E+00
        -11   -1    0    0    0    0  0.00000000000E+00  0.00000000000E+00  0.45593999997E+02  0.45594000000E+02  0.51100000000E-03 0.  1.
         11   -1    0    0    0    0 -0.00000000000E+00 -0.00000000000E+00 -0.45593999997E+02  0.45594000000E+02  0.51100000000E-03 0. -1.
    9900012    2    1    2    0    0  0.17517878810E+02  0.21991841635E+02 -0.15040064989E+02  0.59301941426E+02  0.49999995255E+02 0.  0.
         12    1    1    2    0    0 -0.17517878810E+02 -0.21991841635E+02  0.15040064989E+02  0.31886058574E+02  0.00000000000E+00 0. -1.
         11    1    3    3    0    0  0.27569151468E+02  0.20069947037E+02 -0.19301900904E+02  0.39184490114E+02  0.51100000000E-03 0. -1.
        -11    1    3    3    0    0 -0.13468679332E+02  0.56369690760E+01  0.28545551963E+01  0.14877137794E+02  0.51100000000E-03 0.  1.
        -12    1    3    3    0    0  0.34174066734E+01 -0.37150744779E+01  0.14072807186E+01  0.52403135181E+01  0.00000000000E+00 0.  1.
</event>
<event>
 7    1  0.4346085E-013  0.5930215E+02  0.7816164E-02  0.1266604E+00
        -11   -1    0    0    0    0  0.00000000000E+00  0.00000000000E+00  0.45593999997E+02  0.45594000000E+02  0.51100000000E-03 0. -1.
         11   -1    0    0    0    0 -0.00000000000E+00 -0.00000000000E+00 -0.45593999997E+02  0.45594000000E+02  0.51100000000E-03 0.  1.
    9900012    2    1    2    0    0  0.15097660730E+02 -0.12520924048E+02 -0.25139496272E+02  0.59302154060E+02  0.50000383047E+02 0.  0.
         12    1    1    2    0    0 -0.15097660730E+02  0.12520924048E+02  0.25139496272E+02  0.31885845940E+02  0.00000000000E+00 0. -1.
         11    1    3    3    0    0  0.18581329430E+02 -0.14009494439E+02 -0.37122473316E+01  0.23565069877E+02  0.51100000000E-03 0. -1.
        -11    1    3    3    0    0 -0.12795374154E+02 -0.78559644524E+01 -0.14337952802E+02  0.20760892756E+02  0.51100000000E-03 0.  1.
         12    1    3    3    0    0  0.93117054537E+01  0.93445348434E+01 -0.70892961389E+01  0.14976191426E+02  0.00000000000E+00 0. -1.
</event>
<event>
 7    1  0.4346085E-013  0.5930197E+02  0.7816164E-02  0.1266605E+00
        -11   -1    0    0    0    0  0.00000000000E+00  0.00000000000E+00  0.45593999997E+02  0.45594000000E+02  0.51100000000E-03 0.  1.
         11   -1    0    0    0    0 -0.00000000000E+00 -0.00000000000E+00 -0.45593999997E+02  0.45594000000E+02  0.51100000000E-03 0. -1.
    9900012    2    1    2    0    0  0.31783495028E+02 -0.25305735469E+01  0.35272813914E+00  0.59301972091E+02  0.50000051181E+02 0.  0.
         12    1    1    2    0    0 -0.31783495028E+02  0.25305735469E+01 -0.35272813914E+00  0.31886027909E+02  0.00000000000E+00 0. -1.
         11    1    3    3    0    0  0.36152999655E+01 -0.10835942456E+01 -0.12635273965E+02  0.13186914680E+02  0.51100000000E-03 0. -1.
        -11    1    3    3    0    0  0.32503868105E+02 -0.10539843559E+02  0.10309748111E+02  0.35691464672E+02  0.51100000000E-03 0.  1.
        -12    1    3    3    0    0 -0.43356730432E+01  0.90928642577E+01  0.26782539930E+01  0.10423592739E+02  0.00000000000E+00 0.  1.
</event>
<event>
 7    1  0.4346085E-013  0.5930194E+02  0.7816164E-02  0.1266605E+00
        -11   -1    0    0    0    0  0.00000000000E+00  0.00000000000E+00  0.45593999997E+02  0.45594000000E+02  0.51100000000E-03 0. -1.
         11   -1    0    0    0    0 -0.00000000000E+00 -0.00000000000E+00 -0.45593999997E+02  0.45594000000E+02  0.51100000000E-03 0.  1.
    9900012    2    1    2    0    0 -0.20065880741E+02 -0.99195402193E+01 -0.22708678148E+02  0.59301938605E+02  0.49999990110E+02 0.  0.
         12    1    1    2    0    0  0.20065880741E+02  0.99195402193E+01  0.22708678148E+02  0.31886061395E+02  0.00000000000E+00 0. -1.
         11    1    3    3    0    0  0.31152258820E+01  0.96495279299E+01  0.61801882623E+01  0.11874878896E+02  0.51100000000E-03 0. -1.
        -11    1    3    3    0    0 -0.90695895584E+01 -0.20767404713E+02 -0.22347922454E+02  0.31827224063E+02  0.51100000000E-03 0.  1.
        -12    1    3    3    0    0 -0.14111517064E+02  0.11983365633E+01 -0.65409439558E+01  0.15599835647E+02  0.00000000000E+00 0.  1.
</event>
<event>
 7    1  0.4346085E-013  0.5930194E+02  0.7816164E-02  0.1266605E+00
        -11   -1    0    0    0    0  0.00000000000E+00  0.00000000000E+00  0.45593999997E+02  0.45594000000E+02  0.51100000000E-03 0.  1.
         11   -1    0    0    0    0 -0.00000000000E+00 -0.00000000000E+00 -0.45593999997E+02  0.45594000000E+02  0.51100000000E-03 0. -1.
    9900012    2    1    2    0    0  0.10879862032E+02  0.29272191361E+02 -0.64411129581E+01  0.59301944724E+02  0.50000001271E+02 0.  0.
         12    1    1    2    0    0 -0.10879862032E+02 -0.29272191361E+02  0.64411129581E+01  0.31886055276E+02  0.00000000000E+00 0. -1.
         11    1    3    3    0    0 -0.71880986779E+01 -0.47828640992E+01 -0.52585184809E+01  0.10109231844E+02  0.51100000000E-03 0. -1.
        -11    1    3    3    0    0  0.25177698736E+02  0.33231302385E+02 -0.30260257697E+01  0.41801827760E+02  0.51100000000E-03 0.  1.
        -12    1    3    3    0    0 -0.71097380265E+01  0.82375307483E+00  0.18434312926E+01  0.73908851205E+01  0.00000000000E+00 0.  1.
</event>
<event>
 7    1  0.4346085E-013  0.5930195E+02  0.7816164E-02  0.1266605E+00
        -11   -1    0    0    0    0  0.00000000000E+00  0.00000000000E+00  0.45593999997E+02  0.45594000000E+02  0.51100000000E-03 0. -1.
         11   -1    0    0    0    0 -0.00000000000E+00 -0.00000000000E+00 -0.45593999997E+02  0.45594000000E+02  0.51100000000E-03 0.  1.
    9900012    2    1    2    0    0 -0.29451511234E+02 -0.72202468506E+01 -0.98588382315E+01  0.59301950232E+02  0.50000011315E+02 0.  0.
         12    1    1    2    0    0  0.29451511234E+02  0.72202468506E+01  0.98588382315E+01  0.31886049768E+02  0.00000000000E+00 0. -1.
         11    1    3    3    0    0  0.53103427892E+01  0.20758019577E+01 -0.14908550123E+02  0.15961627779E+02  0.51100000000E-03 0. -1.
        -11    1    3    3    0    0 -0.32845334557E+02 -0.20027883645E+01 -0.20674207540E+01  0.32971220667E+02  0.51100000000E-03 0.  1.
         12    1    3    3    0    0 -0.19165194655E+01 -0.72932604438E+01  0.71171326457E+01  0.10369101786E+02  0.00000000000E+00 0. -1.
</event>
<event>
 7    1  0.4346085E-013  0.5930195E+02  0.7816164E-02  0.1266605E+00
        -11   -1    0    0    0    0  0.00000000000E+00  0.00000000000E+00  0.45593999997E+02  0.45594000000E+02  0.51100000000E-03 0. -1.
         11   -1    0    0    0    0 -0.00000000000E+00 -0.00000000000E+00 -0.45593999997E+02  0.45594000000E+02  0.51100000000E-03 0.  1.
    9900012    2    1    2    0    0  0.26423930996E+02  0.17823954203E+02  0.89609782154E+00  0.59301945618E+02  0.50000002901E+02 0.  0.
         12    1    1    2    0    0 -0.26423930996E+02 -0.17823954203E+02 -0.89609782154E+00  0.31886054382E+02  0.00000000000E+00 0. -1.
         11    1    3    3    0    0  0.73704050894E+01 -0.26963401175E+01  0.36750909226E+01  0.86659918510E+01  0.51100000000E-03 0. -1.
        -11    1    3    3    0    0 -0.41766053268E+01  0.26235397803E+02 -0.28019101588E+01  0.26713120947E+02  0.51100000000E-03 0.  1.
        -12    1    3    3    0    0  0.23230131234E+02 -0.57151034830E+01  0.22917057777E-01  0.23922832820E+02  0.00000000000E+00 0.  1.
</event>
<event>
 7    1  0.4346085E-013  0.5930194E+02  0.7816164E-02  0.1266605E+00
        -11   -1    0    0    0    0  0.00000000000E+00  0.00000000000E+00  0.45593999997E+02  0.45594000000E+02  0.51100000000E-03 0. -1.
         11   -1    0    0    0    0 -0.00000000000E+00 -0.00000000000E+00 -0.45593999997E+02  0.45594000000E+02  0.51100000000E-03 0.  1.
    9900012    2    1    2    0    0  0.31583156521E+02 -0.31932139275E+01 -0.30046875347E+01  0.59301944455E+02  0.50000000779E+02 0.  0.
         12    1    1    2    0    0 -0.31583156521E+02  0.31932139275E+01  0.30046875347E+01  0.31886055545E+02  0.00000000000E+00 0. -1.
         11    1    3    3    0    0 -0.46325288162E+01 -0.28862124162E+01  0.74663339920E+01  0.92486046994E+01  0.51100000000E-03 0. -1.
        -11    1    3    3    0    0  0.30994475352E+02  0.13569965681E+02 -0.47752251758E+01  0.34170224563E+02  0.51100000000E-03 0.  1.
        -12    1    3    3    0    0  0.52212099855E+01 -0.13876967192E+02 -0.56957963508E+01  0.15883115193E+02  0.00000000000E+00 0.  1.
</event>
<event>
 7    1  0.4346085E-013  0.5930196E+02  0.7816164E-02  0.1266605E+00
        -11   -1    0    0    0    0  0.00000000000E+00  0.00000000000E+00  0.45593999997E+02  0.45594000000E+02  0.51100000000E-03 0. -1.
         11   -1    0    0    0    0 -0.00000000000E+00 -0.00000000000E+00 -0.45593999997E+02  0.45594000000E+02  0.51100000000E-03 0.  1.
    9900012    2    1    2    0    0  0.31318315949E+02  0.18141819031E+01 -0.57088642908E+01  0.59301963851E+02  0.50000036152E+02 0.  0.
         12    1    1    2    0    0 -0.31318315949E+02 -0.18141819031E+01  0.57088642908E+01  0.31886036149E+02  0.00000000000E+00 0. -1.
         11    1    3    3    0    0  0.42832003187E+01  0.25040362986E+01  0.10198927822E+02  0.11341698803E+02  0.51100000000E-03 0. -1.
        -11    1    3    3    0    0  0.11706364280E+02  0.15440267011E+02 -0.16864674082E+02  0.25687702158E+02  0.51100000000E-03 0.  1.
        -12    1    3    3    0    0  0.15328751350E+02 -0.16130121407E+02  0.95688196840E+00  0.22272562889E+02  0.00000000000E+00 0.  1.
</event>
<event>
 7    1  0.4346085E-013  0.5930196E+02  0.7816164E-02  0.1266605E+00
        -11   -1    0    0    0    0  0.00000000000E+00  0.00000000000E+00  0.45593999997E+02  0.45594000000E+02  0.51100000000E-03 0. -1.
         11   -1    0    0    0    0 -0.00000000000E+00 -0.00000000000E+00 -0.45593999997E+02  0.45594000000E+02  0.51100000000E-03 0.  1.
    9900012    2    1    2    0    0  0.15511918807E+02  0.26052180794E+02 -0.98683185647E+01  0.59301961355E+02  0.50000031601E+02 0.  0.
         12    1    1    2    0    0 -0.15511918807E+02 -0.26052180794E+02  0.98683185647E+01  0.31886038645E+02  0.00000000000E+00 0. -1.
         11    1    3    3    0    0 -0.10196825794E+02 -0.19073240921E+00  0.72289151404E+01  0.12500753957E+02  0.51100000000E-03 0. -1.
        -11    1    3    3    0    0  0.26730210843E+02  0.26516820297E+02 -0.91018080305E+01  0.38736143846E+02  0.51100000000E-03 0.  1.
         12    1    3    3    0    0 -0.10214662425E+01 -0.27390709436E+00 -0.79954256745E+01  0.80650635520E+01  0.00000000000E+00 0. -1.
</event>
<event>
 7    1  0.4346085E-013  0.5930196E+02  0.7816164E-02  0.1266605E+00
        -11   -1    0    0    0    0  0.00000000000E+00  0.00000000000E+00  0.45593999997E+02  0.45594000000E+02  0.51100000000E-03 0. -1.
         11   -1    0    0    0    0 -0.00000000000E+00 -0.00000000000E+00 -0.45593999997E+02  0.45594000000E+02  0.51100000000E-03 0.  1.
    9900012    2    1    2    0    0  0.65173508199E+01  0.24014783667E+02 -0.19938254197E+02  0.59301957964E+02  0.50000025417E+02 0.  0.
         12    1    1    2    0    0 -0.65173508199E+01 -0.24014783667E+02  0.19938254197E+02  0.31886042036E+02  0.00000000000E+00 0. -1.
         11    1    3    3    0    0  0.94902456216E+01 -0.73152289956E+01  0.60498635324E+01  0.13423046831E+02  0.51100000000E-03 0. -1.
        -11    1    3    3    0    0 -0.96363188685E+01  0.29263258720E+02 -0.20558680033E+02  0.37038578229E+02  0.51100000000E-03 0.  1.
        -12    1    3    3    0    0  0.66634240668E+01  0.20667539429E+01 -0.54294376966E+01  0.88403329042E+01  0.00000000000E+00 0.  1.
</event>
<event>
 7    1  0.4346085E-013  0.5930198E+02  0.7816164E-02  0.1266605E+00
        -11   -1    0    0    0    0  0.00000000000E+00  0.00000000000E+00  0.45593999997E+02  0.45594000000E+02  0.51100000000E-03 0.  1.
         11   -1    0    0    0    0 -0.00000000000E+00 -0.00000000000E+00 -0.45593999997E+02  0.45594000000E+02  0.51100000000E-03 0. -1.
    9900012    2    1    2    0    0  0.16819156697E+02 -0.52760847366E+01  0.26570609184E+02  0.59301978383E+02  0.50000062656E+02 0.  0.
         12    1    1    2    0    0 -0.16819156697E+02  0.52760847366E+01 -0.26570609184E+02  0.31886021617E+02  0.00000000000E+00 0. -1.
         11    1    3    3    0    0 -0.63500900883E+01  0.13469041541E+02  0.77192579399E+01  0.16772765650E+02  0.51100000000E-03 0. -1.
        -11    1    3    3    0    0  0.16218104443E+02 -0.19169795793E+02  0.30918325102E+01  0.25299553573E+02  0.51100000000E-03 0.  1.
        -12    1    3    3    0    0  0.69511423422E+01  0.42466951527E+00  0.15759518734E+02  0.17229659160E+02  0.00000000000E+00 0.  1.
</event>
<event>
 7    1  0.4346085E-013  0.5930194E+02  0.7816164E-02  0.1266605E+00
        -11   -1    0    0    0    0  0.00000000000E+00  0.00000000000E+00  0.45593999997E+02  0.45594000000E+02  0.51100000000E-03 0.  1.
         11   -1    0    0    0    0 -0.00000000000E+00 -0.00000000000E+00 -0.45593999997E+02  0.45594000000E+02  0.51100000000E-03 0. -1.
    9900012    2    1    2    0    0 -0.16346519189E+02 -0.14481300159E+01  0.27338891320E+02  0.59301941154E+02  0.49999994758E+02 0.  0.
         12    1    1    2    0    0  0.16346519189E+02  0.14481300159E+01 -0.27338891320E+02  0.31886058846E+02  0.00000000000E+00 0. -1.
         11    1    3    3    0    0  0.29122226503E+01 -0.88640887327E+00 -0.49148388670E+01  0.57812111884E+01  0.51100000000E-03 0. -1.
        -11    1    3    3    0    0 -0.16062920411E+02  0.25970279116E+01  0.40767036411E+02  0.43894341595E+02  0.51100000000E-03 0.  1.
        -12    1    3    3    0    0 -0.31958214286E+01 -0.31587490542E+01 -0.85133062237E+01  0.96263883699E+01  0.00000000000E+00 0.  1.
</event>
<event>
 7    1  0.4346085E-013  0.5930191E+02  0.7816164E-02  0.1266605E+00
        -11   -1    0    0    0    0  0.00000000000E+00  0.00000000000E+00  0.45593999997E+02  0.45594000000E+02  0.51100000000E-03 0. -1.
         11   -1    0    0    0    0 -0.00000000000E+00 -0.00000000000E+00 -0.45593999997E+02  0.45594000000E+02  0.51100000000E-03 0.  1.
    9900012    2    1    2    0    0 -0.11947507422E+02  0.28732210689E+02 -0.69598544073E+01  0.59301914664E+02  0.49999946448E+02 0.  0.
         12    1    1    2    0    0  0.11947507422E+02 -0.28732210689E+02  0.69598544073E+01  0.31886085336E+02  0.00000000000E+00 0. -1.
         11    1    3    3    0    0  0.55736514901E+01  0.89864312537E+01  0.61586142765E+00  0.10592488998E+02  0.51100000000E-03 0. -1.
        -11    1    3    3    0    0 -0.17363057267E+02 -0.45738330200E+01 -0.14876068680E+02  0.23317228089E+02  0.51100000000E-03 0.  1.
         12    1    3    3    0    0 -0.15810164487E+00  0.24319612456E+02  0.73003528450E+01  0.25392197577E+02  0.00000000000E+00 0. -1.
</event>
<event>
 7    1  0.4346085E-013  0.5930194E+02  0.7816164E-02  0.1266605E+00
        -11   -1    0    0    0    0  0.00000000000E+00  0.00000000000E+00  0.45593999997E+02  0.45594000000E+02  0.51100000000E-03 0.  1.
         11   -1    0    0    0    0 -0.00000000000E+00 -0.00000000000E+00 -0.45593999997E+02  0.45594000000E+02  0.51100000000E-03 0. -1.
    9900012    2    1    2    0    0  0.56566299793E+01 -0.27877895508E+02  0.14406475977E+02  0.59301936104E+02  0.49999985550E+02 0.  0.
         12    1    1    2    0    0 -0.56566299793E+01  0.27877895508E+02 -0.14406475977E+02  0.31886063896E+02  0.00000000000E+00 0. -1.
         11    1    3    3    0    0  0.73755776712E+01  0.11388749873E+02  0.37978301056E+01  0.14089935537E+02  0.51100000000E-03 0. -1.
        -11    1    3    3    0    0 -0.53278015170E+01 -0.52682661266E+01  0.79423108412E+01  0.10918809401E+02  0.51100000000E-03 0.  1.
         12    1    3    3    0    0  0.36088538250E+01 -0.33998379255E+02  0.26663350300E+01  0.34293191166E+02  0.00000000000E+00 0. -1.
</event>
<event>
 7    1  0.4346085E-013  0.5930194E+02  0.7816164E-02  0.1266605E+00
        -11   -1    0    0    0    0  0.00000000000E+00  0.00000000000E+00  0.45593999997E+02  0.45594000000E+02  0.51100000000E-03 0.  1.
         11   -1    0    0    0    0 -0.00000000000E+00 -0.00000000000E+00 -0.45593999997E+02  0.45594000000E+02  0.51100000000E-03 0. -1.
    9900012    2    1    2    0    0  0.14264132148E+02  0.36507790524E-01  0.28517610234E+02  0.59301938904E+02  0.49999990656E+02 0.  0.
         12    1    1    2    0    0 -0.14264132148E+02 -0.36507790524E-01 -0.28517610234E+02  0.31886061096E+02  0.00000000000E+00 0. -1.
         11    1    3    3    0    0  0.72279468530E+01 -0.10652868371E+02  0.80173319477E+00  0.12898433882E+02  0.51100000000E-03 0. -1.
        -11    1    3    3    0    0  0.37054299486E+01  0.16469510521E+02  0.33539376507E+02  0.37548165929E+02  0.51100000000E-03 0.  1.
        -12    1    3    3    0    0  0.33307553467E+01 -0.57801343596E+01 -0.58234994681E+01  0.88553390929E+01  0.00000000000E+00 0.  1.
</event>
<event>
 7    1  0.4346085E-013  0.5930178E+02  0.7816164E-02  0.1266605E+00
        -11   -1    0    0    0    0  0.00000000000E+00  0.00000000000E+00  0.45593999997E+02  0.45594000000E+02  0.51100000000E-03 0. -1.
         11   -1    0    0    0    0 -0.00000000000E+00 -0.00000000000E+00 -0.45593999997E+02  0.45594000000E+02  0.51100000000E-03 0.  1.
    9900012    2    1    2    0    0 -0.22449564454E+02 -0.63863246726E+01 -0.21724703715E+02  0.59301782938E+02  0.49999706211E+02 0.  0.
         12    1    1    2    0    0  0.22449564454E+02  0.63863246726E+01  0.21724703715E+02  0.31886217062E+02  0.00000000000E+00 0. -1.
         11    1    3    3    0    0  0.38309837574E+01  0.71568377695E+01  0.79255248494E+01  0.11345074165E+02  0.51100000000E-03 0. -1.
        -11    1    3    3    0    0 -0.16922905479E+02  0.26221172067E+01 -0.67551863505E+01  0.18409040479E+02  0.51100000000E-03 0.  1.
         12    1    3    3    0    0 -0.93576427329E+01 -0.16165279649E+02 -0.22895042214E+02  0.29547668294E+02  0.00000000000E+00 0. -1.
</event>
<event>
 7    1  0.4346085E-013  0.5930193E+02  0.7816164E-02  0.1266605E+00
        -11   -1    0    0    0    0  0.00000000000E+00  0.00000000000E+00  0.45593999997E+02  0.45594000000E+02  0.51100000000E-03 0. -1.
         11   -1    0    0    0    0 -0.00000000000E+00 -0.00000000000E+00 -0.45593999997E+02  0.45594000000E+02  0.51100000000E-03 0.  1.
    9900012    2    1    2    0    0 -0.74610162638E+01 -0.29811097602E+02  0.85060589460E+01  0.59301931840E+02  0.49999977773E+02 0.  0.
         12    1    1    2    0    0  0.74610162638E+01  0.29811097602E+02 -0.85060589460E+01  0.31886068160E+02  0.00000000000E+00 0. -1.
         11    1    3    3    0    0 -0.17369335509E+02 -0.25892132689E+02 -0.12891706405E+02  0.33738589856E+02  0.51100000000E-03 0. -1.
        -11    1    3    3    0    0  0.81152469984E+01 -0.57156913536E+01  0.20658638851E+02  0.22919548881E+02  0.51100000000E-03 0.  1.
         12    1    3    3    0    0  0.17930722468E+01  0.17967264406E+01  0.73912649986E+00  0.26437931022E+01  0.00000000000E+00 0. -1.
</event>
<event>
 7    1  0.4346085E-013  0.5930194E+02  0.7816164E-02  0.1266605E+00
        -11   -1    0    0    0    0  0.00000000000E+00  0.00000000000E+00  0.45593999997E+02  0.45594000000E+02  0.51100000000E-03 0. -1.
         11   -1    0    0    0    0 -0.00000000000E+00 -0.00000000000E+00 -0.45593999997E+02  0.45594000000E+02  0.51100000000E-03 0.  1.
    9900012    2    1    2    0    0  0.81523119847E+01  0.17475612013E+02 -0.25394169279E+02  0.59301936597E+02  0.49999986449E+02 0.  0.
         12    1    1    2    0    0 -0.81523119847E+01 -0.17475612013E+02  0.25394169279E+02  0.31886063403E+02  0.00000000000E+00 0. -1.
         11    1    3    3    0    0 -0.13967513222E+02  0.14365899983E+02 -0.21266352749E+02  0.29218628774E+02  0.51100000000E-03 0.  1.
        -11    1    3    3    0    0  0.14331138151E+02 -0.27765600867E+00  0.71072475977E+01  0.15999111920E+02  0.51100000000E-03 0. -1.
        -12    1    3    3    0    0  0.77886870554E+01  0.33873680390E+01 -0.11235064128E+02  0.14084195903E+02  0.00000000000E+00 0.  1.
</event>
<event>
 7    1  0.4346085E-013  0.5930194E+02  0.7816164E-02  0.1266605E+00
        -11   -1    0    0    0    0  0.00000000000E+00  0.00000000000E+00  0.45593999997E+02  0.45594000000E+02  0.51100000000E-03 0.  1.
         11   -1    0    0    0    0 -0.00000000000E+00 -0.00000000000E+00 -0.45593999997E+02  0.45594000000E+02  0.51100000000E-03 0. -1.
    9900012    2    1    2    0    0 -0.34056134993E+01  0.27460721568E+02  0.15843967747E+02  0.59301941192E+02  0.49999994829E+02 0.  0.
         12    1    1    2    0    0  0.34056134993E+01 -0.27460721568E+02 -0.15843967747E+02  0.31886058808E+02  0.00000000000E+00 0. -1.
         11    1    3    3    0    0 -0.15548284090E+01 -0.12152079629E+02  0.10330025140E+02  0.16024978950E+02  0.51100000000E-03 0. -1.
        -11    1    3    3    0    0 -0.47652466704E+01  0.37304340031E+02  0.12618116398E+01  0.37628626468E+02  0.51100000000E-03 0.  1.
        -12    1    3    3    0    0  0.29144615801E+01  0.23084611655E+01  0.42521309673E+01  0.56483357741E+01  0.00000000000E+00 0.  1.
</event>
<event>
 7    1  0.4346085E-013  0.5930195E+02  0.7816164E-02  0.1266605E+00
        -11   -1    0    0    0    0  0.00000000000E+00  0.00000000000E+00  0.45593999997E+02  0.45594000000E+02  0.51100000000E-03 0. -1.
         11   -1    0    0    0    0 -0.00000000000E+00 -0.00000000000E+00 -0.45593999997E+02  0.45594000000E+02  0.51100000000E-03 0.  1.
    9900012    2    1    2    0    0 -0.89696954699E+01  0.23847025202E+02 -0.19172484358E+02  0.59301949691E+02  0.50000010329E+02 0.  0.
         12    1    1    2    0    0  0.89696954699E+01 -0.23847025202E+02  0.19172484358E+02  0.31886050309E+02  0.00000000000E+00 0. -1.
         11    1    3    3    0    0  0.14790738912E+02  0.12635789896E+01  0.12518437889E+01  0.14897305211E+02  0.51100000000E-03 0. -1.
        -11    1    3    3    0    0 -0.36266073381E+01  0.48311143300E+01 -0.16125880888E+02  0.17220220124E+02  0.51100000000E-03 0.  1.
         12    1    3    3    0    0 -0.20133827044E+02  0.17752331883E+02 -0.42984472592E+01  0.27184424356E+02  0.00000000000E+00 0. -1.
</event>
<event>
 7    1  0.4346085E-013  0.5930194E+02  0.7816164E-02  0.1266605E+00
        -11   -1    0    0    0    0  0.00000000000E+00  0.00000000000E+00  0.45593999997E+02  0.45594000000E+02  0.51100000000E-03 0.  1.
         11   -1    0    0    0    0 -0.00000000000E+00 -0.00000000000E+00 -0.45593999997E+02  0.45594000000E+02  0.51100000000E-03 0. -1.
    9900012    2    1    2    0    0  0.84602799459E+00  0.29990710618E+02 -0.10796404647E+02  0.59301939722E+02  0.49999992148E+02 0.  0.
         12    1    1    2    0    0 -0.84602799459E+00 -0.29990710618E+02  0.10796404647E+02  0.31886060278E+02  0.00000000000E+00 0. -1.
         11    1    3    3    0    0  0.55904361381E+01  0.12031701742E+02 -0.14090709744E+02  0.19353628197E+02  0.51100000000E-03 0. -1.
        -11    1    3    3    0    0 -0.14970048980E+02 -0.33147415177E+01  0.53882895029E+01  0.16251878101E+02  0.51100000000E-03 0.  1.
        -12    1    3    3    0    0  0.10225640836E+02  0.21273750393E+02 -0.20939844054E+01  0.23696433424E+02  0.00000000000E+00 0.  1.
</event>
<event>
 7    1  0.4346085E-013  0.5930192E+02  0.7816164E-02  0.1266605E+00
        -11   -1    0    0    0    0  0.00000000000E+00  0.00000000000E+00  0.45593999997E+02  0.45594000000E+02  0.51100000000E-03 0. -1.
         11   -1    0    0    0    0 -0.00000000000E+00 -0.00000000000E+00 -0.45593999997E+02  0.45594000000E+02  0.51100000000E-03 0.  1.
    9900012    2    1    2    0    0 -0.15789492474E+02 -0.12156311534E+02 -0.24892528716E+02  0.59301922026E+02  0.49999959874E+02 0.  0.
         12    1    1    2    0    0  0.15789492474E+02  0.12156311534E+02  0.24892528716E+02  0.31886077974E+02  0.00000000000E+00 0. -1.
         11    1    3    3    0    0 -0.95715494056E+01  0.10890052753E+02 -0.66564475410E+01  0.15953560766E+02  0.51100000000E-03 0. -1.
        -11    1    3    3    0    0 -0.87083706349E+01 -0.27092923167E+02 -0.44974423139E+01  0.28811268498E+02  0.51100000000E-03 0.  1.
        -12    1    3    3    0    0  0.24904275665E+01  0.40465588796E+01 -0.13738638861E+02  0.14537092762E+02  0.00000000000E+00 0.  1.
</event>
<event>
 7    1  0.4346085E-013  0.5930195E+02  0.7816164E-02  0.1266605E+00
        -11   -1    0    0    0    0  0.00000000000E+00  0.00000000000E+00  0.45593999997E+02  0.45594000000E+02  0.51100000000E-03 0. -1.
         11   -1    0    0    0    0 -0.00000000000E+00 -0.00000000000E+00 -0.45593999997E+02  0.45594000000E+02  0.51100000000E-03 0.  1.
    9900012    2    1    2    0    0  0.16755048602E+02 -0.18411714138E+02 -0.19924791999E+02  0.59301949643E+02  0.50000010242E+02 0.  0.
         12    1    1    2    0    0 -0.16755048602E+02  0.18411714138E+02  0.19924791999E+02  0.31886050357E+02  0.00000000000E+00 0. -1.
         11    1    3    3    0    0  0.10206189309E+02  0.83889308049E+01 -0.67090432517E+00  0.13228400248E+02  0.51100000000E-03 0. -1.
        -11    1    3    3    0    0 -0.69706824176E+01 -0.14615346436E+02 -0.22362528511E+02  0.27609444878E+02  0.51100000000E-03 0.  1.
        -12    1    3    3    0    0  0.13519541711E+02 -0.12185298507E+02  0.31086408369E+01  0.18464104517E+02  0.00000000000E+00 0.  1.
</event>
<event>
 7    1  0.4346085E-013  0.5930198E+02  0.7816164E-02  0.1266605E+00
        -11   -1    0    0    0    0  0.00000000000E+00  0.00000000000E+00  0.45593999997E+02  0.45594000000E+02  0.51100000000E-03 0. -1.
         11   -1    0    0    0    0 -0.00000000000E+00 -0.00000000000E+00 -0.45593999997E+02  0.45594000000E+02  0.51100000000E-03 0.  1.
    9900012    2    1    2    0    0  0.68152417358E+01 -0.30498556119E+02  0.63331337894E+01  0.59301983804E+02  0.50000072542E+02 0.  0.
         12    1    1    2    0    0 -0.68152417358E+01  0.30498556119E+02 -0.63331337894E+01  0.31886016196E+02  0.00000000000E+00 0. -1.
         11    1    3    3    0    0 -0.12310760415E+02 -0.18553898399E+02 -0.91423069440E+01  0.24070391445E+02  0.51100000000E-03 0. -1.
        -11    1    3    3    0    0  0.15830811387E+02 -0.10690337603E+02 -0.26191978690E+00  0.19104096667E+02  0.51100000000E-03 0.  1.
         12    1    3    3    0    0  0.32951907638E+01 -0.12543201164E+01  0.15737360520E+02  0.16127495691E+02  0.00000000000E+00 0. -1.
</event>
<event>
 7    1  0.4346085E-013  0.5930186E+02  0.7816164E-02  0.1266605E+00
        -11   -1    0    0    0    0  0.00000000000E+00  0.00000000000E+00  0.45593999997E+02  0.45594000000E+02  0.51100000000E-03 0. -1.
         11   -1    0    0    0    0 -0.00000000000E+00 -0.00000000000E+00 -0.45593999997E+02  0.45594000000E+02  0.51100000000E-03 0.  1.
    9900012    2    1    2    0    0 -0.45809432734E+01  0.16291233623E+02 -0.27024739848E+02  0.59301860408E+02  0.49999847498E+02 0.  0.
         12    1    1    2    0    0  0.45809432734E+01 -0.16291233623E+02  0.27024739848E+02  0.31886139592E+02  0.00000000000E+00 0. -1.
         11    1    3    3    0    0  0.17374697531E+02  0.17326821492E+02 -0.25985303504E+02  0.35739821709E+02  0.51100000000E-03 0. -1.
        -11    1    3    3    0    0 -0.19631045951E+02 -0.36025319744E+01 -0.44663216226E-01  0.19958912717E+02  0.51100000000E-03 0.  1.
         12    1    3    3    0    0 -0.23245948534E+01  0.25669441047E+01 -0.99477312792E+00  0.36031259824E+01  0.00000000000E+00 0. -1.
</event>
<event>
 7    1  0.4346085E-013  0.5930200E+02  0.7816164E-02  0.1266605E+00
        -11   -1    0    0    0    0  0.00000000000E+00  0.00000000000E+00  0.45593999997E+02  0.45594000000E+02  0.51100000000E-03 0.  1.
         11   -1    0    0    0    0 -0.00000000000E+00 -0.00000000000E+00 -0.45593999997E+02  0.45594000000E+02  0.51100000000E-03 0. -1.
    9900012    2    1    2    0    0  0.16675353117E+02  0.35322194708E+01  0.26947595535E+02  0.59302001802E+02  0.50000105365E+02 0.  0.
         12    1    1    2    0    0 -0.16675353117E+02 -0.35322194708E+01 -0.26947595535E+02  0.31885998198E+02  0.00000000000E+00 0. -1.
         11    1    3    3    0    0  0.10862348049E+02  0.95752145956E+01  0.67987935021E+01  0.15996841345E+02  0.51100000000E-03 0. -1.
        -11    1    3    3    0    0 -0.15009788209E+02  0.24295620853E+01  0.12082868805E+02  0.19421437455E+02  0.51100000000E-03 0.  1.
        -12    1    3    3    0    0  0.20822793277E+02 -0.84725572102E+01  0.80659332286E+01  0.23883723001E+02  0.00000000000E+00 0.  1.
</event>
<event>
 7    1  0.4346085E-013  0.5930190E+02  0.7816164E-02  0.1266605E+00
        -11   -1    0    0    0    0  0.00000000000E+00  0.00000000000E+00  0.45593999997E+02  0.45594000000E+02  0.51100000000E-03 0. -1.
         11   -1    0    0    0    0 -0.00000000000E+00 -0.00000000000E+00 -0.45593999997E+02  0.45594000000E+02  0.51100000000E-03 0.  1.
    9900012    2    1    2    0    0  0.42231337697E+01  0.11987540527E+02 -0.29243584160E+02  0.59301902696E+02  0.49999924621E+02 0.  0.
         12    1    1    2    0    0 -0.42231337697E+01 -0.11987540527E+02  0.29243584160E+02  0.31886097304E+02  0.00000000000E+00 0. -1.
         11    1    3    3    0    0  0.73070058675E+01 -0.98387655771E+01  0.35852870622E+01  0.12769022140E+02  0.51100000000E-03 0. -1.
        -11    1    3    3    0    0 -0.11882706930E+02  0.37963667722E+01 -0.16381255596E+02  0.20590207862E+02  0.51100000000E-03 0.  1.
        -12    1    3    3    0    0  0.87988348318E+01  0.18029939332E+02 -0.16447615626E+02  0.25942672694E+02  0.00000000000E+00 0.  1.
</event>
<event>
 7    1  0.4346085E-013  0.5930200E+02  0.7816164E-02  0.1266605E+00
        -11   -1    0    0    0    0  0.00000000000E+00  0.00000000000E+00  0.45593999997E+02  0.45594000000E+02  0.51100000000E-03 0.  1.
         11   -1    0    0    0    0 -0.00000000000E+00 -0.00000000000E+00 -0.45593999997E+02  0.45594000000E+02  0.51100000000E-03 0. -1.
    9900012    2    1    2    0    0 -0.17167277483E+00  0.35829199638E+01  0.31683598657E+02  0.59301996631E+02  0.50000095936E+02 0.  0.
         12    1    1    2    0    0  0.17167277483E+00 -0.35829199638E+01 -0.31683598657E+02  0.31886003369E+02  0.00000000000E+00 0. -1.
         11    1    3    3    0    0 -0.18840317135E+02 -0.63816969178E+00  0.22417958547E+02  0.29290436596E+02  0.51100000000E-03 0.  1.
        -11    1    3    3    0    0  0.57104038418E+01  0.12074894680E+02  0.35915320051E+01  0.13831518209E+02  0.51100000000E-03 0. -1.
         12    1    3    3    0    0  0.12958240519E+02 -0.78538050243E+01  0.56741081043E+01  0.16180041826E+02  0.00000000000E+00 0. -1.
</event>
<event>
 7    1  0.4346085E-013  0.5930196E+02  0.7816164E-02  0.1266605E+00
        -11   -1    0    0    0    0  0.00000000000E+00  0.00000000000E+00  0.45593999997E+02  0.45594000000E+02  0.51100000000E-03 0.  1.
         11   -1    0    0    0    0 -0.00000000000E+00 -0.00000000000E+00 -0.45593999997E+02  0.45594000000E+02  0.51100000000E-03 0. -1.
    9900012    2    1    2    0    0  0.26226211896E+02 -0.64841960326E+01  0.16936964048E+02  0.59301956976E+02  0.50000023614E+02 0.  0.
         12    1    1    2    0    0 -0.26226211896E+02  0.64841960326E+01 -0.16936964048E+02  0.31886043024E+02  0.00000000000E+00 0. -1.
         11    1    3    3    0    0  0.25235923751E+02  0.16626836564E+01 -0.10784548147E+02  0.27494051056E+02  0.51100000000E-03 0. -1.
        -11    1    3    3    0    0  0.44187525749E+01 -0.44721443183E+00  0.19622645072E+02  0.20118985435E+02  0.51100000000E-03 0.  1.
         12    1    3    3    0    0 -0.34284644299E+01 -0.76996652571E+01  0.80988671222E+01  0.11688920484E+02  0.00000000000E+00 0. -1.
</event>
<event>
 7    1  0.4346085E-013  0.5930191E+02  0.7816164E-02  0.1266605E+00
        -11   -1    0    0    0    0  0.00000000000E+00  0.00000000000E+00  0.45593999997E+02  0.45594000000E+02  0.51100000000E-03 0.  1.
         11   -1    0    0    0    0 -0.00000000000E+00 -0.00000000000E+00 -0.45593999997E+02  0.45594000000E+02  0.51100000000E-03 0. -1.
    9900012    2    1    2    0    0 -0.14596965419E+02  0.32953545867E+00  0.28346826739E+02  0.59301912450E+02  0.49999942410E+02 0.  0.
         12    1    1    2    0    0  0.14596965419E+02 -0.32953545867E+00 -0.28346826739E+02  0.31886087550E+02  0.00000000000E+00 0. -1.
         11    1    3    3    0    0 -0.55572003663E+01 -0.28052324215E+01 -0.10059622918E+02  0.11829954284E+02  0.51100000000E-03 0. -1.
        -11    1    3    3    0    0 -0.42355708394E+01 -0.10974236252E+02  0.10199360441E+02  0.15569228475E+02  0.51100000000E-03 0.  1.
        -12    1    3    3    0    0 -0.48041942134E+01  0.14109004132E+02  0.28207089216E+02  0.31902729691E+02  0.00000000000E+00 0.  1.
</event>
<event>
 7    1  0.4346085E-013  0.5930195E+02  0.7816164E-02  0.1266605E+00
        -11   -1    0    0    0    0  0.00000000000E+00  0.00000000000E+00  0.45593999997E+02  0.45594000000E+02  0.51100000000E-03 0. -1.
         11   -1    0    0    0    0 -0.00000000000E+00 -0.00000000000E+00 -0.45593999997E+02  0.45594000000E+02  0.51100000000E-03 0.  1.
    9900012    2    1    2    0    0  0.17284533360E+02  0.20992864685E+02  0.16651273542E+02  0.59301947066E+02  0.50000005540E+02 0.  0.
         12    1    1    2    0    0 -0.17284533360E+02 -0.20992864685E+02 -0.16651273542E+02  0.31886052934E+02  0.00000000000E+00 0. -1.
         11    1    3    3    0    0  0.20476772913E+02  0.85968469318E+01 -0.79488661132E+01  0.23587888394E+02  0.51100000000E-03 0. -1.
        -11    1    3    3    0    0 -0.10668534115E+02  0.10403814206E+02  0.69501371052E+01  0.16442669377E+02  0.51100000000E-03 0.  1.
         12    1    3    3    0    0  0.74762945613E+01  0.19922035469E+01  0.17650002550E+02  0.19271389295E+02  0.00000000000E+00 0. -1.
</event>
<event>
 7    1  0.4346085E-013  0.5930158E+02  0.7816164E-02  0.1266606E+00
        -11   -1    0    0    0    0  0.00000000000E+00  0.00000000000E+00  0.45593999997E+02  0.45594000000E+02  0.51100000000E-03 0. -1.
         11   -1    0    0    0    0 -0.00000000000E+00 -0.00000000000E+00 -0.45593999997E+02  0.45594000000E+02  0.51100000000E-03 0.  1.
    9900012    2    1    2    0    0  0.98030229538E+01 -0.28229567564E+02 -0.11123664091E+02  0.59301582097E+02  0.49999339921E+02 0.  0.
         12    1    1    2    0    0 -0.98030229538E+01  0.28229567564E+02  0.11123664091E+02  0.31886417903E+02  0.00000000000E+00 0. -1.
         11    1    3    3    0    0 -0.15378654752E+02 -0.89286068205E+00  0.74440999687E+01  0.17108911327E+02  0.51100000000E-03 0. -1.
        -11    1    3    3    0    0  0.13049165387E+02 -0.16314161255E+02 -0.14095928151E+02  0.25201741318E+02  0.51100000000E-03 0.  1.
         12    1    3    3    0    0  0.12132512318E+02 -0.11022545627E+02 -0.44718359077E+01  0.16990929452E+02  0.00000000000E+00 0. -1.
</event>
<event>
 7    1  0.4346085E-013  0.5930196E+02  0.7816164E-02  0.1266605E+00
        -11   -1    0    0    0    0  0.00000000000E+00  0.00000000000E+00  0.45593999997E+02  0.45594000000E+02  0.51100000000E-03 0. -1.
         11   -1    0    0    0    0 -0.00000000000E+00 -0.00000000000E+00 -0.45593999997E+02  0.45594000000E+02  0.51100000000E-03 0.  1.
    9900012    2    1    2    0    0 -0.14016588310E+02 -0.15775854502E+02 -0.23903503442E+02  0.59301955875E+02  0.50000021607E+02 0.  0.
         12    1    1    2    0    0  0.14016588310E+02  0.15775854502E+02  0.23903503442E+02  0.31886044125E+02  0.00000000000E+00 0. -1.
         11    1    3    3    0    0  0.12595900675E+02 -0.67858659012E+01 -0.13954894514E+02  0.19986089438E+02  0.51100000000E-03 0. -1.
        -11    1    3    3    0    0 -0.29246683424E+02 -0.37637163178E+01 -0.13541400579E+02  0.32448475800E+02  0.51100000000E-03 0.  1.
        -12    1    3    3    0    0  0.26341944396E+01 -0.52262722827E+01  0.35927916516E+01  0.68673906376E+01  0.00000000000E+00 0.  1.
</event>
<event>
 7    1  0.4346085E-013  0.5930194E+02  0.7816164E-02  0.1266605E+00
        -11   -1    0    0    0    0  0.00000000000E+00  0.00000000000E+00  0.45593999997E+02  0.45594000000E+02  0.51100000000E-03 0. -1.
         11   -1    0    0    0    0 -0.00000000000E+00 -0.00000000000E+00 -0.45593999997E+02  0.45594000000E+02  0.51100000000E-03 0.  1.
    9900012    2    1    2    0    0 -0.16359347774E+02 -0.22158035592E+02 -0.16065925233E+02  0.59301941064E+02  0.49999994595E+02 0.  0.
         12    1    1    2    0    0  0.16359347774E+02  0.22158035592E+02  0.16065925233E+02  0.31886058936E+02  0.00000000000E+00 0. -1.
         11    1    3    3    0    0 -0.20186566509E+02  0.12686204303E+01 -0.21066650737E+02  0.29204633858E+02  0.51100000000E-03 0. -1.
        -11    1    3    3    0    0  0.86813482122E+01 -0.23193958321E+02  0.35022470225E+01  0.25011822082E+02  0.51100000000E-03 0.  1.
        -12    1    3    3    0    0 -0.48541294764E+01 -0.23269770170E+00  0.14984784813E+01  0.50854851247E+01  0.00000000000E+00 0.  1.
</event>
<event>
 7    1  0.4346085E-013  0.5930193E+02  0.7816164E-02  0.1266605E+00
        -11   -1    0    0    0    0  0.00000000000E+00  0.00000000000E+00  0.45593999997E+02  0.45594000000E+02  0.51100000000E-03 0. -1.
         11   -1    0    0    0    0 -0.00000000000E+00 -0.00000000000E+00 -0.45593999997E+02  0.45594000000E+02  0.51100000000E-03 0.  1.
    9900012    2    1    2    0    0  0.25180843881E+01 -0.30095256745E+02 -0.10230153036E+02  0.59301933158E+02  0.49999980176E+02 0.  0.
         12    1    1    2    0    0 -0.25180843881E+01  0.30095256745E+02  0.10230153036E+02  0.31886066842E+02  0.00000000000E+00 0. -1.
         11    1    3    3    0    0  0.81802543797E+01  0.82944448044E+01 -0.13583109799E+02  0.17894559184E+02  0.51100000000E-03 0. -1.
        -11    1    3    3    0    0 -0.42572596313E+01 -0.22249106717E+02  0.88184946300E+01  0.24308699205E+02  0.51100000000E-03 0.  1.
        -12    1    3    3    0    0 -0.14049103604E+01 -0.16140594832E+02 -0.54655378673E+01  0.17098674769E+02  0.00000000000E+00 0.  1.
</event>
<event>
 7    1  0.4346085E-013  0.5930195E+02  0.7816164E-02  0.1266605E+00
        -11   -1    0    0    0    0  0.00000000000E+00  0.00000000000E+00  0.45593999997E+02  0.45594000000E+02  0.51100000000E-03 0.  1.
         11   -1    0    0    0    0 -0.00000000000E+00 -0.00000000000E+00 -0.45593999997E+02  0.45594000000E+02  0.51100000000E-03 0. -1.
    9900012    2    1    2    0    0  0.70101668975E-01  0.37764665380E+01  0.31661550321E+02  0.59301946897E+02  0.50000005232E+02 0.  0.
         12    1    1    2    0    0 -0.70101668975E-01 -0.37764665380E+01 -0.31661550321E+02  0.31886053103E+02  0.00000000000E+00 0. -1.
         11    1    3    3    0    0  0.69934934946E+01  0.33141670347E+01  0.66472772756E+01  0.10201909127E+02  0.51100000000E-03 0. -1.
        -11    1    3    3    0    0 -0.16675016193E+02  0.15972492485E+02  0.90545699535E+01  0.24802457913E+02  0.51100000000E-03 0.  1.
        -12    1    3    3    0    0  0.97516243672E+01 -0.15510192982E+02  0.15959703092E+02  0.24297579857E+02  0.00000000000E+00 0.  1.
</event>
<event>
 7    1  0.4346085E-013  0.5930195E+02  0.7816164E-02  0.1266605E+00
        -11   -1    0    0    0    0  0.00000000000E+00  0.00000000000E+00  0.45593999997E+02  0.45594000000E+02  0.51100000000E-03 0.  1.
         11   -1    0    0    0    0 -0.00000000000E+00 -0.00000000000E+00 -0.45593999997E+02  0.45594000000E+02  0.51100000000E-03 0. -1.
    9900012    2    1    2    0    0 -0.23784016923E+02  0.18754225602E+01  0.21154756299E+02  0.59301946860E+02  0.50000005166E+02 0.  0.
         12    1    1    2    0    0  0.23784016923E+02 -0.18754225602E+01 -0.21154756299E+02  0.31886053140E+02  0.00000000000E+00 0. -1.
         11    1    3    3    0    0 -0.50369749300E+01  0.19391683640E+01  0.33532480915E+02  0.33964080540E+02  0.51100000000E-03 0.  1.
        -11    1    3    3    0    0 -0.10293642872E+02  0.55686548621E+01 -0.47309618162E+01  0.12623430616E+02  0.51100000000E-03 0. -1.
         12    1    3    3    0    0 -0.84533991203E+01 -0.56324006659E+01 -0.76467627997E+01  0.12714435704E+02  0.00000000000E+00 0. -1.
</event>
<event>
 7    1  0.4346085E-013  0.5930192E+02  0.7816164E-02  0.1266605E+00
        -11   -1    0    0    0    0  0.00000000000E+00  0.00000000000E+00  0.45593999997E+02  0.45594000000E+02  0.51100000000E-03 0.  1.
         11   -1    0    0    0    0 -0.00000000000E+00 -0.00000000000E+00 -0.45593999997E+02  0.45594000000E+02  0.51100000000E-03 0. -1.
    9900012    2    1    2    0    0 -0.59520426178E+01 -0.23630665597E+02  0.20564222020E+02  0.59301915336E+02  0.49999947674E+02 0.  0.
         12    1    1    2    0    0  0.59520426178E+01  0.23630665597E+02 -0.20564222020E+02  0.31886084664E+02  0.00000000000E+00 0. -1.
         11    1    3    3    0    0  0.11129073498E+02  0.83127078243E+01  0.67716022672E+01  0.15453542824E+02  0.51100000000E-03 0.  1.
        -11    1    3    3    0    0 -0.15571531381E+02 -0.34216147324E+02  0.15463519819E+02  0.40648957830E+02  0.51100000000E-03 0. -1.
         12    1    3    3    0    0 -0.15095847344E+01  0.22727739024E+01 -0.16709000656E+01  0.31994146825E+01  0.00000000000E+00 0. -1.
</event>
<event>
 7    1  0.4346085E-013  0.5930192E+02  0.7816164E-02  0.1266605E+00
        -11   -1    0    0    0    0  0.00000000000E+00  0.00000000000E+00  0.45593999997E+02  0.45594000000E+02  0.51100000000E-03 0.  1.
         11   -1    0    0    0    0 -0.00000000000E+00 -0.00000000000E+00 -0.45593999997E+02  0.45594000000E+02  0.51100000000E-03 0. -1.
    9900012    2    1    2    0    0  0.19203657673E+02 -0.13219022869E+02 -0.21753145347E+02  0.59301915792E+02  0.49999948505E+02 0.  0.
         12    1    1    2    0    0 -0.19203657673E+02  0.13219022869E+02  0.21753145347E+02  0.31886084208E+02  0.00000000000E+00 0. -1.
         11    1    3    3    0    0  0.86944918612E+01 -0.39664769629E+01  0.91618377396E+01  0.13238821672E+02  0.51100000000E-03 0. -1.
        -11    1    3    3    0    0  0.21374339246E+02 -0.89777783722E+01 -0.22625120986E+02  0.32393810869E+02  0.51100000000E-03 0.  1.
         12    1    3    3    0    0 -0.10865173435E+02 -0.27476753431E+00 -0.82898621003E+01  0.13669283251E+02  0.00000000000E+00 0. -1.
</event>
<event>
 7    1  0.4346085E-013  0.5930193E+02  0.7816164E-02  0.1266605E+00
        -11   -1    0    0    0    0  0.00000000000E+00  0.00000000000E+00  0.45593999997E+02  0.45594000000E+02  0.51100000000E-03 0. -1.
         11   -1    0    0    0    0 -0.00000000000E+00 -0.00000000000E+00 -0.45593999997E+02  0.45594000000E+02  0.51100000000E-03 0.  1.
    9900012    2    1    2    0    0  0.12796098264E+02 -0.81634769955E+01 -0.28041737974E+02  0.59301928495E+02  0.49999971672E+02 0.  0.
         12    1    1    2    0    0 -0.12796098264E+02  0.81634769955E+01  0.28041737974E+02  0.31886071505E+02  0.00000000000E+00 0. -1.
         11    1    3    3    0    0 -0.69688327325E+01  0.29097011133E+00  0.10578253157E+02  0.12670782666E+02  0.51100000000E-03 0. -1.
        -11    1    3    3    0    0  0.17723925616E+02 -0.40858657391E+01 -0.18509212233E+02  0.25950390668E+02  0.51100000000E-03 0.  1.
         12    1    3    3    0    0  0.20410053806E+01 -0.43685813677E+01 -0.20110778898E+02  0.20680755160E+02  0.00000000000E+00 0. -1.
</event>
<event>
 7    1  0.4346085E-013  0.5930199E+02  0.7816164E-02  0.1266605E+00
        -11   -1    0    0    0    0  0.00000000000E+00  0.00000000000E+00  0.45593999997E+02  0.45594000000E+02  0.51100000000E-03 0.  1.
         11   -1    0    0    0    0 -0.00000000000E+00 -0.00000000000E+00 -0.45593999997E+02  0.45594000000E+02  0.51100000000E-03 0. -1.
    9900012    2    1    2    0    0 -0.23011140258E+02  0.19019420587E+02  0.11201205194E+02  0.59301985303E+02  0.50000075276E+02 0.  0.
         12    1    1    2    0    0  0.23011140258E+02 -0.19019420587E+02 -0.11201205194E+02  0.31886014697E+02  0.00000000000E+00 0. -1.
         11    1    3    3    0    0  0.34390283133E+01  0.10431777909E+02  0.87449095568E+01  0.14040026692E+02  0.51100000000E-03 0. -1.
        -11    1    3    3    0    0 -0.70215985267E+01 -0.16847201710E+01 -0.15358549183E+02  0.16971333513E+02  0.51100000000E-03 0.  1.
        -12    1    3    3    0    0 -0.19428570045E+02  0.10272362849E+02  0.17814844821E+02  0.28290625099E+02  0.00000000000E+00 0.  1.
</event>
<event>
 7    1  0.4346085E-013  0.5930186E+02  0.7816164E-02  0.1266605E+00
        -11   -1    0    0    0    0  0.00000000000E+00  0.00000000000E+00  0.45593999997E+02  0.45594000000E+02  0.51100000000E-03 0.  1.
         11   -1    0    0    0    0 -0.00000000000E+00 -0.00000000000E+00 -0.45593999997E+02  0.45594000000E+02  0.51100000000E-03 0. -1.
    9900012    2    1    2    0    0  0.11784302569E+02  0.24093990518E+02  0.17243418810E+02  0.59301864167E+02  0.49999854352E+02 0.  0.
         12    1    1    2    0    0 -0.11784302569E+02 -0.24093990518E+02 -0.17243418810E+02  0.31886135833E+02  0.00000000000E+00 0. -1.
         11    1    3    3    0    0  0.11872560626E+02  0.82595291727E+00 -0.12098499513E+02  0.16970962989E+02  0.51100000000E-03 0. -1.
        -11    1    3    3    0    0 -0.41692425872E+01  0.88969381150E+01  0.24863978439E+02  0.26734911925E+02  0.51100000000E-03 0.  1.
        -12    1    3    3    0    0  0.40809845305E+01  0.14371099486E+02  0.44779398836E+01  0.15595989253E+02  0.00000000000E+00 0.  1.
</event>
<event>
 7    1  0.4346085E-013  0.5930196E+02  0.7816164E-02  0.1266605E+00
        -11   -1    0    0    0    0  0.00000000000E+00  0.00000000000E+00  0.45593999997E+02  0.45594000000E+02  0.51100000000E-03 0. -1.
         11   -1    0    0    0    0 -0.00000000000E+00 -0.00000000000E+00 -0.45593999997E+02  0.45594000000E+02  0.51100000000E-03 0.  1.
    9900012    2    1    2    0    0  0.16568931621E+02  0.26833776343E+02 -0.47051554962E+01  0.59301960168E+02  0.50000029436E+02 0.  0.
         12    1    1    2    0    0 -0.16568931621E+02 -0.26833776343E+02  0.47051554962E+01  0.31886039832E+02  0.00000000000E+00 0. -1.
         11    1    3    3    0    0 -0.10579494102E+02  0.44761060341E+01  0.51065809322E+01  0.12571332060E+02  0.51100000000E-03 0. -1.
        -11    1    3    3    0    0  0.21303704590E+02  0.23895815846E+02 -0.17865741828E+02  0.36661186227E+02  0.51100000000E-03 0.  1.
         12    1    3    3    0    0  0.58447211331E+01 -0.15381455370E+01  0.80540053999E+01  0.10069441881E+02  0.00000000000E+00 0. -1.
</event>
<event>
 7    1  0.4346085E-013  0.5930189E+02  0.7816164E-02  0.1266605E+00
        -11   -1    0    0    0    0  0.00000000000E+00  0.00000000000E+00  0.45593999997E+02  0.45594000000E+02  0.51100000000E-03 0.  1.
         11   -1    0    0    0    0 -0.00000000000E+00 -0.00000000000E+00 -0.45593999997E+02  0.45594000000E+02  0.51100000000E-03 0. -1.
    9900012    2    1    2    0    0 -0.25125069935E+02 -0.28910817329E+01  0.19418968687E+02  0.59301892717E+02  0.49999906421E+02 0.  0.
         12    1    1    2    0    0  0.25125069935E+02  0.28910817329E+01 -0.19418968687E+02  0.31886107283E+02  0.00000000000E+00 0. -1.
         11    1    3    3    0    0 -0.22482312399E+02  0.21250449781E+02  0.60676140593E+01  0.31525417163E+02  0.51100000000E-03 0. -1.
        -11    1    3    3    0    0 -0.22961700959E+01 -0.12946346238E+02  0.68485943974E+01  0.14825097757E+02  0.51100000000E-03 0.  1.
         12    1    3    3    0    0 -0.34658743984E+00 -0.11195185275E+02  0.65027602302E+01  0.12951377796E+02  0.00000000000E+00 0. -1.
</event>
<event>
 7    1  0.4346085E-013  0.5930191E+02  0.7816164E-02  0.1266605E+00
        -11   -1    0    0    0    0  0.00000000000E+00  0.00000000000E+00  0.45593999997E+02  0.45594000000E+02  0.51100000000E-03 0.  1.
         11   -1    0    0    0    0 -0.00000000000E+00 -0.00000000000E+00 -0.45593999997E+02  0.45594000000E+02  0.51100000000E-03 0. -1.
    9900012    2    1    2    0    0  0.15732657567E+02  0.22224418483E+02  0.16591605950E+02  0.59301910886E+02  0.49999939557E+02 0.  0.
         12    1    1    2    0    0 -0.15732657567E+02 -0.22224418483E+02 -0.16591605950E+02  0.31886089114E+02  0.00000000000E+00 0. -1.
         11    1    3    3    0    0  0.12101441892E+02  0.23047991101E+02  0.47552343095E+01  0.26462559272E+02  0.51100000000E-03 0. -1.
        -11    1    3    3    0    0 -0.13260142974E+02  0.14626799110E+01  0.72701445900E+01  0.15192953197E+02  0.51100000000E-03 0.  1.
        -12    1    3    3    0    0  0.16891358648E+02 -0.22862525290E+01  0.45662270503E+01  0.17646398417E+02  0.00000000000E+00 0.  1.
</event>
<event>
 7    1  0.4346085E-013  0.5930194E+02  0.7816164E-02  0.1266605E+00
        -11   -1    0    0    0    0  0.00000000000E+00  0.00000000000E+00  0.45593999997E+02  0.45594000000E+02  0.51100000000E-03 0.  1.
         11   -1    0    0    0    0 -0.00000000000E+00 -0.00000000000E+00 -0.45593999997E+02  0.45594000000E+02  0.51100000000E-03 0. -1.
    9900012    2    1    2    0    0 -0.25535388983E+02 -0.18261419690E+02  0.55843993583E+01  0.59301936338E+02  0.49999985976E+02 0.  0.
         12    1    1    2    0    0  0.25535388983E+02  0.18261419690E+02 -0.55843993583E+01  0.31886063662E+02  0.00000000000E+00 0. -1.
         11    1    3    3    0    0 -0.17013252511E+02  0.81449593311E+01 -0.11649885477E+02  0.22170046356E+02  0.51100000000E-03 0. -1.
        -11    1    3    3    0    0 -0.70141133616E+01 -0.28506963629E+02  0.12859746888E+02  0.32050239498E+02  0.51100000000E-03 0.  1.
         12    1    3    3    0    0 -0.15080231106E+01  0.21005846075E+01  0.43745379473E+01  0.50816504847E+01  0.00000000000E+00 0. -1.
</event>
<event>
 7    1  0.4346085E-013  0.5930194E+02  0.7816164E-02  0.1266605E+00
        -11   -1    0    0    0    0  0.00000000000E+00  0.00000000000E+00  0.45593999997E+02  0.45594000000E+02  0.51100000000E-03 0.  1.
         11   -1    0    0    0    0 -0.00000000000E+00 -0.00000000000E+00 -0.45593999997E+02  0.45594000000E+02  0.51100000000E-03 0. -1.
    9900012    2    1    2    0    0 -0.11692856521E+02  0.29636495657E+02 -0.12945316409E+01  0.59301943790E+02  0.49999999567E+02 0.  0.
         12    1    1    2    0    0  0.11692856521E+02 -0.29636495657E+02  0.12945316409E+01  0.31886056210E+02  0.00000000000E+00 0. -1.
         11    1    3    3    0    0 -0.32373922972E+01 -0.15130403449E+01 -0.47403924905E+01  0.59364401114E+01  0.51100000000E-03 0. -1.
        -11    1    3    3    0    0  0.16646650715E+02  0.19221316500E+02  0.68941638372E+00  0.25437084802E+02  0.51100000000E-03 0.  1.
        -12    1    3    3    0    0 -0.25102114938E+02  0.11928219502E+02  0.27564444659E+01  0.27928418877E+02  0.00000000000E+00 0.  1.
</event>
<event>
 7    1  0.4346085E-013  0.5930192E+02  0.7816164E-02  0.1266605E+00
        -11   -1    0    0    0    0  0.00000000000E+00  0.00000000000E+00  0.45593999997E+02  0.45594000000E+02  0.51100000000E-03 0. -1.
         11   -1    0    0    0    0 -0.00000000000E+00 -0.00000000000E+00 -0.45593999997E+02  0.45594000000E+02  0.51100000000E-03 0.  1.
    9900012    2    1    2    0    0  0.30551184737E+02  0.30280390041E+00 -0.91244384870E+01  0.59301922211E+02  0.49999960212E+02 0.  0.
         12    1    1    2    0    0 -0.30551184737E+02 -0.30280390041E+00  0.91244384870E+01  0.31886077789E+02  0.00000000000E+00 0. -1.
         11    1    3    3    0    0  0.56756353631E+01 -0.15313511166E+02  0.74911011956E+00  0.16348627686E+02  0.51100000000E-03 0. -1.
        -11    1    3    3    0    0 -0.39376471055E+01  0.11662555019E+02 -0.57254982122E+01  0.13575771961E+02  0.51100000000E-03 0.  1.
        -12    1    3    3    0    0  0.28813196480E+02  0.39537600465E+01 -0.41480503943E+01  0.29377522563E+02  0.00000000000E+00 0.  1.
</event>
<event>
 7    1  0.4346085E-013  0.5930195E+02  0.7816164E-02  0.1266605E+00
        -11   -1    0    0    0    0  0.00000000000E+00  0.00000000000E+00  0.45593999997E+02  0.45594000000E+02  0.51100000000E-03 0.  1.
         11   -1    0    0    0    0 -0.00000000000E+00 -0.00000000000E+00 -0.45593999997E+02  0.45594000000E+02  0.51100000000E-03 0. -1.
    9900012    2    1    2    0    0  0.42963895832E+01 -0.23428945114E+02  0.21197779213E+02  0.59301948564E+02  0.50000008274E+02 0.  0.
         12    1    1    2    0    0 -0.42963895832E+01  0.23428945114E+02 -0.21197779213E+02  0.31886051436E+02  0.00000000000E+00 0. -1.
         11    1    3    3    0    0 -0.13496733941E+02 -0.15744441218E+02  0.50460201913E+01  0.21342717174E+02  0.51100000000E-03 0. -1.
        -11    1    3    3    0    0  0.18396921323E+02 -0.76524651387E+01  0.23372695590E+02  0.30713023887E+02  0.51100000000E-03 0.  1.
        -12    1    3    3    0    0 -0.60379779929E+00 -0.32038757256E-01 -0.72209365683E+01  0.72462075038E+01  0.00000000000E+00 0.  1.
</event>
<event>
 7    1  0.4346085E-013  0.5930199E+02  0.7816164E-02  0.1266605E+00
        -11   -1    0    0    0    0  0.00000000000E+00  0.00000000000E+00  0.45593999997E+02  0.45594000000E+02  0.51100000000E-03 0.  1.
         11   -1    0    0    0    0 -0.00000000000E+00 -0.00000000000E+00 -0.45593999997E+02  0.45594000000E+02  0.51100000000E-03 0. -1.
    9900012    2    1    2    0    0  0.25193503324E+02 -0.17809336435E+02  0.80518746004E+01  0.59301988042E+02  0.50000080271E+02 0.  0.
         12    1    1    2    0    0 -0.25193503324E+02  0.17809336435E+02 -0.80518746004E+01  0.31886011958E+02  0.00000000000E+00 0. -1.
         11    1    3    3    0    0  0.20688199224E+02 -0.29535567539E+02  0.10922073204E+02  0.37678150437E+02  0.51100000000E-03 0. -1.
        -11    1    3    3    0    0  0.10007201780E+02  0.54926914189E+01  0.25525492353E+01  0.11697403744E+02  0.51100000000E-03 0.  1.
         12    1    3    3    0    0 -0.55018976796E+01  0.62335396849E+01 -0.54227478394E+01  0.99264338616E+01  0.00000000000E+00 0. -1.
</event>
<event>
 7    1  0.4346085E-013  0.5930195E+02  0.7816164E-02  0.1266605E+00
        -11   -1    0    0    0    0  0.00000000000E+00  0.00000000000E+00  0.45593999997E+02  0.45594000000E+02  0.51100000000E-03 0. -1.
         11   -1    0    0    0    0 -0.00000000000E+00 -0.00000000000E+00 -0.45593999997E+02  0.45594000000E+02  0.51100000000E-03 0.  1.
    9900012    2    1    2    0    0 -0.30496158974E+02  0.15941489394E+01 -0.91740428769E+01  0.59301951550E+02  0.50000013719E+02 0.  0.
         12    1    1    2    0    0  0.30496158974E+02 -0.15941489394E+01  0.91740428769E+01  0.31886048450E+02  0.00000000000E+00 0. -1.
         11    1    3    3    0    0  0.12329359450E+02 -0.36247290529E+01 -0.28159405818E+01  0.13156036134E+02  0.51100000000E-03 0. -1.
        -11    1    3    3    0    0 -0.15054047126E+02 -0.73090080650E+00 -0.91102448275E+01  0.17611221194E+02  0.51100000000E-03 0.  1.
         12    1    3    3    0    0 -0.27771471298E+02  0.59497787988E+01  0.27521425324E+01  0.28534694222E+02  0.00000000000E+00 0. -1.
</event>
<event>
 7    1  0.4346085E-013  0.5930198E+02  0.7816164E-02  0.1266605E+00
        -11   -1    0    0    0    0  0.00000000000E+00  0.00000000000E+00  0.45593999997E+02  0.45594000000E+02  0.51100000000E-03 0. -1.
         11   -1    0    0    0    0 -0.00000000000E+00 -0.00000000000E+00 -0.45593999997E+02  0.45594000000E+02  0.51100000000E-03 0.  1.
    9900012    2    1    2    0    0  0.10152632656E+02  0.10262294287E+02 -0.28431100732E+02  0.59301982332E+02  0.50000069858E+02 0.  0.
         12    1    1    2    0    0 -0.10152632656E+02 -0.10262294287E+02  0.28431100732E+02  0.31886017668E+02  0.00000000000E+00 0. -1.
         11    1    3    3    0    0 -0.64416671053E+01  0.17422017712E+02 -0.13996898987E+02  0.23258008465E+02  0.51100000000E-03 0. -1.
        -11    1    3    3    0    0  0.11247578501E+02 -0.13533792162E+02  0.19133157901E+01  0.17701195722E+02  0.51100000000E-03 0.  1.
        -12    1    3    3    0    0  0.53467212607E+01  0.63740687366E+01 -0.16347517535E+02  0.18342778145E+02  0.00000000000E+00 0.  1.
</event>
<event>
 7    1  0.4346085E-013  0.5930195E+02  0.7816164E-02  0.1266605E+00
        -11   -1    0    0    0    0  0.00000000000E+00  0.00000000000E+00  0.45593999997E+02  0.45594000000E+02  0.51100000000E-03 0. -1.
         11   -1    0    0    0    0 -0.00000000000E+00 -0.00000000000E+00 -0.45593999997E+02  0.45594000000E+02  0.51100000000E-03 0.  1.
    9900012    2    1    2    0    0  0.14353676779E+02 -0.20759193080E+02 -0.19487133171E+02  0.59301945154E+02  0.50000002054E+02 0.  0.
         12    1    1    2    0    0 -0.14353676779E+02  0.20759193080E+02  0.19487133171E+02  0.31886054846E+02  0.00000000000E+00 0. -1.
         11    1    3    3    0    0  0.12100615768E+00  0.51835384496E+01 -0.96327555351E+01  0.10939547194E+02  0.51100000000E-03 0. -1.
        -11    1    3    3    0    0  0.12868081258E+02 -0.43738321298E+01  0.11630492390E+02  0.17888160226E+02  0.51100000000E-03 0.  1.
        -12    1    3    3    0    0  0.13645893628E+01 -0.21568899400E+02 -0.21484870026E+02  0.30474237734E+02  0.00000000000E+00 0.  1.
</event>
<event>
 7    1  0.4346085E-013  0.5930194E+02  0.7816164E-02  0.1266605E+00
        -11   -1    0    0    0    0  0.00000000000E+00  0.00000000000E+00  0.45593999997E+02  0.45594000000E+02  0.51100000000E-03 0.  1.
         11   -1    0    0    0    0 -0.00000000000E+00 -0.00000000000E+00 -0.45593999997E+02  0.45594000000E+02  0.51100000000E-03 0. -1.
    9900012    2    1    2    0    0  0.21282530043E+02  0.20793455712E+02  0.11463290633E+02  0.59301938505E+02  0.49999989929E+02 0.  0.
         12    1    1    2    0    0 -0.21282530043E+02 -0.20793455712E+02 -0.11463290633E+02  0.31886061495E+02  0.00000000000E+00 0. -1.
         11    1    3    3    0    0  0.74244201415E+01 -0.46691256244E+01  0.16089122591E+02  0.18324372146E+02  0.51100000000E-03 0. -1.
        -11    1    3    3    0    0 -0.31422411311E+01  0.19802643978E+02 -0.98145606786E+01  0.22323619542E+02  0.51100000000E-03 0.  1.
         12    1    3    3    0    0  0.17000351033E+02  0.56599373584E+01  0.51887287201E+01  0.18653946818E+02  0.00000000000E+00 0. -1.
</event>
<event>
 7    1  0.4346085E-013  0.5930195E+02  0.7816164E-02  0.1266605E+00
        -11   -1    0    0    0    0  0.00000000000E+00  0.00000000000E+00  0.45593999997E+02  0.45594000000E+02  0.51100000000E-03 0.  1.
         11   -1    0    0    0    0 -0.00000000000E+00 -0.00000000000E+00 -0.45593999997E+02  0.45594000000E+02  0.51100000000E-03 0. -1.
    9900012    2    1    2    0    0  0.21984215321E+02  0.13279860907E+02  0.18896019233E+02  0.59301953336E+02  0.50000016977E+02 0.  0.
         12    1    1    2    0    0 -0.21984215321E+02 -0.13279860907E+02 -0.18896019233E+02  0.31886046664E+02  0.00000000000E+00 0. -1.
         11    1    3    3    0    0  0.23799879356E+02  0.18956394649E+02  0.18838895402E+02  0.35786633477E+02  0.51100000000E-03 0. -1.
        -11    1    3    3    0    0 -0.93947768502E+01 -0.87087071299E+01  0.52457519596E+01  0.13842735489E+02  0.51100000000E-03 0.  1.
         12    1    3    3    0    0  0.75791128161E+01  0.30321733882E+01 -0.51886281287E+01  0.96725843699E+01  0.00000000000E+00 0. -1.
</event>
<event>
 7    1  0.4346085E-013  0.5930193E+02  0.7816164E-02  0.1266605E+00
        -11   -1    0    0    0    0  0.00000000000E+00  0.00000000000E+00  0.45593999997E+02  0.45594000000E+02  0.51100000000E-03 0.  1.
         11   -1    0    0    0    0 -0.00000000000E+00 -0.00000000000E+00 -0.45593999997E+02  0.45594000000E+02  0.51100000000E-03 0. -1.
    9900012    2    1    2    0    0 -0.51916875278E+01  0.14477179949E+02  0.27931684801E+02  0.59301931342E+02  0.49999976864E+02 0.  0.
         12    1    1    2    0    0  0.51916875278E+01 -0.14477179949E+02 -0.27931684801E+02  0.31886068658E+02  0.00000000000E+00 0. -1.
         11    1    3    3    0    0 -0.18635094534E+02  0.83114519643E+01  0.85019426882E+00  0.20422287154E+02  0.51100000000E-03 0. -1.
        -11    1    3    3    0    0  0.18609428753E+02  0.23088700996E+01  0.11451414748E+02  0.21972178309E+02  0.51100000000E-03 0.  1.
        -12    1    3    3    0    0 -0.51660217465E+01  0.38568578849E+01  0.15630075784E+02  0.16907465879E+02  0.00000000000E+00 0.  1.
</event>
<event>
 7    1  0.4346085E-013  0.5930194E+02  0.7816164E-02  0.1266605E+00
        -11   -1    0    0    0    0  0.00000000000E+00  0.00000000000E+00  0.45593999997E+02  0.45594000000E+02  0.51100000000E-03 0.  1.
         11   -1    0    0    0    0 -0.00000000000E+00 -0.00000000000E+00 -0.45593999997E+02  0.45594000000E+02  0.51100000000E-03 0. -1.
    9900012    2    1    2    0    0  0.13406437472E+02 -0.81848858083E+00  0.28919168306E+02  0.59301940589E+02  0.49999993729E+02 0.  0.
         12    1    1    2    0    0 -0.13406437472E+02  0.81848858083E+00 -0.28919168306E+02  0.31886059411E+02  0.00000000000E+00 0. -1.
         11    1    3    3    0    0 -0.54465135685E+01 -0.33310690443E+01  0.26508821823E+02  0.27266796030E+02  0.51100000000E-03 0. -1.
        -11    1    3    3    0    0  0.14366607828E+02  0.13531735982E+02 -0.66331481340E+00  0.19747082974E+02  0.51100000000E-03 0.  1.
         12    1    3    3    0    0  0.44863432129E+01 -0.11019155518E+02  0.30736612959E+01  0.12288061585E+02  0.00000000000E+00 0. -1.
</event>
<event>
 7    1  0.4346085E-013  0.5930195E+02  0.7816164E-02  0.1266605E+00
        -11   -1    0    0    0    0  0.00000000000E+00  0.00000000000E+00  0.45593999997E+02  0.45594000000E+02  0.51100000000E-03 0.  1.
         11   -1    0    0    0    0 -0.00000000000E+00 -0.00000000000E+00 -0.45593999997E+02  0.45594000000E+02  0.51100000000E-03 0. -1.
    9900012    2    1    2    0    0 -0.23792955996E+02 -0.10165625146E+02  0.18635326781E+02  0.59301951423E+02  0.50000013487E+02 0.  0.
         12    1    1    2    0    0  0.23792955996E+02  0.10165625146E+02 -0.18635326781E+02  0.31886048577E+02  0.00000000000E+00 0. -1.
         11    1    3    3    0    0 -0.10652179833E+02  0.75545694804E+01 -0.13737605785E+02  0.18954215051E+02  0.51100000000E-03 0. -1.
        -11    1    3    3    0    0 -0.67505243093E+01 -0.15951400298E+02  0.25210910339E+02  0.30587689522E+02  0.51100000000E-03 0.  1.
         12    1    3    3    0    0 -0.63902518540E+01 -0.17687943279E+01  0.71620222271E+01  0.97600468500E+01  0.00000000000E+00 0. -1.
</event>
<event>
 7    1  0.4346085E-013  0.5930195E+02  0.7816164E-02  0.1266605E+00
        -11   -1    0    0    0    0  0.00000000000E+00  0.00000000000E+00  0.45593999997E+02  0.45594000000E+02  0.51100000000E-03 0. -1.
         11   -1    0    0    0    0 -0.00000000000E+00 -0.00000000000E+00 -0.45593999997E+02  0.45594000000E+02  0.51100000000E-03 0.  1.
    9900012    2    1    2    0    0 -0.16788871570E+02  0.27036816912E+02 -0.19658217969E+01  0.59301950815E+02  0.50000012378E+02 0.  0.
         12    1    1    2    0    0  0.16788871570E+02 -0.27036816912E+02  0.19658217969E+01  0.31886049185E+02  0.00000000000E+00 0. -1.
         11    1    3    3    0    0  0.11631084206E+02  0.45965447182E+00  0.30816043379E+01  0.12041166372E+02  0.51100000000E-03 0. -1.
        -11    1    3    3    0    0 -0.31835723921E+02  0.26411245761E+02 -0.24574963589E+00  0.41365778288E+02  0.51100000000E-03 0.  1.
        -12    1    3    3    0    0  0.34157681452E+01  0.16591667911E+00 -0.48016764989E+01  0.58950061549E+01  0.00000000000E+00 0.  1.
</event>
<event>
 7    1  0.4346085E-013  0.5930197E+02  0.7816164E-02  0.1266605E+00
        -11   -1    0    0    0    0  0.00000000000E+00  0.00000000000E+00  0.45593999997E+02  0.45594000000E+02  0.51100000000E-03 0. -1.
         11   -1    0    0    0    0 -0.00000000000E+00 -0.00000000000E+00 -0.45593999997E+02  0.45594000000E+02  0.51100000000E-03 0.  1.
    9900012    2    1    2    0    0 -0.19862169367E+01  0.56985822543E+01 -0.31309747875E+02  0.59301965292E+02  0.50000038780E+02 0.  0.
         12    1    1    2    0    0  0.19862169367E+01 -0.56985822543E+01  0.31309747875E+02  0.31886034708E+02  0.00000000000E+00 0. -1.
         11    1    3    3    0    0  0.14093323778E+02 -0.84453992736E+01  0.30777339819E+01  0.16715830543E+02  0.51100000000E-03 0. -1.
        -11    1    3    3    0    0 -0.12249989443E+02  0.76523369644E+01 -0.31241700366E+02  0.34418953272E+02  0.51100000000E-03 0.  1.
         12    1    3    3    0    0 -0.38295512722E+01  0.64916445636E+01 -0.31457814913E+01  0.81671814770E+01  0.00000000000E+00 0. -1.
</event>
<event>
 7    1  0.4346085E-013  0.5930195E+02  0.7816164E-02  0.1266605E+00
        -11   -1    0    0    0    0  0.00000000000E+00  0.00000000000E+00  0.45593999997E+02  0.45594000000E+02  0.51100000000E-03 0. -1.
         11   -1    0    0    0    0 -0.00000000000E+00 -0.00000000000E+00 -0.45593999997E+02  0.45594000000E+02  0.51100000000E-03 0.  1.
    9900012    2    1    2    0    0  0.31642658387E+02  0.39316884871E+01 -0.64242809814E-01  0.59301950836E+02  0.50000012417E+02 0.  0.
         12    1    1    2    0    0 -0.31642658387E+02 -0.39316884871E+01  0.64242809814E-01  0.31886049164E+02  0.00000000000E+00 0. -1.
         11    1    3    3    0    0 -0.34341379603E+01  0.12678816248E+02  0.12956594648E+02  0.18450447965E+02  0.51100000000E-03 0. -1.
        -11    1    3    3    0    0  0.16664103710E+02 -0.11118174393E+02 -0.83852140345E+01  0.21716767000E+02  0.51100000000E-03 0.  1.
         12    1    3    3    0    0  0.18412692638E+02  0.23710466321E+01 -0.46356234235E+01  0.19134735870E+02  0.00000000000E+00 0. -1.
</event>
<event>
 7    1  0.4346085E-013  0.5930191E+02  0.7816164E-02  0.1266605E+00
        -11   -1    0    0    0    0  0.00000000000E+00  0.00000000000E+00  0.45593999997E+02  0.45594000000E+02  0.51100000000E-03 0.  1.
         11   -1    0    0    0    0 -0.00000000000E+00 -0.00000000000E+00 -0.45593999997E+02  0.45594000000E+02  0.51100000000E-03 0. -1.
    9900012    2    1    2    0    0  0.24515373387E+01 -0.15206987609E+02  0.27918812782E+02  0.59301911895E+02  0.49999941398E+02 0.  0.
         12    1    1    2    0    0 -0.24515373387E+01  0.15206987609E+02 -0.27918812782E+02  0.31886088105E+02  0.00000000000E+00 0. -1.
         11    1    3    3    0    0 -0.81766893076E+01 -0.29522780456E+02  0.10637580676E+02  0.32428551259E+02  0.51100000000E-03 0. -1.
        -11    1    3    3    0    0  0.59303749373E+01  0.44251166562E+01  0.13304915107E+02  0.15224052371E+02  0.51100000000E-03 0.  1.
         12    1    3    3    0    0  0.46978517089E+01  0.98906761904E+01  0.39763169983E+01  0.11649308265E+02  0.00000000000E+00 0. -1.
</event>
<event>
 7    1  0.4346085E-013  0.5930193E+02  0.7816164E-02  0.1266605E+00
        -11   -1    0    0    0    0  0.00000000000E+00  0.00000000000E+00  0.45593999997E+02  0.45594000000E+02  0.51100000000E-03 0. -1.
         11   -1    0    0    0    0 -0.00000000000E+00 -0.00000000000E+00 -0.45593999997E+02  0.45594000000E+02  0.51100000000E-03 0.  1.
    9900012    2    1    2    0    0  0.57765867212E+01 -0.26998102624E+02 -0.15951638841E+02  0.59301932805E+02  0.49999979533E+02 0.  0.
         12    1    1    2    0    0 -0.57765867212E+01  0.26998102624E+02  0.15951638841E+02  0.31886067195E+02  0.00000000000E+00 0. -1.
         11    1    3    3    0    0 -0.13113502953E+02 -0.17062719118E+01  0.96852630024E+01  0.16391450309E+02  0.51100000000E-03 0. -1.
        -11    1    3    3    0    0  0.13886275601E+02 -0.24641017570E+02 -0.25136412163E+02  0.37839762336E+02  0.51100000000E-03 0.  1.
        -12    1    3    3    0    0  0.50038140737E+01 -0.65081314175E+00 -0.50048968044E+00  0.50707201608E+01  0.00000000000E+00 0.  1.
</event>
<event>
 7    1  0.4346085E-013  0.5930197E+02  0.7816164E-02  0.1266605E+00
        -11   -1    0    0    0    0  0.00000000000E+00  0.00000000000E+00  0.45593999997E+02  0.45594000000E+02  0.51100000000E-03 0. -1.
         11   -1    0    0    0    0 -0.00000000000E+00 -0.00000000000E+00 -0.45593999997E+02  0.45594000000E+02  0.51100000000E-03 0.  1.
    9900012    2    1    2    0    0  0.92454085902E+01 -0.20486533879E+02 -0.22617322922E+02  0.59301969414E+02  0.50000046298E+02 0.  0.
         12    1    1    2    0    0 -0.92454085902E+01  0.20486533879E+02  0.22617322922E+02  0.31886030586E+02  0.00000000000E+00 0. -1.
         11    1    3    3    0    0 -0.10232233058E+02  0.50392389527E+01  0.77688829889E+00  0.11432238550E+02  0.51100000000E-03 0. -1.
        -11    1    3    3    0    0  0.19278307034E+02 -0.30830570356E+02 -0.19304037989E+02  0.41168228933E+02  0.51100000000E-03 0.  1.
        -12    1    3    3    0    0  0.19933461464E+00  0.53047975237E+01 -0.40901732320E+01  0.67015019304E+01  0.00000000000E+00 0.  1.
</event>
<event>
 7    1  0.4346085E-013  0.5930190E+02  0.7816164E-02  0.1266605E+00
        -11   -1    0    0    0    0  0.00000000000E+00  0.00000000000E+00  0.45593999997E+02  0.45594000000E+02  0.51100000000E-03 0.  1.
         11   -1    0    0    0    0 -0.00000000000E+00 -0.00000000000E+00 -0.45593999997E+02  0.45594000000E+02  0.51100000000E-03 0. -1.
    9900012    2    1    2    0    0  0.42741200718E+01 -0.20038662550E+02  0.24431687225E+02  0.59301898955E+02  0.49999917799E+02 0.  0.
         12    1    1    2    0    0 -0.42741200718E+01  0.20038662550E+02 -0.24431687225E+02  0.31886101045E+02  0.00000000000E+00 0. -1.
         11    1    3    3    0    0  0.73231648772E+01 -0.29237827859E+02  0.28201271098E+02  0.41277003447E+02  0.51100000000E-03 0. -1.
        -11    1    3    3    0    0  0.30134940256E+01  0.46701770061E+01  0.42513806712E+01  0.69975665329E+01  0.51100000000E-03 0.  1.
         12    1    3    3    0    0 -0.60625388310E+01  0.45289883031E+01 -0.80209645441E+01  0.11027328976E+02  0.00000000000E+00 0. -1.
</event>
<event>
 7    1  0.4346085E-013  0.5930199E+02  0.7816164E-02  0.1266605E+00
        -11   -1    0    0    0    0  0.00000000000E+00  0.00000000000E+00  0.45593999997E+02  0.45594000000E+02  0.51100000000E-03 0. -1.
         11   -1    0    0    0    0 -0.00000000000E+00 -0.00000000000E+00 -0.45593999997E+02  0.45594000000E+02  0.51100000000E-03 0.  1.
    9900012    2    1    2    0    0 -0.77200273703E+01  0.26767324353E+02 -0.15512225443E+02  0.59301990312E+02  0.50000084411E+02 0.  0.
         12    1    1    2    0    0  0.77200273703E+01 -0.26767324353E+02  0.15512225443E+02  0.31886009688E+02  0.00000000000E+00 0. -1.
         11    1    3    3    0    0 -0.11910488765E+02  0.20720240121E+01 -0.22011676798E+02  0.25113083081E+02  0.51100000000E-03 0. -1.
        -11    1    3    3    0    0 -0.35377885656E+01  0.93766150806E+01  0.12491620658E+02  0.16014913213E+02  0.51100000000E-03 0.  1.
        -12    1    3    3    0    0  0.77282499605E+01  0.15318685261E+02 -0.59921693033E+01  0.18173994017E+02  0.00000000000E+00 0.  1.
</event>
<event>
 7    1  0.4346085E-013  0.5930193E+02  0.7816164E-02  0.1266605E+00
        -11   -1    0    0    0    0  0.00000000000E+00  0.00000000000E+00  0.45593999997E+02  0.45594000000E+02  0.51100000000E-03 0. -1.
         11   -1    0    0    0    0 -0.00000000000E+00 -0.00000000000E+00 -0.45593999997E+02  0.45594000000E+02  0.51100000000E-03 0.  1.
    9900012    2    1    2    0    0 -0.17866855627E+02 -0.23190744100E+02 -0.12636706763E+02  0.59301929378E+02  0.49999973282E+02 0.  0.
         12    1    1    2    0    0  0.17866855627E+02  0.23190744100E+02  0.12636706763E+02  0.31886070622E+02  0.00000000000E+00 0. -1.
         11    1    3    3    0    0 -0.20155766337E+02  0.43486351502E+01  0.27399747568E+01  0.20800793404E+02  0.51100000000E-03 0. -1.
        -11    1    3    3    0    0 -0.26183513062E+01 -0.17670761935E+02  0.19461792216E+01  0.17969396338E+02  0.51100000000E-03 0.  1.
         12    1    3    3    0    0  0.49072620160E+01 -0.98686173155E+01 -0.17322860741E+02  0.20531739636E+02  0.00000000000E+00 0. -1.
</event>
<event>
 7    1  0.4346085E-013  0.5930195E+02  0.7816164E-02  0.1266605E+00
        -11   -1    0    0    0    0  0.00000000000E+00  0.00000000000E+00  0.45593999997E+02  0.45594000000E+02  0.51100000000E-03 0. -1.
         11   -1    0    0    0    0 -0.00000000000E+00 -0.00000000000E+00 -0.45593999997E+02  0.45594000000E+02  0.51100000000E-03 0.  1.
    9900012    2    1    2    0    0 -0.23989952454E+01  0.31174575771E+02  0.62538709593E+01  0.59301948902E+02  0.50000008889E+02 0.  0.
         12    1    1    2    0    0  0.23989952454E+01 -0.31174575771E+02 -0.62538709593E+01  0.31886051098E+02  0.00000000000E+00 0. -1.
         11    1    3    3    0    0 -0.64636568057E+01 -0.70652490167E+00  0.58573004276E+01  0.87513430569E+01  0.51100000000E-03 0. -1.
        -11    1    3    3    0    0  0.16223968022E+02  0.19256506804E+02 -0.13141687465E+02  0.28403065721E+02  0.51100000000E-03 0.  1.
        -12    1    3    3    0    0 -0.12159306461E+02  0.12624593868E+02  0.13538257996E+02  0.22147540124E+02  0.00000000000E+00 0.  1.
</event>
<event>
 7    1  0.4346085E-013  0.5930197E+02  0.7816164E-02  0.1266605E+00
        -11   -1    0    0    0    0  0.00000000000E+00  0.00000000000E+00  0.45593999997E+02  0.45594000000E+02  0.51100000000E-03 0. -1.
         11   -1    0    0    0    0 -0.00000000000E+00 -0.00000000000E+00 -0.45593999997E+02  0.45594000000E+02  0.51100000000E-03 0.  1.
    9900012    2    1    2    0    0 -0.23454680718E+02  0.18476733051E+02 -0.11189612666E+02  0.59301966327E+02  0.50000040668E+02 0.  0.
         12    1    1    2    0    0  0.23454680718E+02 -0.18476733051E+02  0.11189612666E+02  0.31886033673E+02  0.00000000000E+00 0. -1.
         11    1    3    3    0    0 -0.59906057439E+01 -0.80353242394E+01  0.59568851273E+01  0.11659256987E+02  0.51100000000E-03 0. -1.
        -11    1    3    3    0    0 -0.14258836311E+02  0.11741438326E+02 -0.24622416575E+02  0.30780500080E+02  0.51100000000E-03 0.  1.
        -12    1    3    3    0    0 -0.32052386629E+01  0.14770618964E+02  0.74759187818E+01  0.16862209259E+02  0.00000000000E+00 0.  1.
</event>
<event>
 7    1  0.4346085E-013  0.5930195E+02  0.7816164E-02  0.1266605E+00
        -11   -1    0    0    0    0  0.00000000000E+00  0.00000000000E+00  0.45593999997E+02  0.45594000000E+02  0.51100000000E-03 0.  1.
         11   -1    0    0    0    0 -0.00000000000E+00 -0.00000000000E+00 -0.45593999997E+02  0.45594000000E+02  0.51100000000E-03 0. -1.
    9900012    2    1    2    0    0  0.28820525517E+02  0.13151830764E+02  0.36230737502E+01  0.59301952787E+02  0.50000015974E+02 0.  0.
         12    1    1    2    0    0 -0.28820525517E+02 -0.13151830764E+02 -0.36230737502E+01  0.31886047213E+02  0.00000000000E+00 0. -1.
         11    1    3    3    0    0  0.28013383030E+02  0.18463970899E+02  0.16700558582E+01  0.33592513109E+02  0.51100000000E-03 0.  1.
        -11    1    3    3    0    0  0.31716785643E+01 -0.37168339216E+01 -0.11216506926E+02  0.12234558725E+02  0.51100000000E-03 0. -1.
        -12    1    3    3    0    0 -0.23645360779E+01 -0.15953062133E+01  0.13169524818E+02  0.13474880953E+02  0.00000000000E+00 0.  1.
</event>
<event>
 7    1  0.4346085E-013  0.5930196E+02  0.7816164E-02  0.1266605E+00
        -11   -1    0    0    0    0  0.00000000000E+00  0.00000000000E+00  0.45593999997E+02  0.45594000000E+02  0.51100000000E-03 0.  1.
         11   -1    0    0    0    0 -0.00000000000E+00 -0.00000000000E+00 -0.45593999997E+02  0.45594000000E+02  0.51100000000E-03 0. -1.
    9900012    2    1    2    0    0  0.26089663801E+02  0.52584675969E+01  0.17561250758E+02  0.59301959686E+02  0.50000028557E+02 0.  0.
         12    1    1    2    0    0 -0.26089663801E+02 -0.52584675969E+01 -0.17561250758E+02  0.31886040314E+02  0.00000000000E+00 0. -1.
         11    1    3    3    0    0 -0.12195921423E+01  0.16091413583E+01 -0.97831323218E+01  0.99893152514E+01  0.51100000000E-03 0. -1.
        -11    1    3    3    0    0  0.32832590553E+02  0.10450744538E+00  0.16771260895E+02  0.36868212820E+02  0.51100000000E-03 0.  1.
        -12    1    3    3    0    0 -0.55233346095E+01  0.35448187932E+01  0.10573122184E+02  0.12444431615E+02  0.00000000000E+00 0.  1.
</event>
<event>
 7    1  0.4346085E-013  0.5930197E+02  0.7816164E-02  0.1266605E+00
        -11   -1    0    0    0    0  0.00000000000E+00  0.00000000000E+00  0.45593999997E+02  0.45594000000E+02  0.51100000000E-03 0.  1.
         11   -1    0    0    0    0 -0.00000000000E+00 -0.00000000000E+00 -0.45593999997E+02  0.45594000000E+02  0.51100000000E-03 0. -1.
    9900012    2    1    2    0    0  0.15348207844E+02 -0.15460020348E+01  0.27906298335E+02  0.59301967116E+02  0.50000042107E+02 0.  0.
         12    1    1    2    0    0 -0.15348207844E+02  0.15460020348E+01 -0.27906298335E+02  0.31886032884E+02  0.00000000000E+00 0. -1.
         11    1    3    3    0    0  0.46256617823E+01  0.29514512668E+01 -0.13657575851E+02  0.14718600134E+02  0.51100000000E-03 0. -1.
        -11    1    3    3    0    0  0.44824077950E+01  0.36936300975E+01  0.16145134167E+02  0.17158095479E+02  0.51100000000E-03 0.  1.
         12    1    3    3    0    0  0.62401382670E+01 -0.81910833990E+01  0.25418740020E+02  0.27425271503E+02  0.00000000000E+00 0. -1.
</event>
<event>
 7    1  0.4346085E-013  0.5930192E+02  0.7816164E-02  0.1266605E+00
        -11   -1    0    0    0    0  0.00000000000E+00  0.00000000000E+00  0.45593999997E+02  0.45594000000E+02  0.51100000000E-03 0.  1.
         11   -1    0    0    0    0 -0.00000000000E+00 -0.00000000000E+00 -0.45593999997E+02  0.45594000000E+02  0.51100000000E-03 0. -1.
    9900012    2    1    2    0    0 -0.11361077131E+02  0.98194333304E+01  0.28128750934E+02  0.59301921947E+02  0.49999959729E+02 0.  0.
         12    1    1    2    0    0  0.11361077131E+02 -0.98194333304E+01 -0.28128750934E+02  0.31886078053E+02  0.00000000000E+00 0. -1.
         11    1    3    3    0    0 -0.13278718478E+02 -0.30465698734E+01  0.63636808516E-01  0.13623876185E+02  0.51100000000E-03 0. -1.
        -11    1    3    3    0    0 -0.90514669780E+01  0.80482567521E+01  0.31052187369E+02  0.33330794048E+02  0.51100000000E-03 0.  1.
        -12    1    3    3    0    0  0.10969108325E+02  0.48177464517E+01 -0.29870732432E+01  0.12347251713E+02  0.00000000000E+00 0.  1.
</event>
<event>
 7    1  0.4346085E-013  0.5930196E+02  0.7816164E-02  0.1266605E+00
        -11   -1    0    0    0    0  0.00000000000E+00  0.00000000000E+00  0.45593999997E+02  0.45594000000E+02  0.51100000000E-03 0. -1.
         11   -1    0    0    0    0 -0.00000000000E+00 -0.00000000000E+00 -0.45593999997E+02  0.45594000000E+02  0.51100000000E-03 0.  1.
    9900012    2    1    2    0    0 -0.25735321840E+00 -0.26352340429E+02 -0.17950139172E+02  0.59301959590E+02  0.50000028382E+02 0.  0.
         12    1    1    2    0    0  0.25735321840E+00  0.26352340429E+02  0.17950139172E+02  0.31886040410E+02  0.00000000000E+00 0. -1.
         11    1    3    3    0    0  0.49752392335E+01 -0.14586782268E+02  0.11432845783E+02  0.19189507167E+02  0.51100000000E-03 0. -1.
        -11    1    3    3    0    0  0.81878625696E+01 -0.79196315210E+01 -0.20826597740E+02  0.23738340939E+02  0.51100000000E-03 0.  1.
         12    1    3    3    0    0 -0.13420455022E+02 -0.38459266402E+01 -0.85563872149E+01  0.16374111484E+02  0.00000000000E+00 0. -1.
</event>
<event>
 7    1  0.4346085E-013  0.5930191E+02  0.7816164E-02  0.1266605E+00
        -11   -1    0    0    0    0  0.00000000000E+00  0.00000000000E+00  0.45593999997E+02  0.45594000000E+02  0.51100000000E-03 0. -1.
         11   -1    0    0    0    0 -0.00000000000E+00 -0.00000000000E+00 -0.45593999997E+02  0.45594000000E+02  0.51100000000E-03 0.  1.
    9900012    2    1    2    0    0 -0.11056090718E+02  0.28285304300E+02 -0.97173551627E+01  0.59301912553E+02  0.49999942597E+02 0.  0.
         12    1    1    2    0    0  0.11056090718E+02 -0.28285304300E+02  0.97173551627E+01  0.31886087447E+02  0.00000000000E+00 0. -1.
         11    1    3    3    0    0  0.36204646816E+01  0.61736230791E+01  0.47816050445E-01  0.71570715429E+01  0.51100000000E-03 0. -1.
        -11    1    3    3    0    0 -0.74331412346E+01  0.51016826505E+01 -0.26013544951E+02  0.27531496067E+02  0.51100000000E-03 0.  1.
        -12    1    3    3    0    0 -0.72434141651E+01  0.17009998571E+02  0.16248373738E+02  0.24613344943E+02  0.00000000000E+00 0.  1.
</event>
<event>
 7    1  0.4346085E-013  0.5930189E+02  0.7816164E-02  0.1266605E+00
        -11   -1    0    0    0    0  0.00000000000E+00  0.00000000000E+00  0.45593999997E+02  0.45594000000E+02  0.51100000000E-03 0.  1.
         11   -1    0    0    0    0 -0.00000000000E+00 -0.00000000000E+00 -0.45593999997E+02  0.45594000000E+02  0.51100000000E-03 0. -1.
    9900012    2    1    2    0    0  0.12247265746E+02  0.18664659517E+02  0.22767491762E+02  0.59301894651E+02  0.49999909949E+02 0.  0.
         12    1    1    2    0    0 -0.12247265746E+02 -0.18664659517E+02 -0.22767491762E+02  0.31886105349E+02  0.00000000000E+00 0. -1.
         11    1    3    3    0    0 -0.95728740396E+01  0.16855529737E+02 -0.43400719519E+01  0.19864164339E+02  0.51100000000E-03 0. -1.
        -11    1    3    3    0    0  0.12932578343E+02  0.48960968917E+01  0.26642984011E+02  0.30017860427E+02  0.51100000000E-03 0.  1.
        -12    1    3    3    0    0  0.88875614429E+01 -0.30869671110E+01  0.46457970354E+00  0.94198698848E+01  0.00000000000E+00 0.  1.
</event>
<event>
 7    1  0.4346085E-013  0.5930188E+02  0.7816164E-02  0.1266605E+00
        -11   -1    0    0    0    0  0.00000000000E+00  0.00000000000E+00  0.45593999997E+02  0.45594000000E+02  0.51100000000E-03 0.  1.
         11   -1    0    0    0    0 -0.00000000000E+00 -0.00000000000E+00 -0.45593999997E+02  0.45594000000E+02  0.51100000000E-03 0. -1.
    9900012    2    1    2    0    0 -0.32635797651E+01  0.73102654011E+01  0.30864763073E+02  0.59301881819E+02  0.49999886546E+02 0.  0.
         12    1    1    2    0    0  0.32635797651E+01 -0.73102654011E+01 -0.30864763073E+02  0.31886118181E+02  0.00000000000E+00 0. -1.
         11    1    3    3    0    0 -0.17658839233E+01  0.25051465474E+01 -0.11786621446E+02  0.12178610374E+02  0.51100000000E-03 0. -1.
        -11    1    3    3    0    0 -0.10062411555E+02  0.29264678446E+01  0.29597389754E+02  0.31397799618E+02  0.51100000000E-03 0.  1.
        -12    1    3    3    0    0  0.85647157130E+01  0.18786510092E+01  0.13053994766E+02  0.15725471828E+02  0.00000000000E+00 0.  1.
</event>
<event>
 7    1  0.4346085E-013  0.5930196E+02  0.7816164E-02  0.1266605E+00
        -11   -1    0    0    0    0  0.00000000000E+00  0.00000000000E+00  0.45593999997E+02  0.45594000000E+02  0.51100000000E-03 0.  1.
         11   -1    0    0    0    0 -0.00000000000E+00 -0.00000000000E+00 -0.45593999997E+02  0.45594000000E+02  0.51100000000E-03 0. -1.
    9900012    2    1    2    0    0  0.81422474617E+01 -0.15309240952E+02  0.26759119283E+02  0.59301960468E+02  0.50000029982E+02 0.  0.
         12    1    1    2    0    0 -0.81422474617E+01  0.15309240952E+02 -0.26759119283E+02  0.31886039532E+02  0.00000000000E+00 0. -1.
         11    1    3    3    0    0  0.26226226046E+02 -0.11265883663E+02  0.25848533760E+01  0.28660365220E+02  0.51100000000E-03 0. -1.
        -11    1    3    3    0    0 -0.58774927569E+01  0.88569496209E-01  0.87696534955E+01  0.10557442321E+02  0.51100000000E-03 0.  1.
         12    1    3    3    0    0 -0.12206485827E+02 -0.41319267848E+01  0.15404612412E+02  0.20084152926E+02  0.00000000000E+00 0. -1.
</event>
<event>
 7    1  0.4346085E-013  0.5930195E+02  0.7816164E-02  0.1266605E+00
        -11   -1    0    0    0    0  0.00000000000E+00  0.00000000000E+00  0.45593999997E+02  0.45594000000E+02  0.51100000000E-03 0.  1.
         11   -1    0    0    0    0 -0.00000000000E+00 -0.00000000000E+00 -0.45593999997E+02  0.45594000000E+02  0.51100000000E-03 0. -1.
    9900012    2    1    2    0    0 -0.65000161627E+01  0.21247317461E+02  0.22869663778E+02  0.59301949277E+02  0.50000009574E+02 0.  0.
         12    1    1    2    0    0  0.65000161627E+01 -0.21247317461E+02 -0.22869663778E+02  0.31886050723E+02  0.00000000000E+00 0. -1.
         11    1    3    3    0    0  0.13991711565E+02  0.22909192058E+02  0.16881689787E+02  0.31711047343E+02  0.51100000000E-03 0. -1.
        -11    1    3    3    0    0 -0.12536346416E+02 -0.61460935581E-01  0.12106544779E+02  0.17427913979E+02  0.51100000000E-03 0.  1.
        -12    1    3    3    0    0 -0.79553813115E+01 -0.16004136617E+01 -0.61185707880E+01  0.10162987956E+02  0.00000000000E+00 0.  1.
</event>
<event>
 7    1  0.4346085E-013  0.5930194E+02  0.7816164E-02  0.1266605E+00
        -11   -1    0    0    0    0  0.00000000000E+00  0.00000000000E+00  0.45593999997E+02  0.45594000000E+02  0.51100000000E-03 0.  1.
         11   -1    0    0    0    0 -0.00000000000E+00 -0.00000000000E+00 -0.45593999997E+02  0.45594000000E+02  0.51100000000E-03 0. -1.
    9900012    2    1    2    0    0 -0.55023437208E+01  0.29162887740E+02  0.11660664399E+02  0.59301938751E+02  0.49999990376E+02 0.  0.
         12    1    1    2    0    0  0.55023437208E+01 -0.29162887740E+02 -0.11660664399E+02  0.31886061249E+02  0.00000000000E+00 0. -1.
         11    1    3    3    0    0  0.15678344347E+01  0.13520373531E+01 -0.58064599815E+01  0.61645022181E+01  0.51100000000E-03 0. -1.
        -11    1    3    3    0    0  0.38290195725E+01  0.19914695604E+02  0.29017647437E+02  0.35401699887E+02  0.51100000000E-03 0.  1.
        -12    1    3    3    0    0 -0.10899197728E+02  0.78961547837E+01 -0.11550523057E+02  0.17735736646E+02  0.00000000000E+00 0.  1.
</event>
<event>
 7    1  0.4346085E-013  0.5930197E+02  0.7816164E-02  0.1266605E+00
        -11   -1    0    0    0    0  0.00000000000E+00  0.00000000000E+00  0.45593999997E+02  0.45594000000E+02  0.51100000000E-03 0.  1.
         11   -1    0    0    0    0 -0.00000000000E+00 -0.00000000000E+00 -0.45593999997E+02  0.45594000000E+02  0.51100000000E-03 0. -1.
    9900012    2    1    2    0    0  0.27691337497E+02 -0.14300005982E+02  0.67393173903E+01  0.59301972616E+02  0.50000052137E+02 0.  0.
         12    1    1    2    0    0 -0.27691337497E+02  0.14300005982E+02 -0.67393173903E+01  0.31886027384E+02  0.00000000000E+00 0. -1.
         11    1    3    3    0    0  0.69666711385E+00 -0.11654461226E+02 -0.94368014680E+01  0.15012162860E+02  0.51100000000E-03 0. -1.
        -11    1    3    3    0    0  0.17612874756E+02  0.13341056138E+02  0.50298588472E+01  0.22660463727E+02  0.51100000000E-03 0.  1.
        -12    1    3    3    0    0  0.93817956276E+01 -0.15986600895E+02  0.11146260011E+02  0.21629346028E+02  0.00000000000E+00 0.  1.
</event>
<event>
 7    1  0.4346085E-013  0.5930194E+02  0.7816164E-02  0.1266605E+00
        -11   -1    0    0    0    0  0.00000000000E+00  0.00000000000E+00  0.45593999997E+02  0.45594000000E+02  0.51100000000E-03 0. -1.
         11   -1    0    0    0    0 -0.00000000000E+00 -0.00000000000E+00 -0.45593999997E+02  0.45594000000E+02  0.51100000000E-03 0.  1.
    9900012    2    1    2    0    0  0.27151752612E+02 -0.32702365659E+01 -0.16395379121E+02  0.59301943899E+02  0.49999999766E+02 0.  0.
         12    1    1    2    0    0 -0.27151752612E+02  0.32702365659E+01  0.16395379121E+02  0.31886056101E+02  0.00000000000E+00 0. -1.
         11    1    3    3    0    0  0.37119672224E+02  0.11175087588E+02 -0.11188695150E+02  0.40347732874E+02  0.51100000000E-03 0. -1.
        -11    1    3    3    0    0 -0.32718094589E+01 -0.35632932498E+01 -0.36963150093E+01  0.60880654422E+01  0.51100000000E-03 0.  1.
         12    1    3    3    0    0 -0.66961101525E+01 -0.10882030905E+02 -0.15103689616E+01  0.12866145584E+02  0.00000000000E+00 0. -1.
</event>
<event>
 7    1  0.4346085E-013  0.5930197E+02  0.7816164E-02  0.1266605E+00
        -11   -1    0    0    0    0  0.00000000000E+00  0.00000000000E+00  0.45593999997E+02  0.45594000000E+02  0.51100000000E-03 0. -1.
         11   -1    0    0    0    0 -0.00000000000E+00 -0.00000000000E+00 -0.45593999997E+02  0.45594000000E+02  0.51100000000E-03 0.  1.
    9900012    2    1    2    0    0 -0.19029764300E+02  0.65228108904E+01 -0.24739445036E+02  0.59301966507E+02  0.50000040998E+02 0.  0.
         12    1    1    2    0    0  0.19029764300E+02 -0.65228108904E+01  0.24739445036E+02  0.31886033493E+02  0.00000000000E+00 0. -1.
         11    1    3    3    0    0 -0.14835153393E+02 -0.11787070953E+02 -0.65192974139E+01  0.20037915482E+02  0.51100000000E-03 0. -1.
        -11    1    3    3    0    0  0.25042842424E+01  0.21199316966E+02 -0.22328891934E+02  0.30891129709E+02  0.51100000000E-03 0.  1.
        -12    1    3    3    0    0 -0.66988951487E+01 -0.28894351229E+01  0.41087443125E+01  0.83729213163E+01  0.00000000000E+00 0.  1.
</event>
<event>
 7    1  0.4346085E-013  0.5930183E+02  0.7816164E-02  0.1266605E+00
        -11   -1    0    0    0    0  0.00000000000E+00  0.00000000000E+00  0.45593999997E+02  0.45594000000E+02  0.51100000000E-03 0. -1.
         11   -1    0    0    0    0 -0.00000000000E+00 -0.00000000000E+00 -0.45593999997E+02  0.45594000000E+02  0.51100000000E-03 0.  1.
    9900012    2    1    2    0    0  0.61397127482E+01 -0.22873211533E+02 -0.21350592565E+02  0.59301832445E+02  0.49999796499E+02 0.  0.
         12    1    1    2    0    0 -0.61397127482E+01  0.22873211533E+02  0.21350592565E+02  0.31886167555E+02  0.00000000000E+00 0. -1.
         11    1    3    3    0    0  0.10216993447E+02 -0.35749233992E+01 -0.21256613410E+02  0.23853944041E+02  0.51100000000E-03 0. -1.
        -11    1    3    3    0    0 -0.13514901696E+02 -0.21194844010E+02 -0.31836515002E+01  0.25337908706E+02  0.51100000000E-03 0.  1.
         12    1    3    3    0    0  0.94376209975E+01  0.18965558757E+01  0.30896723446E+01  0.10109979697E+02  0.00000000000E+00 0. -1.
</event>
<event>
 7    1  0.4346085E-013  0.5930195E+02  0.7816164E-02  0.1266605E+00
        -11   -1    0    0    0    0  0.00000000000E+00  0.00000000000E+00  0.45593999997E+02  0.45594000000E+02  0.51100000000E-03 0. -1.
         11   -1    0    0    0    0 -0.00000000000E+00 -0.00000000000E+00 -0.45593999997E+02  0.45594000000E+02  0.51100000000E-03 0.  1.
    9900012    2    1    2    0    0 -0.82895298074E+01  0.15179139872E+02 -0.26788016396E+02  0.59301946401E+02  0.50000004329E+02 0.  0.
         12    1    1    2    0    0  0.82895298074E+01 -0.15179139872E+02  0.26788016396E+02  0.31886053599E+02  0.00000000000E+00 0. -1.
         11    1    3    3    0    0  0.13668322561E+02 -0.70378595081E+00 -0.18170538090E+02  0.22748336445E+02  0.51100000000E-03 0. -1.
        -11    1    3    3    0    0 -0.15603240840E+02 -0.25940525319E+01 -0.56183440018E+01  0.16785589738E+02  0.51100000000E-03 0.  1.
         12    1    3    3    0    0 -0.63546115282E+01  0.18476978354E+02 -0.29991343041E+01  0.19768020218E+02  0.00000000000E+00 0. -1.
</event>
<event>
 7    1  0.4346085E-013  0.5930193E+02  0.7816164E-02  0.1266605E+00
        -11   -1    0    0    0    0  0.00000000000E+00  0.00000000000E+00  0.45593999997E+02  0.45594000000E+02  0.51100000000E-03 0.  1.
         11   -1    0    0    0    0 -0.00000000000E+00 -0.00000000000E+00 -0.45593999997E+02  0.45594000000E+02  0.51100000000E-03 0. -1.
    9900012    2    1    2    0    0  0.16474317634E+02 -0.24696667659E+02  0.11635832975E+02  0.59301934956E+02  0.49999983456E+02 0.  0.
         12    1    1    2    0    0 -0.16474317634E+02  0.24696667659E+02 -0.11635832975E+02  0.31886065044E+02  0.00000000000E+00 0. -1.
         11    1    3    3    0    0  0.25484134839E+02 -0.15851052643E+02 -0.88647840930E+01  0.31293472093E+02  0.51100000000E-03 0. -1.
        -11    1    3    3    0    0 -0.43674238573E+01 -0.11408097476E+02  0.18836764595E+02  0.22450897083E+02  0.51100000000E-03 0.  1.
         12    1    3    3    0    0 -0.46423933479E+01  0.25624824589E+01  0.16638524725E+01  0.55575657800E+01  0.00000000000E+00 0. -1.
</event>
<event>
 7    1  0.4346085E-013  0.5930192E+02  0.7816164E-02  0.1266605E+00
        -11   -1    0    0    0    0  0.00000000000E+00  0.00000000000E+00  0.45593999997E+02  0.45594000000E+02  0.51100000000E-03 0.  1.
         11   -1    0    0    0    0 -0.00000000000E+00 -0.00000000000E+00 -0.45593999997E+02  0.45594000000E+02  0.51100000000E-03 0. -1.
    9900012    2    1    2    0    0  0.12786618734E+02 -0.20327243596E+02  0.20976837647E+02  0.59301918890E+02  0.49999954156E+02 0.  0.
         12    1    1    2    0    0 -0.12786618734E+02  0.20327243596E+02 -0.20976837647E+02  0.31886081110E+02  0.00000000000E+00 0. -1.
         11    1    3    3    0    0  0.12395294903E+02 -0.23803612497E+01  0.81769185309E+01  0.15038997717E+02  0.51100000000E-03 0. -1.
        -11    1    3    3    0    0 -0.27103258139E+01 -0.16297216128E+02 -0.11230725655E+02  0.19976844559E+02  0.51100000000E-03 0.  1.
        -12    1    3    3    0    0  0.31016496441E+01 -0.16496662180E+01  0.24030644772E+02  0.24286076614E+02  0.00000000000E+00 0.  1.
</event>
<event>
 7    1  0.4346085E-013  0.5930195E+02  0.7816164E-02  0.1266605E+00
        -11   -1    0    0    0    0  0.00000000000E+00  0.00000000000E+00  0.45593999997E+02  0.45594000000E+02  0.51100000000E-03 0.  1.
         11   -1    0    0    0    0 -0.00000000000E+00 -0.00000000000E+00 -0.45593999997E+02  0.45594000000E+02  0.51100000000E-03 0. -1.
    9900012    2    1    2    0    0 -0.11408909914E+02  0.28380967557E+02  0.90043194436E+01  0.59301947978E+02  0.50000007204E+02 0.  0.
         12    1    1    2    0    0  0.11408909914E+02 -0.28380967557E+02 -0.90043194436E+01  0.31886052022E+02  0.00000000000E+00 0. -1.
         11    1    3    3    0    0 -0.14279478738E+02  0.11669194762E+02 -0.14048691707E+01  0.18494520190E+02  0.51100000000E-03 0. -1.
        -11    1    3    3    0    0  0.15515045394E+02  0.18964733811E+02  0.12950962721E+02  0.27714710855E+02  0.51100000000E-03 0.  1.
        -12    1    3    3    0    0 -0.12644476570E+02 -0.22529610158E+01 -0.25417741063E+01  0.13092716933E+02  0.00000000000E+00 0.  1.
</event>
<event>
 7    1  0.4346085E-013  0.5930198E+02  0.7816164E-02  0.1266605E+00
        -11   -1    0    0    0    0  0.00000000000E+00  0.00000000000E+00  0.45593999997E+02  0.45594000000E+02  0.51100000000E-03 0.  1.
         11   -1    0    0    0    0 -0.00000000000E+00 -0.00000000000E+00 -0.45593999997E+02  0.45594000000E+02  0.51100000000E-03 0. -1.
    9900012    2    1    2    0    0 -0.19036426196E+02 -0.91244801526E+01  0.23897207355E+02  0.59301981438E+02  0.50000068228E+02 0.  0.
         12    1    1    2    0    0  0.19036426196E+02  0.91244801526E+01 -0.23897207355E+02  0.31886018562E+02  0.00000000000E+00 0. -1.
         11    1    3    3    0    0 -0.95187601128E+01 -0.50740017901E+00 -0.78717906220E+01  0.12362416304E+02  0.51100000000E-03 0. -1.
        -11    1    3    3    0    0 -0.15351798556E+02 -0.68568081130E+01  0.35855788184E+02  0.39602160079E+02  0.51100000000E-03 0.  1.
        -12    1    3    3    0    0  0.58341324731E+01 -0.17602718606E+01 -0.40867902073E+01  0.73374050546E+01  0.00000000000E+00 0.  1.
</event>
<event>
 7    1  0.4346085E-013  0.5930181E+02  0.7816164E-02  0.1266605E+00
        -11   -1    0    0    0    0  0.00000000000E+00  0.00000000000E+00  0.45593999997E+02  0.45594000000E+02  0.51100000000E-03 0. -1.
         11   -1    0    0    0    0 -0.00000000000E+00 -0.00000000000E+00 -0.45593999997E+02  0.45594000000E+02  0.51100000000E-03 0.  1.
    9900012    2    1    2    0    0 -0.18004740996E+02  0.23116286594E+02  0.12577585084E+02  0.59301810972E+02  0.49999757337E+02 0.  0.
         12    1    1    2    0    0  0.18004740996E+02 -0.23116286594E+02 -0.12577585084E+02  0.31886189028E+02  0.00000000000E+00 0. -1.
         11    1    3    3    0    0  0.47697779469E+01  0.17916660223E+02  0.24838692398E+01  0.18706338548E+02  0.51100000000E-03 0. -1.
        -11    1    3    3    0    0 -0.30060228495E+02 -0.38427863756E+00  0.88081248036E+01  0.31326475545E+02  0.51100000000E-03 0.  1.
         12    1    3    3    0    0  0.72857095521E+01  0.55839050082E+01  0.12855910405E+01  0.92689968789E+01  0.00000000000E+00 0. -1.
</event>
<event>
 7    1  0.4346085E-013  0.5930179E+02  0.7816164E-02  0.1266605E+00
        -11   -1    0    0    0    0  0.00000000000E+00  0.00000000000E+00  0.45593999997E+02  0.45594000000E+02  0.51100000000E-03 0.  1.
         11   -1    0    0    0    0 -0.00000000000E+00 -0.00000000000E+00 -0.45593999997E+02  0.45594000000E+02  0.51100000000E-03 0. -1.
    9900012    2    1    2    0    0  0.10701791877E+02  0.71713264249E+01  0.29168027522E+02  0.59301794493E+02  0.49999727285E+02 0.  0.
         12    1    1    2    0    0 -0.10701791877E+02 -0.71713264249E+01 -0.29168027522E+02  0.31886205507E+02  0.00000000000E+00 0. -1.
         11    1    3    3    0    0  0.13118097806E+02 -0.13435825193E+02  0.21111641973E+01  0.18896108150E+02  0.51100000000E-03 0. -1.
        -11    1    3    3    0    0 -0.41708191611E+01  0.16777470038E+02  0.50661336259E+01  0.18015130960E+02  0.51100000000E-03 0.  1.
         12    1    3    3    0    0  0.17545132323E+01  0.38296815806E+01  0.21990729699E+02  0.22390555384E+02  0.00000000000E+00 0. -1.
</event>
<event>
 7    1  0.4346085E-013  0.5930196E+02  0.7816164E-02  0.1266605E+00
        -11   -1    0    0    0    0  0.00000000000E+00  0.00000000000E+00  0.45593999997E+02  0.45594000000E+02  0.51100000000E-03 0.  1.
         11   -1    0    0    0    0 -0.00000000000E+00 -0.00000000000E+00 -0.45593999997E+02  0.45594000000E+02  0.51100000000E-03 0. -1.
    9900012    2    1    2    0    0 -0.14723991875E+02  0.12256444555E+02  0.25489277115E+02  0.59301958889E+02  0.50000027103E+02 0.  0.
         12    1    1    2    0    0  0.14723991875E+02 -0.12256444555E+02 -0.25489277115E+02  0.31886041111E+02  0.00000000000E+00 0. -1.
         11    1    3    3    0    0 -0.29860994522E+02  0.68010577171E+01  0.22030392438E+02  0.37726271631E+02  0.51100000000E-03 0. -1.
        -11    1    3    3    0    0  0.44847452046E+01 -0.47439689692E+01  0.62525754287E+00  0.65581345203E+01  0.51100000000E-03 0.  1.
         12    1    3    3    0    0  0.10652257442E+02  0.10199355808E+02  0.28336271340E+01  0.15017552738E+02  0.00000000000E+00 0. -1.
</event>
<event>
 7    1  0.4346085E-013  0.5930196E+02  0.7816164E-02  0.1266605E+00
        -11   -1    0    0    0    0  0.00000000000E+00  0.00000000000E+00  0.45593999997E+02  0.45594000000E+02  0.51100000000E-03 0. -1.
         11   -1    0    0    0    0 -0.00000000000E+00 -0.00000000000E+00 -0.45593999997E+02  0.45594000000E+02  0.51100000000E-03 0.  1.
    9900012    2    1    2    0    0 -0.25977024887E+02 -0.97431542063E+01 -0.15715744498E+02  0.59301960719E+02  0.50000030441E+02 0.  0.
         12    1    1    2    0    0  0.25977024887E+02  0.97431542063E+01  0.15715744498E+02  0.31886039281E+02  0.00000000000E+00 0. -1.
         11    1    3    3    0    0 -0.18487336686E+02  0.16742835918E+01  0.11507396804E+02  0.21840444702E+02  0.51100000000E-03 0. -1.
        -11    1    3    3    0    0  0.72180367896E+01 -0.75107494180E+01 -0.12702112579E+02  0.16427266241E+02  0.51100000000E-03 0.  1.
        -12    1    3    3    0    0 -0.14707724990E+02 -0.39066883801E+01 -0.14521028723E+02  0.21034249776E+02  0.00000000000E+00 0.  1.
</event>
<event>
 7    1  0.4346085E-013  0.5930196E+02  0.7816164E-02  0.1266605E+00
        -11   -1    0    0    0    0  0.00000000000E+00  0.00000000000E+00  0.45593999997E+02  0.45594000000E+02  0.51100000000E-03 0.  1.
         11   -1    0    0    0    0 -0.00000000000E+00 -0.00000000000E+00 -0.45593999997E+02  0.45594000000E+02  0.51100000000E-03 0. -1.
    9900012    2    1    2    0    0 -0.29792725765E+02 -0.75870310472E+01 -0.84587143040E+01  0.59301962361E+02  0.50000033435E+02 0.  0.
         12    1    1    2    0    0  0.29792725765E+02  0.75870310472E+01  0.84587143040E+01  0.31886037639E+02  0.00000000000E+00 0. -1.
         11    1    3    3    0    0 -0.33636991101E+02  0.69872996640E+00  0.40597632680E+01  0.33888302878E+02  0.51100000000E-03 0. -1.
        -11    1    3    3    0    0 -0.48001256611E+01 -0.87737573897E+01 -0.13389022120E+02  0.16711850248E+02  0.51100000000E-03 0.  1.
         12    1    3    3    0    0  0.86443909964E+01  0.48799637606E+00  0.87054454833E+00  0.87018092356E+01  0.00000000000E+00 0. -1.
</event>
<event>
 7    1  0.4346085E-013  0.5930192E+02  0.7816164E-02  0.1266605E+00
        -11   -1    0    0    0    0  0.00000000000E+00  0.00000000000E+00  0.45593999997E+02  0.45594000000E+02  0.51100000000E-03 0.  1.
         11   -1    0    0    0    0 -0.00000000000E+00 -0.00000000000E+00 -0.45593999997E+02  0.45594000000E+02  0.51100000000E-03 0. -1.
    9900012    2    1    2    0    0  0.71134755706E+01 -0.22654961847E+02  0.21280821934E+02  0.59301918191E+02  0.49999952879E+02 0.  0.
         12    1    1    2    0    0 -0.71134755706E+01  0.22654961847E+02 -0.21280821934E+02  0.31886081809E+02  0.00000000000E+00 0. -1.
         11    1    3    3    0    0 -0.10995867258E+02 -0.25771615880E+01 -0.91011986481E+01  0.14504574303E+02  0.51100000000E-03 0. -1.
        -11    1    3    3    0    0  0.72412657356E+01 -0.19661884846E+02  0.14242381970E+02  0.25335174947E+02  0.51100000000E-03 0.  1.
         12    1    3    3    0    0  0.10868077093E+02 -0.41591541241E+00  0.16139638612E+02  0.19462168940E+02  0.00000000000E+00 0. -1.
</event>
<event>
 7    1  0.4346085E-013  0.5930195E+02  0.7816164E-02  0.1266605E+00
        -11   -1    0    0    0    0  0.00000000000E+00  0.00000000000E+00  0.45593999997E+02  0.45594000000E+02  0.51100000000E-03 0.  1.
         11   -1    0    0    0    0 -0.00000000000E+00 -0.00000000000E+00 -0.45593999997E+02  0.45594000000E+02  0.51100000000E-03 0. -1.
    9900012    2    1    2    0    0  0.27742988112E+02 -0.15557635156E+02 -0.22376381399E+01  0.59301946223E+02  0.50000004004E+02 0.  0.
         12    1    1    2    0    0 -0.27742988112E+02  0.15557635156E+02  0.22376381399E+01  0.31886053777E+02  0.00000000000E+00 0. -1.
         11    1    3    3    0    0  0.30800587422E+01 -0.10743891358E+02 -0.63672411224E+01  0.12863114830E+02  0.51100000000E-03 0. -1.
        -11    1    3    3    0    0  0.23900115274E+02 -0.15022678847E+02  0.14611832784E+02  0.31786821914E+02  0.51100000000E-03 0.  1.
        -12    1    3    3    0    0  0.76281409576E+00  0.10208935048E+02 -0.10482229802E+02  0.14652009479E+02  0.00000000000E+00 0.  1.
</event>
<event>
 7    1  0.4346085E-013  0.5930194E+02  0.7816164E-02  0.1266605E+00
        -11   -1    0    0    0    0  0.00000000000E+00  0.00000000000E+00  0.45593999997E+02  0.45594000000E+02  0.51100000000E-03 0.  1.
         11   -1    0    0    0    0 -0.00000000000E+00 -0.00000000000E+00 -0.45593999997E+02  0.45594000000E+02  0.51100000000E-03 0. -1.
    9900012    2    1    2    0    0 -0.75363645106E+01 -0.12135236077E+02  0.28507197390E+02  0.59301936466E+02  0.49999986209E+02 0.  0.
         12    1    1    2    0    0  0.75363645106E+01  0.12135236077E+02 -0.28507197390E+02  0.31886063534E+02  0.00000000000E+00 0. -1.
         11    1    3    3    0    0 -0.44621483516E+01 -0.18590573876E+02 -0.61854528950E+01  0.20094278607E+02  0.51100000000E-03 0. -1.
        -11    1    3    3    0    0  0.44443769182E+01  0.36187966103E+00  0.25407986212E+02  0.25796302190E+02  0.51100000000E-03 0.  1.
         12    1    3    3    0    0 -0.75185930772E+01  0.60934581375E+01  0.92846640725E+01  0.13411355669E+02  0.00000000000E+00 0. -1.
</event>
<event>
 7    1  0.4346085E-013  0.5930192E+02  0.7816164E-02  0.1266605E+00
        -11   -1    0    0    0    0  0.00000000000E+00  0.00000000000E+00  0.45593999997E+02  0.45594000000E+02  0.51100000000E-03 0. -1.
         11   -1    0    0    0    0 -0.00000000000E+00 -0.00000000000E+00 -0.45593999997E+02  0.45594000000E+02  0.51100000000E-03 0.  1.
    9900012    2    1    2    0    0 -0.96780501930E+01  0.17879236361E+02 -0.24564003669E+02  0.59301921147E+02  0.49999958270E+02 0.  0.
         12    1    1    2    0    0  0.96780501930E+01 -0.17879236361E+02  0.24564003669E+02  0.31886078853E+02  0.00000000000E+00 0. -1.
         11    1    3    3    0    0 -0.12754406221E+02  0.31042731712E+02 -0.20811195872E+02  0.39489643505E+02  0.51100000000E-03 0. -1.
        -11    1    3    3    0    0  0.54597581679E+01 -0.44041176044E+01  0.38228120482E+01  0.79886859584E+01  0.51100000000E-03 0.  1.
         12    1    3    3    0    0 -0.23834021394E+01 -0.87593777466E+01 -0.75756198447E+01  0.11823591683E+02  0.00000000000E+00 0. -1.
</event>
<event>
 7    1  0.4346085E-013  0.5930195E+02  0.7816164E-02  0.1266605E+00
        -11   -1    0    0    0    0  0.00000000000E+00  0.00000000000E+00  0.45593999997E+02  0.45594000000E+02  0.51100000000E-03 0.  1.
         11   -1    0    0    0    0 -0.00000000000E+00 -0.00000000000E+00 -0.45593999997E+02  0.45594000000E+02  0.51100000000E-03 0. -1.
    9900012    2    1    2    0    0 -0.60456560858E+01  0.62022745061E+01  0.30687165221E+02  0.59301948569E+02  0.50000008282E+02 0.  0.
         12    1    1    2    0    0  0.60456560858E+01 -0.62022745061E+01 -0.30687165221E+02  0.31886051431E+02  0.00000000000E+00 0. -1.
         11    1    3    3    0    0 -0.91428750151E+01  0.12590729290E+01  0.15861793946E+02  0.18351401462E+02  0.51100000000E-03 0.  1.
        -11    1    3    3    0    0 -0.90555396952E+01  0.17297415740E+01 -0.97056266745E+01  0.13386336112E+02  0.51100000000E-03 0. -1.
        -12    1    3    3    0    0  0.12152758624E+02  0.32134600031E+01  0.24530997950E+02  0.27564210995E+02  0.00000000000E+00 0.  1.
</event>
<event>
 7    1  0.4346085E-013  0.5930194E+02  0.7816164E-02  0.1266605E+00
        -11   -1    0    0    0    0  0.00000000000E+00  0.00000000000E+00  0.45593999997E+02  0.45594000000E+02  0.51100000000E-03 0. -1.
         11   -1    0    0    0    0 -0.00000000000E+00 -0.00000000000E+00 -0.45593999997E+02  0.45594000000E+02  0.51100000000E-03 0.  1.
    9900012    2    1    2    0    0  0.10155572495E+02 -0.25944076060E+02  0.15507747318E+02  0.59301937807E+02  0.49999988656E+02 0.  0.
         12    1    1    2    0    0 -0.10155572495E+02  0.25944076060E+02 -0.15507747318E+02  0.31886062193E+02  0.00000000000E+00 0. -1.
         11    1    3    3    0    0 -0.86171295395E+01 -0.18178096870E+01  0.90054540203E+01  0.12595934103E+02  0.51100000000E-03 0. -1.
        -11    1    3    3    0    0  0.27250593925E+02 -0.11999142787E+02 -0.16334130495E+01  0.29820166587E+02  0.51100000000E-03 0.  1.
        -12    1    3    3    0    0 -0.84778918900E+01 -0.12127123586E+02  0.81357063468E+01  0.16885837117E+02  0.00000000000E+00 0.  1.
</event>
<event>
 7    1  0.4346085E-013  0.5930164E+02  0.7816164E-02  0.1266606E+00
        -11   -1    0    0    0    0  0.00000000000E+00  0.00000000000E+00  0.45593999997E+02  0.45594000000E+02  0.51100000000E-03 0.  1.
         11   -1    0    0    0    0 -0.00000000000E+00 -0.00000000000E+00 -0.45593999997E+02  0.45594000000E+02  0.51100000000E-03 0. -1.
    9900012    2    1    2    0    0  0.25412047996E+02  0.14072020990E+02  0.13150904459E+02  0.59301635420E+02  0.49999437170E+02 0.  0.
         12    1    1    2    0    0 -0.25412047996E+02 -0.14072020990E+02 -0.13150904459E+02  0.31886364580E+02  0.00000000000E+00 0. -1.
         11    1    3    3    0    0 -0.88508185084E+01  0.37537877810E+01 -0.84441374262E+01  0.12795755863E+02  0.51100000000E-03 0. -1.
        -11    1    3    3    0    0  0.47519357733E+01  0.10562426766E+02  0.46949587259E+01  0.12497535376E+02  0.51100000000E-03 0.  1.
         12    1    3    3    0    0  0.29510930731E+02 -0.24419355720E+00  0.16900083159E+02  0.34008344180E+02  0.00000000000E+00 0. -1.
</event>
<event>
 7    1  0.4346085E-013  0.5930194E+02  0.7816164E-02  0.1266605E+00
        -11   -1    0    0    0    0  0.00000000000E+00  0.00000000000E+00  0.45593999997E+02  0.45594000000E+02  0.51100000000E-03 0.  1.
         11   -1    0    0    0    0 -0.00000000000E+00 -0.00000000000E+00 -0.45593999997E+02  0.45594000000E+02  0.51100000000E-03 0. -1.
    9900012    2    1    2    0    0  0.19654050015E+02 -0.36272755753E+01  0.24845160477E+02  0.59301940205E+02  0.49999993028E+02 0.  0.
         12    1    1    2    0    0 -0.19654050015E+02  0.36272755753E+01 -0.24845160477E+02  0.31886059795E+02  0.00000000000E+00 0. -1.
         11    1    3    3    0    0 -0.11473332435E+02 -0.58376807475E+00  0.59226292651E+01  0.12925002128E+02  0.51100000000E-03 0. -1.
        -11    1    3    3    0    0  0.14421028619E+02 -0.68182073438E+01 -0.52129504655E+01  0.16781801769E+02  0.51100000000E-03 0.  1.
         12    1    3    3    0    0  0.16706353831E+02  0.37746998432E+01  0.24135481678E+02  0.29595136308E+02  0.00000000000E+00 0. -1.
</event>
<event>
 7    1  0.4346085E-013  0.5930195E+02  0.7816164E-02  0.1266605E+00
        -11   -1    0    0    0    0  0.00000000000E+00  0.00000000000E+00  0.45593999997E+02  0.45594000000E+02  0.51100000000E-03 0.  1.
         11   -1    0    0    0    0 -0.00000000000E+00 -0.00000000000E+00 -0.45593999997E+02  0.45594000000E+02  0.51100000000E-03 0. -1.
    9900012    2    1    2    0    0  0.30832682663E+02  0.29428098069E+01 -0.75766665807E+01  0.59301947779E+02  0.50000006842E+02 0.  0.
         12    1    1    2    0    0 -0.30832682663E+02 -0.29428098069E+01  0.75766665807E+01  0.31886052221E+02  0.00000000000E+00 0. -1.
         11    1    3    3    0    0 -0.65819089237E+01  0.62711873042E+01  0.10493264532E+02  0.13883728465E+02  0.51100000000E-03 0. -1.
        -11    1    3    3    0    0  0.26197126250E+02  0.15863248592E+01 -0.36472226298E+01  0.26497322195E+02  0.51100000000E-03 0.  1.
         12    1    3    3    0    0  0.11217465336E+02 -0.49147023565E+01 -0.14422708483E+02  0.18920897119E+02  0.00000000000E+00 0. -1.
</event>
<event>
 7    1  0.4346085E-013  0.5930195E+02  0.7816164E-02  0.1266605E+00
        -11   -1    0    0    0    0  0.00000000000E+00  0.00000000000E+00  0.45593999997E+02  0.45594000000E+02  0.51100000000E-03 0. -1.
         11   -1    0    0    0    0 -0.00000000000E+00 -0.00000000000E+00 -0.45593999997E+02  0.45594000000E+02  0.51100000000E-03 0.  1.
    9900012    2    1    2    0    0 -0.28097762522E+02 -0.13534740044E+02  0.66367604946E+01  0.59301952320E+02  0.50000015123E+02 0.  0.
         12    1    1    2    0    0  0.28097762522E+02  0.13534740044E+02 -0.66367604946E+01  0.31886047680E+02  0.00000000000E+00 0. -1.
         11    1    3    3    0    0 -0.67639734568E+01  0.75195419722E+01  0.19923145022E+02  0.22343378353E+02  0.51100000000E-03 0. -1.
        -11    1    3    3    0    0 -0.42381529052E+01  0.47418727163E+00 -0.78528362066E+01  0.89360970431E+01  0.51100000000E-03 0.  1.
         12    1    3    3    0    0 -0.17095636160E+02 -0.21528469288E+02 -0.54335483211E+01  0.28022476924E+02  0.00000000000E+00 0. -1.
</event>
<event>
 7    1  0.4346085E-013  0.5930191E+02  0.7816164E-02  0.1266605E+00
        -11   -1    0    0    0    0  0.00000000000E+00  0.00000000000E+00  0.45593999997E+02  0.45594000000E+02  0.51100000000E-03 0. -1.
         11   -1    0    0    0    0 -0.00000000000E+00 -0.00000000000E+00 -0.45593999997E+02  0.45594000000E+02  0.51100000000E-03 0.  1.
    9900012    2    1    2    0    0 -0.19760637726E+02  0.24436306757E+02 -0.53950997597E+01  0.59301905967E+02  0.49999930587E+02 0.  0.
         12    1    1    2    0    0  0.19760637726E+02 -0.24436306757E+02  0.53950997597E+01  0.31886094033E+02  0.00000000000E+00 0. -1.
         11    1    3    3    0    0  0.76033915901E+01  0.21487603369E+01 -0.13642408908E+02  0.15765280072E+02  0.51100000000E-03 0.  1.
        -11    1    3    3    0    0 -0.31753162616E+02  0.19794358700E+02  0.88584516613E+01  0.38451945836E+02  0.51100000000E-03 0. -1.
         12    1    3    3    0    0  0.43891333006E+01  0.24931877196E+01 -0.61114251299E+00  0.50846800595E+01  0.00000000000E+00 0. -1.
</event>
<event>
 7    1  0.4346085E-013  0.5930196E+02  0.7816164E-02  0.1266605E+00
        -11   -1    0    0    0    0  0.00000000000E+00  0.00000000000E+00  0.45593999997E+02  0.45594000000E+02  0.51100000000E-03 0. -1.
         11   -1    0    0    0    0 -0.00000000000E+00 -0.00000000000E+00 -0.45593999997E+02  0.45594000000E+02  0.51100000000E-03 0.  1.
    9900012    2    1    2    0    0  0.19942093681E+02  0.77268132261E+01 -0.23650129418E+02  0.59301962860E+02  0.50000034345E+02 0.  0.
         12    1    1    2    0    0 -0.19942093681E+02 -0.77268132261E+01  0.23650129418E+02  0.31886037140E+02  0.00000000000E+00 0. -1.
         11    1    3    3    0    0 -0.16411493763E+01 -0.83745922687E+01  0.76285039953E+01  0.11446450996E+02  0.51100000000E-03 0. -1.
        -11    1    3    3    0    0  0.53273727033E+01  0.18947969130E+02 -0.18026314401E+02  0.26689969000E+02  0.51100000000E-03 0.  1.
        -12    1    3    3    0    0  0.16255870354E+02 -0.28465636349E+01 -0.13252319012E+02  0.21165542863E+02  0.00000000000E+00 0.  1.
</event>
<event>
 7    1  0.4346085E-013  0.5930197E+02  0.7816164E-02  0.1266605E+00
        -11   -1    0    0    0    0  0.00000000000E+00  0.00000000000E+00  0.45593999997E+02  0.45594000000E+02  0.51100000000E-03 0. -1.
         11   -1    0    0    0    0 -0.00000000000E+00 -0.00000000000E+00 -0.45593999997E+02  0.45594000000E+02  0.51100000000E-03 0.  1.
    9900012    2    1    2    0    0 -0.25841798530E+02 -0.16432419032E+02 -0.88823477351E+01  0.59301967826E+02  0.50000043403E+02 0.  0.
         12    1    1    2    0    0  0.25841798530E+02  0.16432419032E+02  0.88823477351E+01  0.31886032174E+02  0.00000000000E+00 0. -1.
         11    1    3    3    0    0 -0.94773275932E+01 -0.21098798246E+02  0.25124949753E+01  0.23265675512E+02  0.51100000000E-03 0. -1.
        -11    1    3    3    0    0 -0.62743852971E+00  0.53550224228E+01 -0.18122596602E+02  0.18907629469E+02  0.51100000000E-03 0.  1.
         12    1    3    3    0    0 -0.15737032407E+02 -0.68864320829E+00  0.67277538919E+01  0.17128662846E+02  0.00000000000E+00 0. -1.
</event>
<event>
 7    1  0.4346085E-013  0.5930169E+02  0.7816164E-02  0.1266606E+00
        -11   -1    0    0    0    0  0.00000000000E+00  0.00000000000E+00  0.45593999997E+02  0.45594000000E+02  0.51100000000E-03 0.  1.
         11   -1    0    0    0    0 -0.00000000000E+00 -0.00000000000E+00 -0.45593999997E+02  0.45594000000E+02  0.51100000000E-03 0. -1.
    9900012    2    1    2    0    0 -0.54002046890E+01 -0.25381531222E+00  0.31424671554E+02  0.59301692356E+02  0.49999541009E+02 0.  0.
         12    1    1    2    0    0  0.54002046890E+01  0.25381531222E+00 -0.31424671554E+02  0.31886307644E+02  0.00000000000E+00 0. -1.
         11    1    3    3    0    0  0.67861887667E+01 -0.80227738939E+01 -0.36629988882E+01  0.11128109455E+02  0.51100000000E-03 0. -1.
        -11    1    3    3    0    0 -0.19295330956E+02  0.91636533510E+01  0.13181222285E+02  0.25100337859E+02  0.51100000000E-03 0.  1.
        -12    1    3    3    0    0  0.71089375002E+01 -0.13946947694E+01  0.21906448157E+02  0.23073245042E+02  0.00000000000E+00 0.  1.
</event>
<event>
 7    1  0.4346085E-013  0.5930195E+02  0.7816164E-02  0.1266605E+00
        -11   -1    0    0    0    0  0.00000000000E+00  0.00000000000E+00  0.45593999997E+02  0.45594000000E+02  0.51100000000E-03 0.  1.
         11   -1    0    0    0    0 -0.00000000000E+00 -0.00000000000E+00 -0.45593999997E+02  0.45594000000E+02  0.51100000000E-03 0. -1.
    9900012    2    1    2    0    0  0.21218607863E+02 -0.90664948431E+01  0.22006585221E+02  0.59301945972E+02  0.50000003546E+02 0.  0.
         12    1    1    2    0    0 -0.21218607863E+02  0.90664948431E+01 -0.22006585221E+02  0.31886054028E+02  0.00000000000E+00 0. -1.
         11    1    3    3    0    0  0.27713694936E+02 -0.92757080312E+01  0.12850756387E+02  0.31925375275E+02  0.51100000000E-03 0. -1.
        -11    1    3    3    0    0 -0.13506863775E+02 -0.68666016466E+01  0.24018357634E+01  0.15341264697E+02  0.51100000000E-03 0.  1.
         12    1    3    3    0    0  0.70117767027E+01  0.70758148347E+01  0.67539930710E+01  0.12035306000E+02  0.00000000000E+00 0. -1.
</event>
<event>
 7    1  0.4346085E-013  0.5930170E+02  0.7816164E-02  0.1266606E+00
        -11   -1    0    0    0    0  0.00000000000E+00  0.00000000000E+00  0.45593999997E+02  0.45594000000E+02  0.51100000000E-03 0.  1.
         11   -1    0    0    0    0 -0.00000000000E+00 -0.00000000000E+00 -0.45593999997E+02  0.45594000000E+02  0.51100000000E-03 0. -1.
    9900012    2    1    2    0    0  0.89205593972E+01 -0.30028984162E+02  0.59514551959E+01  0.59301700611E+02  0.49999556064E+02 0.  0.
         12    1    1    2    0    0 -0.89205593972E+01  0.30028984162E+02 -0.59514551959E+01  0.31886299389E+02  0.00000000000E+00 0. -1.
         11    1    3    3    0    0  0.13688654344E+02  0.20818629842E+01 -0.55809657469E+01  0.14928516006E+02  0.51100000000E-03 0. -1.
        -11    1    3    3    0    0  0.75041578482E+01 -0.18473886837E+02  0.15913333301E+02  0.25511390728E+02  0.51100000000E-03 0.  1.
         12    1    3    3    0    0 -0.12272252795E+02 -0.13636960309E+02 -0.43809123580E+01  0.18861793876E+02  0.00000000000E+00 0. -1.
</event>
<event>
 7    1  0.4346085E-013  0.5930192E+02  0.7816164E-02  0.1266605E+00
        -11   -1    0    0    0    0  0.00000000000E+00  0.00000000000E+00  0.45593999997E+02  0.45594000000E+02  0.51100000000E-03 0. -1.
         11   -1    0    0    0    0 -0.00000000000E+00 -0.00000000000E+00 -0.45593999997E+02  0.45594000000E+02  0.51100000000E-03 0.  1.
    9900012    2    1    2    0    0 -0.32336558159E+01  0.31160493871E+02  0.59404931022E+01  0.59301915786E+02  0.49999948494E+02 0.  0.
         12    1    1    2    0    0  0.32336558159E+01 -0.31160493871E+02 -0.59404931022E+01  0.31886084214E+02  0.00000000000E+00 0. -1.
         11    1    3    3    0    0  0.14541774300E+01 -0.26474674036E+01  0.26822360301E+01  0.40395675552E+01  0.51100000000E-03 0. -1.
        -11    1    3    3    0    0 -0.37715902208E+01  0.14386788859E+02 -0.20015216240E+02  0.24936187918E+02  0.51100000000E-03 0.  1.
        -12    1    3    3    0    0 -0.91624302513E+00  0.19421172416E+02  0.23273473313E+02  0.30326160313E+02  0.00000000000E+00 0.  1.
</event>
<event>
 7    1  0.4346085E-013  0.5930195E+02  0.7816164E-02  0.1266605E+00
        -11   -1    0    0    0    0  0.00000000000E+00  0.00000000000E+00  0.45593999997E+02  0.45594000000E+02  0.51100000000E-03 0. -1.
         11   -1    0    0    0    0 -0.00000000000E+00 -0.00000000000E+00 -0.45593999997E+02  0.45594000000E+02  0.51100000000E-03 0.  1.
    9900012    2    1    2    0    0  0.12467002962E+01  0.21733442309E+02 -0.23298569867E+02  0.59301950792E+02  0.50000012336E+02 0.  0.
         12    1    1    2    0    0 -0.12467002962E+01 -0.21733442309E+02  0.23298569867E+02  0.31886049208E+02  0.00000000000E+00 0. -1.
         11    1    3    3    0    0  0.93579681356E+01  0.17909623677E+02  0.44167766004E+01  0.20684151026E+02  0.51100000000E-03 0. -1.
        -11    1    3    3    0    0 -0.17190522800E+02  0.45357411148E+01 -0.18721009626E+02  0.25817885724E+02  0.51100000000E-03 0.  1.
        -12    1    3    3    0    0  0.90792549602E+01 -0.71192248238E+00 -0.89943368414E+01  0.12799914042E+02  0.00000000000E+00 0.  1.
</event>
<event>
 7    1  0.4346085E-013  0.5930195E+02  0.7816164E-02  0.1266605E+00
        -11   -1    0    0    0    0  0.00000000000E+00  0.00000000000E+00  0.45593999997E+02  0.45594000000E+02  0.51100000000E-03 0. -1.
         11   -1    0    0    0    0 -0.00000000000E+00 -0.00000000000E+00 -0.45593999997E+02  0.45594000000E+02  0.51100000000E-03 0.  1.
    9900012    2    1    2    0    0  0.20797964805E+02  0.11436706402E+02 -0.21292413269E+02  0.59301945741E+02  0.50000003125E+02 0.  0.
         12    1    1    2    0    0 -0.20797964805E+02 -0.11436706402E+02  0.21292413269E+02  0.31886054259E+02  0.00000000000E+00 0. -1.
         11    1    3    3    0    0  0.88238069338E+01  0.13658742800E+02 -0.19812932177E+02  0.25631486601E+02  0.51100000000E-03 0.  1.
        -11    1    3    3    0    0  0.12796454775E+02 -0.15488836410E+02 -0.29126801591E+01  0.20301157950E+02  0.51100000000E-03 0. -1.
         12    1    3    3    0    0 -0.82229690363E+00  0.13266800012E+02  0.14331990670E+01  0.13369301190E+02  0.00000000000E+00 0. -1.
</event>
<event>
 7    1  0.4346085E-013  0.5930199E+02  0.7816164E-02  0.1266605E+00
        -11   -1    0    0    0    0  0.00000000000E+00  0.00000000000E+00  0.45593999997E+02  0.45594000000E+02  0.51100000000E-03 0. -1.
         11   -1    0    0    0    0 -0.00000000000E+00 -0.00000000000E+00 -0.45593999997E+02  0.45594000000E+02  0.51100000000E-03 0.  1.
    9900012    2    1    2    0    0 -0.22957669154E+02  0.22119491144E+02 -0.62536485860E+00  0.59301991428E+02  0.50000086446E+02 0.  0.
         12    1    1    2    0    0  0.22957669154E+02 -0.22119491144E+02  0.62536485860E+00  0.31886008572E+02  0.00000000000E+00 0. -1.
         11    1    3    3    0    0 -0.26908906469E+02  0.19876797008E+02  0.65082926556E+01  0.34081287831E+02  0.51100000000E-03 0.  1.
        -11    1    3    3    0    0  0.11199760246E+02  0.89266311469E+01 -0.38866732294E+01  0.14840000076E+02  0.51100000000E-03 0. -1.
         12    1    3    3    0    0 -0.72485229305E+01 -0.66839370114E+01 -0.32469842848E+01  0.10380703521E+02  0.00000000000E+00 0. -1.
</event>
<event>
 7    1  0.4346085E-013  0.5930199E+02  0.7816164E-02  0.1266605E+00
        -11   -1    0    0    0    0  0.00000000000E+00  0.00000000000E+00  0.45593999997E+02  0.45594000000E+02  0.51100000000E-03 0.  1.
         11   -1    0    0    0    0 -0.00000000000E+00 -0.00000000000E+00 -0.45593999997E+02  0.45594000000E+02  0.51100000000E-03 0. -1.
    9900012    2    1    2    0    0 -0.22205189697E+02  0.13499739283E+02  0.18477134152E+02  0.59301985877E+02  0.50000076323E+02 0.  0.
         12    1    1    2    0    0  0.22205189697E+02 -0.13499739283E+02 -0.18477134152E+02  0.31886014123E+02  0.00000000000E+00 0. -1.
         11    1    3    3    0    0 -0.29312022650E+01 -0.58189560019E+00  0.13850549002E+02  0.14169271581E+02  0.51100000000E-03 0. -1.
        -11    1    3    3    0    0 -0.27903577646E+02  0.18015985393E+01 -0.33059449336E+01  0.28156432212E+02  0.51100000000E-03 0.  1.
        -12    1    3    3    0    0  0.86295902138E+01  0.12280036344E+02  0.79325300828E+01  0.16976282084E+02  0.00000000000E+00 0.  1.
</event>
<event>
 7    1  0.4346085E-013  0.5930194E+02  0.7816164E-02  0.1266605E+00
        -11   -1    0    0    0    0  0.00000000000E+00  0.00000000000E+00  0.45593999997E+02  0.45594000000E+02  0.51100000000E-03 0. -1.
         11   -1    0    0    0    0 -0.00000000000E+00 -0.00000000000E+00 -0.45593999997E+02  0.45594000000E+02  0.51100000000E-03 0.  1.
    9900012    2    1    2    0    0  0.20492938948E+02  0.23723886066E+02 -0.58255804290E+01  0.59301941853E+02  0.49999996034E+02 0.  0.
         12    1    1    2    0    0 -0.20492938948E+02 -0.23723886066E+02  0.58255804290E+01  0.31886058147E+02  0.00000000000E+00 0. -1.
         11    1    3    3    0    0  0.30509188311E+02  0.24217701876E+02 -0.12129830712E+02  0.40797554448E+02  0.51100000000E-03 0. -1.
        -11    1    3    3    0    0  0.16821542534E+01 -0.45991062072E+01  0.27058504936E+01  0.55949126885E+01  0.51100000000E-03 0.  1.
         12    1    3    3    0    0 -0.11698403616E+02  0.41052903974E+01  0.35983997899E+01  0.12909474717E+02  0.00000000000E+00 0. -1.
</event>
<event>
 7    1  0.4346085E-013  0.5930197E+02  0.7816164E-02  0.1266605E+00
        -11   -1    0    0    0    0  0.00000000000E+00  0.00000000000E+00  0.45593999997E+02  0.45594000000E+02  0.51100000000E-03 0.  1.
         11   -1    0    0    0    0 -0.00000000000E+00 -0.00000000000E+00 -0.45593999997E+02  0.45594000000E+02  0.51100000000E-03 0. -1.
    9900012    2    1    2    0    0  0.21422616232E+02  0.23133672550E+02 -0.47564073326E+01  0.59301973239E+02  0.50000053275E+02 0.  0.
         12    1    1    2    0    0 -0.21422616232E+02 -0.23133672550E+02  0.47564073326E+01  0.31886026761E+02  0.00000000000E+00 0. -1.
         11    1    3    3    0    0  0.27968969377E+02  0.39860992038E+01 -0.17780299752E+02  0.33381001999E+02  0.51100000000E-03 0. -1.
        -11    1    3    3    0    0 -0.36229651724E+01  0.96605574197E+01  0.12173136099E+02  0.15957364727E+02  0.51100000000E-03 0.  1.
         12    1    3    3    0    0 -0.29233879731E+01  0.94870159266E+01  0.85075632106E+00  0.99636065133E+01  0.00000000000E+00 0. -1.
</event>
<event>
 7    1  0.4346085E-013  0.5930194E+02  0.7816164E-02  0.1266605E+00
        -11   -1    0    0    0    0  0.00000000000E+00  0.00000000000E+00  0.45593999997E+02  0.45594000000E+02  0.51100000000E-03 0. -1.
         11   -1    0    0    0    0 -0.00000000000E+00 -0.00000000000E+00 -0.45593999997E+02  0.45594000000E+02  0.51100000000E-03 0.  1.
    9900012    2    1    2    0    0  0.12089407267E+02  0.28601508463E+02 -0.72471339851E+01  0.59301937129E+02  0.49999987418E+02 0.  0.
         12    1    1    2    0    0 -0.12089407267E+02 -0.28601508463E+02  0.72471339851E+01  0.31886062871E+02  0.00000000000E+00 0. -1.
         11    1    3    3    0    0 -0.16389442598E+02  0.37781421242E+01  0.56867571706E-01  0.16819376349E+02  0.51100000000E-03 0. -1.
        -11    1    3    3    0    0  0.17783404411E+02  0.62201474005E+01 -0.91508083269E+01  0.20944617433E+02  0.51100000000E-03 0.  1.
         12    1    3    3    0    0  0.10695445454E+02  0.18603218939E+02  0.18468067700E+01  0.21537943346E+02  0.00000000000E+00 0. -1.
</event>
<event>
 7    1  0.4346085E-013  0.5930194E+02  0.7816164E-02  0.1266605E+00
        -11   -1    0    0    0    0  0.00000000000E+00  0.00000000000E+00  0.45593999997E+02  0.45594000000E+02  0.51100000000E-03 0.  1.
         11   -1    0    0    0    0 -0.00000000000E+00 -0.00000000000E+00 -0.45593999997E+02  0.45594000000E+02  0.51100000000E-03 0. -1.
    9900012    2    1    2    0    0 -0.30704857511E+02 -0.85968606120E+01  0.16261633146E+00  0.59301941429E+02  0.49999995260E+02 0.  0.
         12    1    1    2    0    0  0.30704857511E+02  0.85968606120E+01 -0.16261633146E+00  0.31886058571E+02  0.00000000000E+00 0. -1.
         11    1    3    3    0    0 -0.35524690149E+01 -0.11544310707E+02 -0.40397404366E+01  0.12736194442E+02  0.51100000000E-03 0.  1.
        -11    1    3    3    0    0 -0.34887302522E+02  0.89438610018E+01  0.26520207446E+00  0.36016480385E+02  0.51100000000E-03 0. -1.
         12    1    3    3    0    0  0.77349140265E+01 -0.59964109067E+01  0.39371546936E+01  0.10549266602E+02  0.00000000000E+00 0. -1.
</event>
<event>
 7    1  0.4346085E-013  0.5930195E+02  0.7816164E-02  0.1266605E+00
        -11   -1    0    0    0    0  0.00000000000E+00  0.00000000000E+00  0.45593999997E+02  0.45594000000E+02  0.51100000000E-03 0.  1.
         11   -1    0    0    0    0 -0.00000000000E+00 -0.00000000000E+00 -0.45593999997E+02  0.45594000000E+02  0.51100000000E-03 0. -1.
    9900012    2    1    2    0    0 -0.24219720053E+01 -0.28209404239E+02  0.14665735763E+02  0.59301949110E+02  0.50000009268E+02 0.  0.
         12    1    1    2    0    0  0.24219720053E+01  0.28209404239E+02 -0.14665735763E+02  0.31886050890E+02  0.00000000000E+00 0. -1.
         11    1    3    3    0    0 -0.68220764380E+01  0.65136367998E+01  0.88639717727E+01  0.12943654319E+02  0.51100000000E-03 0. -1.
        -11    1    3    3    0    0  0.12066601628E+02 -0.70523041238E+01 -0.61340112699E+01  0.15263157040E+02  0.51100000000E-03 0.  1.
        -12    1    3    3    0    0 -0.76664971951E+01 -0.27670736915E+02  0.11935775260E+02  0.31095137751E+02  0.00000000000E+00 0.  1.
</event>
<event>
 7    1  0.4346085E-013  0.5930194E+02  0.7816164E-02  0.1266605E+00
        -11   -1    0    0    0    0  0.00000000000E+00  0.00000000000E+00  0.45593999997E+02  0.45594000000E+02  0.51100000000E-03 0.  1.
         11   -1    0    0    0    0 -0.00000000000E+00 -0.00000000000E+00 -0.45593999997E+02  0.45594000000E+02  0.51100000000E-03 0. -1.
    9900012    2    1    2    0    0 -0.76174521226E+01 -0.13777644155E+01  0.30932131565E+02  0.59301943881E+02  0.49999999733E+02 0.  0.
         12    1    1    2    0    0  0.76174521226E+01  0.13777644155E+01 -0.30932131565E+02  0.31886056119E+02  0.00000000000E+00 0. -1.
         11    1    3    3    0    0  0.10745734226E+02 -0.34832313896E+01 -0.11107181253E+01  0.11350656368E+02  0.51100000000E-03 0. -1.
        -11    1    3    3    0    0 -0.20388020373E+02  0.57025985416E+00  0.52803519801E+01  0.21068428710E+02  0.51100000000E-03 0.  1.
        -12    1    3    3    0    0  0.20248340237E+01  0.15352071200E+01  0.26762497711E+02  0.26882858803E+02  0.00000000000E+00 0.  1.
</event>
<event>
 7    1  0.4346085E-013  0.5930194E+02  0.7816164E-02  0.1266605E+00
        -11   -1    0    0    0    0  0.00000000000E+00  0.00000000000E+00  0.45593999997E+02  0.45594000000E+02  0.51100000000E-03 0.  1.
         11   -1    0    0    0    0 -0.00000000000E+00 -0.00000000000E+00 -0.45593999997E+02  0.45594000000E+02  0.51100000000E-03 0. -1.
    9900012    2    1    2    0    0  0.26458629201E+02 -0.80303031075E+01  0.15880047349E+02  0.59301941432E+02  0.49999995266E+02 0.  0.
         12    1    1    2    0    0 -0.26458629201E+02  0.80303031075E+01 -0.15880047349E+02  0.31886058568E+02  0.00000000000E+00 0. -1.
         11    1    3    3    0    0  0.27742791805E+02  0.31035223229E+01  0.19104298794E+02  0.33827039194E+02  0.51100000000E-03 0. -1.
        -11    1    3    3    0    0  0.59978204657E+01 -0.15397241323E+02 -0.39988837874E+01  0.17001175327E+02  0.51100000000E-03 0.  1.
         12    1    3    3    0    0 -0.72819830698E+01  0.42634158922E+01  0.77463234182E+00  0.84737269111E+01  0.00000000000E+00 0. -1.
</event>
<event>
 7    1  0.4346085E-013  0.5930195E+02  0.7816164E-02  0.1266605E+00
        -11   -1    0    0    0    0  0.00000000000E+00  0.00000000000E+00  0.45593999997E+02  0.45594000000E+02  0.51100000000E-03 0.  1.
         11   -1    0    0    0    0 -0.00000000000E+00 -0.00000000000E+00 -0.45593999997E+02  0.45594000000E+02  0.51100000000E-03 0. -1.
    9900012    2    1    2    0    0  0.17845572358E+02 -0.26005737141E+02  0.46859028783E+01  0.59301945010E+02  0.50000001791E+02 0.  0.
         12    1    1    2    0    0 -0.17845572358E+02  0.26005737141E+02 -0.46859028783E+01  0.31886054990E+02  0.00000000000E+00 0. -1.
         11    1    3    3    0    0 -0.39321154254E+01 -0.11174104289E+02 -0.34362555264E+01  0.12334098698E+02  0.51100000000E-03 0. -1.
        -11    1    3    3    0    0  0.40308699899E+01  0.49061408021E+01  0.17657199115E+02  0.18764189599E+02  0.51100000000E-03 0.  1.
        -12    1    3    3    0    0  0.17746817794E+02 -0.19737773654E+02 -0.95350407108E+01  0.28203656713E+02  0.00000000000E+00 0.  1.
</event>
<event>
 7    1  0.4346085E-013  0.5930191E+02  0.7816164E-02  0.1266605E+00
        -11   -1    0    0    0    0  0.00000000000E+00  0.00000000000E+00  0.45593999997E+02  0.45594000000E+02  0.51100000000E-03 0. -1.
         11   -1    0    0    0    0 -0.00000000000E+00 -0.00000000000E+00 -0.45593999997E+02  0.45594000000E+02  0.51100000000E-03 0.  1.
    9900012    2    1    2    0    0 -0.18519255225E+02 -0.19896314637E+02 -0.16670224701E+02  0.59301913037E+02  0.49999943480E+02 0.  0.
         12    1    1    2    0    0  0.18519255225E+02  0.19896314637E+02  0.16670224701E+02  0.31886086963E+02  0.00000000000E+00 0. -1.
         11    1    3    3    0    0 -0.92132949255E+00 -0.77248229807E+01  0.75502902711E+01  0.10841061828E+02  0.51100000000E-03 0. -1.
        -11    1    3    3    0    0 -0.76992935164E+01 -0.29130736875E+01 -0.31857379721E+02  0.32903765163E+02  0.51100000000E-03 0.  1.
        -12    1    3    3    0    0 -0.98986322163E+01 -0.92584179688E+01  0.76368647492E+01  0.15557086046E+02  0.00000000000E+00 0.  1.
</event>
<event>
 7    1  0.4346085E-013  0.5930195E+02  0.7816164E-02  0.1266605E+00
        -11   -1    0    0    0    0  0.00000000000E+00  0.00000000000E+00  0.45593999997E+02  0.45594000000E+02  0.51100000000E-03 0.  1.
         11   -1    0    0    0    0 -0.00000000000E+00 -0.00000000000E+00 -0.45593999997E+02  0.45594000000E+02  0.51100000000E-03 0. -1.
    9900012    2    1    2    0    0 -0.22099193360E+02 -0.62694769943E+00  0.22977216612E+02  0.59301954560E+02  0.50000019208E+02 0.  0.
         12    1    1    2    0    0  0.22099193360E+02  0.62694769943E+00 -0.22977216612E+02  0.31886045440E+02  0.00000000000E+00 0. -1.
         11    1    3    3    0    0 -0.15952598522E+02 -0.92775451076E+00 -0.39764901599E+01  0.16466894130E+02  0.51100000000E-03 0. -1.
        -11    1    3    3    0    0 -0.55312445061E+01  0.16151637983E+02  0.17085087787E+02  0.24153059854E+02  0.51100000000E-03 0.  1.
        -12    1    3    3    0    0 -0.61535033193E+00 -0.15850831172E+02  0.98686189845E+01  0.18682000576E+02  0.00000000000E+00 0.  1.
</event>
<event>
 7    1  0.4346085E-013  0.5930203E+02  0.7816164E-02  0.1266604E+00
        -11   -1    0    0    0    0  0.00000000000E+00  0.00000000000E+00  0.45593999997E+02  0.45594000000E+02  0.51100000000E-03 0.  1.
         11   -1    0    0    0    0 -0.00000000000E+00 -0.00000000000E+00 -0.45593999997E+02  0.45594000000E+02  0.51100000000E-03 0. -1.
    9900012    2    1    2    0    0 -0.29972737133E+02  0.10276098539E+02  0.35709818422E+01  0.59302029986E+02  0.50000156768E+02 0.  0.
         12    1    1    2    0    0  0.29972737133E+02 -0.10276098539E+02 -0.35709818422E+01  0.31885970014E+02  0.00000000000E+00 0. -1.
         11    1    3    3    0    0  0.12622740325E+02  0.10358248264E+02  0.11861455857E+01  0.16371738516E+02  0.51100000000E-03 0. -1.
        -11    1    3    3    0    0 -0.82030696070E+01  0.35112455808E+00  0.23312034573E+01  0.85351127265E+01  0.51100000000E-03 0.  1.
         12    1    3    3    0    0 -0.34392407851E+02 -0.43327428293E+00  0.53632799228E-01  0.34395178744E+02  0.00000000000E+00 0. -1.
</event>
<event>
 7    1  0.4346085E-013  0.5930180E+02  0.7816164E-02  0.1266605E+00
        -11   -1    0    0    0    0  0.00000000000E+00  0.00000000000E+00  0.45593999997E+02  0.45594000000E+02  0.51100000000E-03 0.  1.
         11   -1    0    0    0    0 -0.00000000000E+00 -0.00000000000E+00 -0.45593999997E+02  0.45594000000E+02  0.51100000000E-03 0. -1.
    9900012    2    1    2    0    0  0.29416591339E+02 -0.11619568474E+02  0.40471257136E+01  0.59301804804E+02  0.49999746088E+02 0.  0.
         12    1    1    2    0    0 -0.29416591339E+02  0.11619568474E+02 -0.40471257136E+01  0.31886195196E+02  0.00000000000E+00 0. -1.
         11    1    3    3    0    0  0.15822520096E+02  0.10245855205E+02 -0.57770059674E+00  0.18859041049E+02  0.51100000000E-03 0. -1.
        -11    1    3    3    0    0 -0.64309966389E+01 -0.17860401294E+02 -0.17135011410E+01  0.19060108566E+02  0.51100000000E-03 0.  1.
        -12    1    3    3    0    0  0.20025067882E+02 -0.40050223858E+01  0.63383274514E+01  0.21382655188E+02  0.00000000000E+00 0.  1.
</event>
<event>
 7    1  0.4346085E-013  0.5930191E+02  0.7816164E-02  0.1266605E+00
        -11   -1    0    0    0    0  0.00000000000E+00  0.00000000000E+00  0.45593999997E+02  0.45594000000E+02  0.51100000000E-03 0. -1.
         11   -1    0    0    0    0 -0.00000000000E+00 -0.00000000000E+00 -0.45593999997E+02  0.45594000000E+02  0.51100000000E-03 0.  1.
    9900012    2    1    2    0    0 -0.18272865147E+02 -0.67141808097E+01 -0.25253614815E+02  0.59301907642E+02  0.49999933642E+02 0.  0.
         12    1    1    2    0    0  0.18272865147E+02  0.67141808097E+01  0.25253614815E+02  0.31886092358E+02  0.00000000000E+00 0. -1.
         11    1    3    3    0    0  0.16413945415E+00 -0.50979477248E+01 -0.30574438790E+02  0.30996972761E+02  0.51100000000E-03 0. -1.
        -11    1    3    3    0    0 -0.18710097523E+02  0.60388951318E+01  0.61505560163E+01  0.20600129691E+02  0.51100000000E-03 0.  1.
         12    1    3    3    0    0  0.27309292185E+00 -0.76551282167E+01 -0.82973204171E+00  0.77048051903E+01  0.00000000000E+00 0. -1.
</event>
<event>
 7    1  0.4346085E-013  0.5930194E+02  0.7816164E-02  0.1266605E+00
        -11   -1    0    0    0    0  0.00000000000E+00  0.00000000000E+00  0.45593999997E+02  0.45594000000E+02  0.51100000000E-03 0. -1.
         11   -1    0    0    0    0 -0.00000000000E+00 -0.00000000000E+00 -0.45593999997E+02  0.45594000000E+02  0.51100000000E-03 0.  1.
    9900012    2    1    2    0    0  0.19853467624E+02  0.12591374240E+02 -0.21541075579E+02  0.59301940051E+02  0.49999992748E+02 0.  0.
         12    1    1    2    0    0 -0.19853467624E+02 -0.12591374240E+02  0.21541075579E+02  0.31886059949E+02  0.00000000000E+00 0. -1.
         11    1    3    3    0    0  0.41960724613E+01 -0.16997345042E+02 -0.31936507296E+01  0.17796521228E+02  0.51100000000E-03 0. -1.
        -11    1    3    3    0    0 -0.33045267323E+01  0.27063792187E+01 -0.28948663812E+01  0.51599066877E+01  0.51100000000E-03 0.  1.
         12    1    3    3    0    0  0.18961921895E+02  0.26882340063E+02 -0.15452558469E+02  0.36345512136E+02  0.00000000000E+00 0. -1.
</event>
<event>
 7    1  0.4346085E-013  0.5930195E+02  0.7816164E-02  0.1266605E+00
        -11   -1    0    0    0    0  0.00000000000E+00  0.00000000000E+00  0.45593999997E+02  0.45594000000E+02  0.51100000000E-03 0. -1.
         11   -1    0    0    0    0 -0.00000000000E+00 -0.00000000000E+00 -0.45593999997E+02  0.45594000000E+02  0.51100000000E-03 0.  1.
    9900012    2    1    2    0    0  0.12691829129E+02  0.25446987002E+02  0.14425268836E+02  0.59301952031E+02  0.50000014595E+02 0.  0.
         12    1    1    2    0    0 -0.12691829129E+02 -0.25446987002E+02 -0.14425268836E+02  0.31886047969E+02  0.00000000000E+00 0. -1.
         11    1    3    3    0    0  0.86838964596E+01 -0.39643478971E+01  0.11838567280E+02  0.15207819945E+02  0.51100000000E-03 0. -1.
        -11    1    3    3    0    0 -0.11531640653E+02  0.10941401629E+02  0.10076950472E+02  0.18821209760E+02  0.51100000000E-03 0.  1.
        -12    1    3    3    0    0  0.15539573322E+02  0.18469933270E+02 -0.74902489160E+01  0.25272922325E+02  0.00000000000E+00 0.  1.
</event>
<event>
 7    1  0.4346085E-013  0.5930193E+02  0.7816164E-02  0.1266605E+00
        -11   -1    0    0    0    0  0.00000000000E+00  0.00000000000E+00  0.45593999997E+02  0.45594000000E+02  0.51100000000E-03 0. -1.
         11   -1    0    0    0    0 -0.00000000000E+00 -0.00000000000E+00 -0.45593999997E+02  0.45594000000E+02  0.51100000000E-03 0.  1.
    9900012    2    1    2    0    0 -0.19778791410E+02  0.19656089638E+02 -0.15464775582E+02  0.59301925715E+02  0.49999966603E+02 0.  0.
         12    1    1    2    0    0  0.19778791410E+02 -0.19656089638E+02  0.15464775582E+02  0.31886074285E+02  0.00000000000E+00 0. -1.
         11    1    3    3    0    0 -0.22611843894E+02  0.33379274709E+02 -0.33231781479E+01  0.40453862333E+02  0.51100000000E-03 0. -1.
        -11    1    3    3    0    0  0.21075674885E+01 -0.30096095150E+01 -0.29020563107E+01  0.46820424221E+01  0.51100000000E-03 0.  1.
         12    1    3    3    0    0  0.72548499547E+00 -0.10713575556E+02 -0.92395411232E+01  0.14166020960E+02  0.00000000000E+00 0. -1.
</event>
<event>
 7    1  0.4346085E-013  0.5930194E+02  0.7816164E-02  0.1266605E+00
        -11   -1    0    0    0    0  0.00000000000E+00  0.00000000000E+00  0.45593999997E+02  0.45594000000E+02  0.51100000000E-03 0.  1.
         11   -1    0    0    0    0 -0.00000000000E+00 -0.00000000000E+00 -0.45593999997E+02  0.45594000000E+02  0.51100000000E-03 0. -1.
    9900012    2    1    2    0    0 -0.13737395521E+02  0.14466513326E+01  0.28738687173E+02  0.59301937587E+02  0.49999988254E+02 0.  0.
         12    1    1    2    0    0  0.13737395521E+02 -0.14466513326E+01 -0.28738687173E+02  0.31886062413E+02  0.00000000000E+00 0. -1.
         11    1    3    3    0    0  0.13692346383E+02 -0.98028707564E+01  0.10968680659E+01  0.16875418346E+02  0.51100000000E-03 0. -1.
        -11    1    3    3    0    0 -0.35493965179E+01  0.68241800868E+01  0.46824701560E+01  0.90051749856E+01  0.51100000000E-03 0.  1.
         12    1    3    3    0    0 -0.23880345386E+02  0.44253420022E+01  0.22959348951E+02  0.33421344255E+02  0.00000000000E+00 0. -1.
</event>
<event>
 7    1  0.4346085E-013  0.5930195E+02  0.7816164E-02  0.1266605E+00
        -11   -1    0    0    0    0  0.00000000000E+00  0.00000000000E+00  0.45593999997E+02  0.45594000000E+02  0.51100000000E-03 0. -1.
         11   -1    0    0    0    0 -0.00000000000E+00 -0.00000000000E+00 -0.45593999997E+02  0.45594000000E+02  0.51100000000E-03 0.  1.
    9900012    2    1    2    0    0  0.12214805961E+02  0.21353904584E+02 -0.20286188647E+02  0.59301950143E+02  0.50000011153E+02 0.  0.
         12    1    1    2    0    0 -0.12214805961E+02 -0.21353904584E+02  0.20286188647E+02  0.31886049857E+02  0.00000000000E+00 0. -1.
         11    1    3    3    0    0 -0.54137786403E+01 -0.71976192256E+01  0.78107363122E+01  0.11921506771E+02  0.51100000000E-03 0. -1.
        -11    1    3    3    0    0  0.60235861312E+01  0.22589343333E+02 -0.10901119395E+02  0.25795279150E+02  0.51100000000E-03 0.  1.
         12    1    3    3    0    0  0.11604998470E+02  0.59621804773E+01 -0.17195805564E+02  0.21585164223E+02  0.00000000000E+00 0. -1.
</event>
<event>
 7    1  0.4346085E-013  0.5930200E+02  0.7816164E-02  0.1266605E+00
        -11   -1    0    0    0    0  0.00000000000E+00  0.00000000000E+00  0.45593999997E+02  0.45594000000E+02  0.51100000000E-03 0. -1.
         11   -1    0    0    0    0 -0.00000000000E+00 -0.00000000000E+00 -0.45593999997E+02  0.45594000000E+02  0.51100000000E-03 0.  1.
    9900012    2    1    2    0    0  0.28459094671E+02 -0.10188726251E+01 -0.14344295302E+02  0.59302000273E+02  0.50000102577E+02 0.  0.
         12    1    1    2    0    0 -0.28459094671E+02  0.10188726251E+01  0.14344295302E+02  0.31885999727E+02  0.00000000000E+00 0. -1.
         11    1    3    3    0    0  0.28070918766E+02  0.19209666301E+02 -0.48874421426E+01  0.34363859660E+02  0.51100000000E-03 0. -1.
        -11    1    3    3    0    0 -0.73946117245E+00 -0.10328367281E+02 -0.10707962496E+02  0.14895718667E+02  0.51100000000E-03 0.  1.
         12    1    3    3    0    0  0.11276370766E+01 -0.99001716448E+01  0.12511093364E+01  0.10042421946E+02  0.00000000000E+00 0. -1.
</event>
<event>
 7    1  0.4346085E-013  0.5930193E+02  0.7816164E-02  0.1266605E+00
        -11   -1    0    0    0    0  0.00000000000E+00  0.00000000000E+00  0.45593999997E+02  0.45594000000E+02  0.51100000000E-03 0.  1.
         11   -1    0    0    0    0 -0.00000000000E+00 -0.00000000000E+00 -0.45593999997E+02  0.45594000000E+02  0.51100000000E-03 0. -1.
    9900012    2    1    2    0    0  0.30600792165E+02  0.15450948027E-01  0.89617364145E+01  0.59301930324E+02  0.49999975007E+02 0.  0.
         12    1    1    2    0    0 -0.30600792165E+02 -0.15450948027E-01 -0.89617364145E+01  0.31886069676E+02  0.00000000000E+00 0. -1.
         11    1    3    3    0    0  0.35433134916E+01  0.57966218687E+01 -0.13186911010E+01  0.69206099492E+01  0.51100000000E-03 0. -1.
        -11    1    3    3    0    0  0.14981254854E+02 -0.80503835570E+01  0.26831585079E+02  0.31767603475E+02  0.51100000000E-03 0.  1.
        -12    1    3    3    0    0  0.12076223819E+02  0.22692126363E+01 -0.16551157564E+02  0.20613716900E+02  0.00000000000E+00 0.  1.
</event>
<event>
 7    1  0.4346085E-013  0.5930202E+02  0.7816164E-02  0.1266604E+00
        -11   -1    0    0    0    0  0.00000000000E+00  0.00000000000E+00  0.45593999997E+02  0.45594000000E+02  0.51100000000E-03 0. -1.
         11   -1    0    0    0    0 -0.00000000000E+00 -0.00000000000E+00 -0.45593999997E+02  0.45594000000E+02  0.51100000000E-03 0.  1.
    9900012    2    1    2    0    0 -0.64422963585E+01 -0.26849688114E+02 -0.15947000185E+02  0.59302019552E+02  0.50000137738E+02 0.  0.
         12    1    1    2    0    0  0.64422963585E+01  0.26849688114E+02  0.15947000185E+02  0.31885980448E+02  0.00000000000E+00 0. -1.
         11    1    3    3    0    0 -0.70145897871E+01  0.18304257571E+01 -0.72801918188E+01  0.10274050881E+02  0.51100000000E-03 0. -1.
        -11    1    3    3    0    0 -0.10924789103E+02 -0.17265381587E+02  0.11273782998E+02  0.23335436607E+02  0.51100000000E-03 0.  1.
        -12    1    3    3    0    0  0.11497082532E+02 -0.11414732285E+02 -0.19940591365E+02  0.25692532064E+02  0.00000000000E+00 0.  1.
</event>
<event>
 7    1  0.4346085E-013  0.5930192E+02  0.7816164E-02  0.1266605E+00
        -11   -1    0    0    0    0  0.00000000000E+00  0.00000000000E+00  0.45593999997E+02  0.45594000000E+02  0.51100000000E-03 0. -1.
         11   -1    0    0    0    0 -0.00000000000E+00 -0.00000000000E+00 -0.45593999997E+02  0.45594000000E+02  0.51100000000E-03 0.  1.
    9900012    2    1    2    0    0  0.14889723283E+01  0.29600703463E+02 -0.11760255827E+02  0.59301916810E+02  0.49999950361E+02 0.  0.
         12    1    1    2    0    0 -0.14889723283E+01 -0.29600703463E+02  0.11760255827E+02  0.31886083190E+02  0.00000000000E+00 0. -1.
         11    1    3    3    0    0 -0.85194559576E+01  0.14819661806E+02 -0.21062713490E+02  0.27126396843E+02  0.51100000000E-03 0. -1.
        -11    1    3    3    0    0  0.13496870183E+01 -0.68734349528E+01  0.46131094462E+01  0.83872845499E+01  0.51100000000E-03 0.  1.
        -12    1    3    3    0    0  0.86587412677E+01  0.21654476609E+02  0.46893482160E+01  0.23788235417E+02  0.00000000000E+00 0.  1.
</event>
<event>
 7    1  0.4346085E-013  0.5930194E+02  0.7816164E-02  0.1266605E+00
        -11   -1    0    0    0    0  0.00000000000E+00  0.00000000000E+00  0.45593999997E+02  0.45594000000E+02  0.51100000000E-03 0.  1.
         11   -1    0    0    0    0 -0.00000000000E+00 -0.00000000000E+00 -0.45593999997E+02  0.45594000000E+02  0.51100000000E-03 0. -1.
    9900012    2    1    2    0    0 -0.28918087804E+02 -0.63790612247E+01  0.11822556336E+02  0.59301936231E+02  0.49999985781E+02 0.  0.
         12    1    1    2    0    0  0.28918087804E+02  0.63790612247E+01 -0.11822556336E+02  0.31886063769E+02  0.00000000000E+00 0. -1.
         11    1    3    3    0    0 -0.51852715486E+01  0.12169888828E+01 -0.18904559031E+01  0.56517189205E+01  0.51100000000E-03 0. -1.
        -11    1    3    3    0    0 -0.64222135412E+01 -0.25216511959E+02  0.14221504803E+01  0.26060311095E+02  0.51100000000E-03 0.  1.
        -12    1    3    3    0    0 -0.17310602714E+02  0.17620461851E+02  0.12290861759E+02  0.27589906215E+02  0.00000000000E+00 0.  1.
</event>
<event>
 7    1  0.4346085E-013  0.5930193E+02  0.7816164E-02  0.1266605E+00
        -11   -1    0    0    0    0  0.00000000000E+00  0.00000000000E+00  0.45593999997E+02  0.45594000000E+02  0.51100000000E-03 0.  1.
         11   -1    0    0    0    0 -0.00000000000E+00 -0.00000000000E+00 -0.45593999997E+02  0.45594000000E+02  0.51100000000E-03 0. -1.
    9900012    2    1    2    0    0 -0.19209384875E+02 -0.16070922228E+02  0.19734391148E+02  0.59301934038E+02  0.49999981781E+02 0.  0.
         12    1    1    2    0    0  0.19209384875E+02  0.16070922228E+02 -0.19734391148E+02  0.31886065962E+02  0.00000000000E+00 0. -1.
         11    1    3    3    0    0  0.11747923104E+02 -0.79230446145E+01 -0.13588895744E+01  0.14234989088E+02  0.51100000000E-03 0. -1.
        -11    1    3    3    0    0 -0.15752680170E+02 -0.15630226694E+02  0.77755914117E+01  0.23514054119E+02  0.51100000000E-03 0.  1.
         12    1    3    3    0    0 -0.15204627809E+02  0.74823490805E+01  0.13317689311E+02  0.21552890830E+02  0.00000000000E+00 0. -1.
</event>
<event>
 7    1  0.4346085E-013  0.5930202E+02  0.7816164E-02  0.1266604E+00
        -11   -1    0    0    0    0  0.00000000000E+00  0.00000000000E+00  0.45593999997E+02  0.45594000000E+02  0.51100000000E-03 0.  1.
         11   -1    0    0    0    0 -0.00000000000E+00 -0.00000000000E+00 -0.45593999997E+02  0.45594000000E+02  0.51100000000E-03 0. -1.
    9900012    2    1    2    0    0  0.21046987193E+02 -0.23463202718E+02  0.48184977212E+01  0.59302023898E+02  0.50000145664E+02 0.  0.
         12    1    1    2    0    0 -0.21046987193E+02  0.23463202718E+02 -0.48184977212E+01  0.31885976102E+02  0.00000000000E+00 0. -1.
         11    1    3    3    0    0  0.19088484624E+02 -0.34693300332E+02 -0.83718981668E+01  0.40473250578E+02  0.51100000000E-03 0. -1.
        -11    1    3    3    0    0  0.48791763646E+00  0.70994429386E+01  0.29766381005E+01  0.77136585549E+01  0.51100000000E-03 0.  1.
         12    1    3    3    0    0  0.14705849331E+01  0.41306546759E+01  0.10213757787E+02  0.11115114765E+02  0.00000000000E+00 0. -1.
</event>
<event>
 7    1  0.4346085E-013  0.5930195E+02  0.7816164E-02  0.1266605E+00
        -11   -1    0    0    0    0  0.00000000000E+00  0.00000000000E+00  0.45593999997E+02  0.45594000000E+02  0.51100000000E-03 0. -1.
         11   -1    0    0    0    0 -0.00000000000E+00 -0.00000000000E+00 -0.45593999997E+02  0.45594000000E+02  0.51100000000E-03 0.  1.
    9900012    2    1    2    0    0 -0.66408430107E+01  0.94963312531E+01 -0.29705872892E+02  0.59301953092E+02  0.50000016531E+02 0.  0.
         12    1    1    2    0    0  0.66408430107E+01 -0.94963312531E+01  0.29705872892E+02  0.31886046908E+02  0.00000000000E+00 0. -1.
         11    1    3    3    0    0  0.19213406698E+02  0.35008865746E+01 -0.14404490020E+02  0.24267272957E+02  0.51100000000E-03 0. -1.
        -11    1    3    3    0    0 -0.21964567096E+02  0.34122418135E+01 -0.18870210714E+02  0.29157682600E+02  0.51100000000E-03 0.  1.
        -12    1    3    3    0    0 -0.38896826122E+01  0.25832028650E+01  0.35688278421E+01  0.58769975355E+01  0.00000000000E+00 0.  1.
</event>
<event>
 7    1  0.4346085E-013  0.5930197E+02  0.7816164E-02  0.1266605E+00
        -11   -1    0    0    0    0  0.00000000000E+00  0.00000000000E+00  0.45593999997E+02  0.45594000000E+02  0.51100000000E-03 0. -1.
         11   -1    0    0    0    0 -0.00000000000E+00 -0.00000000000E+00 -0.45593999997E+02  0.45594000000E+02  0.51100000000E-03 0.  1.
    9900012    2    1    2    0    0 -0.27123685121E+02  0.67311962349E+01 -0.15353033200E+02  0.59301969740E+02  0.50000046893E+02 0.  0.
         12    1    1    2    0    0  0.27123685121E+02 -0.67311962349E+01  0.15353033200E+02  0.31886030260E+02  0.00000000000E+00 0. -1.
         11    1    3    3    0    0 -0.16039333384E+02  0.23760572998E+02 -0.14865494646E+02  0.32292537465E+02  0.51100000000E-03 0. -1.
        -11    1    3    3    0    0 -0.95394144411E+01 -0.19990921744E+02  0.27952689617E+01  0.22326014174E+02  0.51100000000E-03 0.  1.
        -12    1    3    3    0    0 -0.15449372956E+01  0.29615449807E+01 -0.32828075159E+01  0.46834181008E+01  0.00000000000E+00 0.  1.
</event>
<event>
 7    1  0.4346085E-013  0.5930190E+02  0.7816164E-02  0.1266605E+00
        -11   -1    0    0    0    0  0.00000000000E+00  0.00000000000E+00  0.45593999997E+02  0.45594000000E+02  0.51100000000E-03 0.  1.
         11   -1    0    0    0    0 -0.00000000000E+00 -0.00000000000E+00 -0.45593999997E+02  0.45594000000E+02  0.51100000000E-03 0. -1.
    9900012    2    1    2    0    0  0.14568092793E+02  0.21392122619E+02  0.18624480600E+02  0.59301897771E+02  0.49999915638E+02 0.  0.
         12    1    1    2    0    0 -0.14568092793E+02 -0.21392122619E+02 -0.18624480600E+02  0.31886102229E+02  0.00000000000E+00 0. -1.
         11    1    3    3    0    0  0.11957924508E+02 -0.71249016479E+01  0.10692847718E+02  0.17552583133E+02  0.51100000000E-03 0. -1.
        -11    1    3    3    0    0 -0.55006344266E+01  0.31636301813E+02  0.45822492526E+01  0.32436238684E+02  0.51100000000E-03 0.  1.
        -12    1    3    3    0    0  0.81108027107E+01 -0.31192775466E+01  0.33493836294E+01  0.93130759539E+01  0.00000000000E+00 0.  1.
</event>
<event>
 7    1  0.4346085E-013  0.5930215E+02  0.7816164E-02  0.1266604E+00
        -11   -1    0    0    0    0  0.00000000000E+00  0.00000000000E+00  0.45593999997E+02  0.45594000000E+02  0.51100000000E-03 0.  1.
         11   -1    0    0    0    0 -0.00000000000E+00 -0.00000000000E+00 -0.45593999997E+02  0.45594000000E+02  0.51100000000E-03 0. -1.
    9900012    2    1    2    0    0  0.42080737252E+01  0.12990049539E+02  0.28814205397E+02  0.59302145704E+02  0.50000367808E+02 0.  0.
         12    1    1    2    0    0 -0.42080737252E+01 -0.12990049539E+02 -0.28814205397E+02  0.31885854296E+02  0.00000000000E+00 0. -1.
         11    1    3    3    0    0  0.91752390624E+01 -0.12776384085E+02  0.46810694343E+00  0.15736585605E+02  0.51100000000E-03 0. -1.
        -11    1    3    3    0    0  0.49446738307E+01  0.21294791484E+02  0.21800628232E+02  0.30873699734E+02  0.51100000000E-03 0.  1.
         12    1    3    3    0    0 -0.99118391679E+01  0.44716421394E+01  0.65454702216E+01  0.12691860365E+02  0.00000000000E+00 0. -1.
</event>
<event>
 7    1  0.4346085E-013  0.5930199E+02  0.7816164E-02  0.1266605E+00
        -11   -1    0    0    0    0  0.00000000000E+00  0.00000000000E+00  0.45593999997E+02  0.45594000000E+02  0.51100000000E-03 0. -1.
         11   -1    0    0    0    0 -0.00000000000E+00 -0.00000000000E+00 -0.45593999997E+02  0.45594000000E+02  0.51100000000E-03 0.  1.
    9900012    2    1    2    0    0  0.61002884671E+01  0.21965749643E+02 -0.22293726343E+02  0.59301985652E+02  0.50000075912E+02 0.  0.
         12    1    1    2    0    0 -0.61002884671E+01 -0.21965749643E+02  0.22293726343E+02  0.31886014348E+02  0.00000000000E+00 0. -1.
         11    1    3    3    0    0  0.22226637501E+02  0.26491819357E+02 -0.79477504326E+01  0.35482483632E+02  0.51100000000E-03 0. -1.
        -11    1    3    3    0    0 -0.74080316363E+01 -0.10553813154E+01 -0.10654734691E+01  0.75583064518E+01  0.51100000000E-03 0.  1.
         12    1    3    3    0    0 -0.87183173977E+01 -0.34706883988E+01 -0.13280502441E+02  0.16261195568E+02  0.00000000000E+00 0. -1.
</event>
<event>
 7    1  0.4346085E-013  0.5930194E+02  0.7816164E-02  0.1266605E+00
        -11   -1    0    0    0    0  0.00000000000E+00  0.00000000000E+00  0.45593999997E+02  0.45594000000E+02  0.51100000000E-03 0.  1.
         11   -1    0    0    0    0 -0.00000000000E+00 -0.00000000000E+00 -0.45593999997E+02  0.45594000000E+02  0.51100000000E-03 0. -1.
    9900012    2    1    2    0    0 -0.21644115920E+02  0.10161826321E+02  0.21094801646E+02  0.59301935260E+02  0.49999984009E+02 0.  0.
         12    1    1    2    0    0  0.21644115920E+02 -0.10161826321E+02 -0.21094801646E+02  0.31886064740E+02  0.00000000000E+00 0. -1.
         11    1    3    3    0    0 -0.11114461876E+02 -0.16900618781E+02  0.10371377857E+02  0.22731644395E+02  0.51100000000E-03 0.  1.
        -11    1    3    3    0    0 -0.34667491824E+01  0.22164546931E+02 -0.49294388952E+00  0.22439440378E+02  0.51100000000E-03 0. -1.
        -12    1    3    3    0    0 -0.70629048609E+01  0.48978981712E+01  0.11216367679E+02  0.14130850487E+02  0.00000000000E+00 0.  1.
</event>
<event>
 7    1  0.4346085E-013  0.5930195E+02  0.7816164E-02  0.1266605E+00
        -11   -1    0    0    0    0  0.00000000000E+00  0.00000000000E+00  0.45593999997E+02  0.45594000000E+02  0.51100000000E-03 0. -1.
         11   -1    0    0    0    0 -0.00000000000E+00 -0.00000000000E+00 -0.45593999997E+02  0.45594000000E+02  0.51100000000E-03 0.  1.
    9900012    2    1    2    0    0  0.13638970633E+01 -0.31675543542E+02  0.33940664819E+01  0.59301953503E+02  0.50000017281E+02 0.  0.
         12    1    1    2    0    0 -0.13638970633E+01  0.31675543542E+02 -0.33940664819E+01  0.31886046497E+02  0.00000000000E+00 0. -1.
         11    1    3    3    0    0 -0.67550181336E+00  0.95656650657E+01  0.63841256416E+01  0.11520213163E+02  0.51100000000E-03 0. -1.
        -11    1    3    3    0    0 -0.83483941692E+01 -0.68878405143E+01 -0.48151046801E+01  0.11845812150E+02  0.51100000000E-03 0.  1.
         12    1    3    3    0    0  0.10387793046E+02 -0.34353368094E+02  0.18250455203E+01  0.35935928190E+02  0.00000000000E+00 0. -1.
</event>
<event>
 7    1  0.4346085E-013  0.5930195E+02  0.7816164E-02  0.1266605E+00
        -11   -1    0    0    0    0  0.00000000000E+00  0.00000000000E+00  0.45593999997E+02  0.45594000000E+02  0.51100000000E-03 0.  1.
         11   -1    0    0    0    0 -0.00000000000E+00 -0.00000000000E+00 -0.45593999997E+02  0.45594000000E+02  0.51100000000E-03 0. -1.
    9900012    2    1    2    0    0  0.15740589259E+01 -0.24472132481E+02 -0.20380314150E+02  0.59301950785E+02  0.50000012325E+02 0.  0.
         12    1    1    2    0    0 -0.15740589259E+01  0.24472132481E+02  0.20380314150E+02  0.31886049215E+02  0.00000000000E+00 0. -1.
         11    1    3    3    0    0 -0.99917498439E+01 -0.31407588632E+01  0.80112499138E+01  0.13186339774E+02  0.51100000000E-03 0. -1.
        -11    1    3    3    0    0  0.14413786689E+02 -0.39336675470E+01 -0.30562988847E+01  0.15250309840E+02  0.51100000000E-03 0.  1.
        -12    1    3    3    0    0 -0.28479779189E+01 -0.17397706071E+02 -0.25335265179E+02  0.30865301172E+02  0.00000000000E+00 0.  1.
</event>
<event>
 7    1  0.4346085E-013  0.5930194E+02  0.7816164E-02  0.1266605E+00
        -11   -1    0    0    0    0  0.00000000000E+00  0.00000000000E+00  0.45593999997E+02  0.45594000000E+02  0.51100000000E-03 0.  1.
         11   -1    0    0    0    0 -0.00000000000E+00 -0.00000000000E+00 -0.45593999997E+02  0.45594000000E+02  0.51100000000E-03 0. -1.
    9900012    2    1    2    0    0 -0.13727462385E+02  0.35875573919E-02  0.28779814819E+02  0.59301937568E+02  0.49999988219E+02 0.  0.
         12    1    1    2    0    0  0.13727462385E+02 -0.35875573919E-02 -0.28779814819E+02  0.31886062432E+02  0.00000000000E+00 0. -1.
         11    1    3    3    0    0 -0.29853521503E+01  0.13691115677E+02 -0.83314076778E+01  0.16302494597E+02  0.51100000000E-03 0. -1.
        -11    1    3    3    0    0  0.86599943857E+00  0.70393358332E+00  0.10708207725E+02  0.10766205946E+02  0.51100000000E-03 0.  1.
         12    1    3    3    0    0 -0.11608109673E+02 -0.14391461703E+02  0.26403014771E+02  0.32233237025E+02  0.00000000000E+00 0. -1.
</event>
<event>
 7    1  0.4346085E-013  0.5930194E+02  0.7816164E-02  0.1266605E+00
        -11   -1    0    0    0    0  0.00000000000E+00  0.00000000000E+00  0.45593999997E+02  0.45594000000E+02  0.51100000000E-03 0.  1.
         11   -1    0    0    0    0 -0.00000000000E+00 -0.00000000000E+00 -0.45593999997E+02  0.45594000000E+02  0.51100000000E-03 0. -1.
    9900012    2    1    2    0    0  0.68765654528E+01  0.10854305221E+02  0.29182492465E+02  0.59301937830E+02  0.49999988697E+02 0.  0.
         12    1    1    2    0    0 -0.68765654528E+01 -0.10854305221E+02 -0.29182492465E+02  0.31886062170E+02  0.00000000000E+00 0. -1.
         11    1    3    3    0    0 -0.68166327923E+01  0.14747157714E+02  0.25559332595E+02  0.30285716538E+02  0.51100000000E-03 0.  1.
        -11    1    3    3    0    0  0.14510370259E+02 -0.86627245198E+01 -0.62520952074E+01  0.18018943807E+02  0.51100000000E-03 0. -1.
         12    1    3    3    0    0 -0.81717201392E+00  0.47698720264E+01  0.98752550774E+01  0.10997277485E+02  0.00000000000E+00 0. -1.
</event>
<event>
 7    1  0.4346085E-013  0.5930198E+02  0.7816164E-02  0.1266605E+00
        -11   -1    0    0    0    0  0.00000000000E+00  0.00000000000E+00  0.45593999997E+02  0.45594000000E+02  0.51100000000E-03 0.  1.
         11   -1    0    0    0    0 -0.00000000000E+00 -0.00000000000E+00 -0.45593999997E+02  0.45594000000E+02  0.51100000000E-03 0. -1.
    9900012    2    1    2    0    0 -0.20524446244E+02 -0.84125388554E+01  0.22906210660E+02  0.59301981271E+02  0.50000067922E+02 0.  0.
         12    1    1    2    0    0  0.20524446244E+02  0.84125388554E+01 -0.22906210660E+02  0.31886018729E+02  0.00000000000E+00 0. -1.
         11    1    3    3    0    0  0.74436865436E+01  0.28619941145E+01  0.10172343943E+01  0.80395426329E+01  0.51100000000E-03 0. -1.
        -11    1    3    3    0    0 -0.35676628453E+02 -0.13547819948E+02  0.19625846047E+02  0.42913157381E+02  0.51100000000E-03 0.  1.
        -12    1    3    3    0    0  0.77084956658E+01  0.22732869781E+01  0.22631302189E+01  0.83492812566E+01  0.00000000000E+00 0.  1.
</event>
<event>
 7    1  0.4346085E-013  0.5930186E+02  0.7816164E-02  0.1266605E+00
        -11   -1    0    0    0    0  0.00000000000E+00  0.00000000000E+00  0.45593999997E+02  0.45594000000E+02  0.51100000000E-03 0.  1.
         11   -1    0    0    0    0 -0.00000000000E+00 -0.00000000000E+00 -0.45593999997E+02  0.45594000000E+02  0.51100000000E-03 0. -1.
    9900012    2    1    2    0    0  0.18790650816E+02 -0.25634387185E+02 -0.25525449509E+01  0.59301861159E+02  0.49999848867E+02 0.  0.
         12    1    1    2    0    0 -0.18790650816E+02  0.25634387185E+02  0.25525449509E+01  0.31886138841E+02  0.00000000000E+00 0. -1.
         11    1    3    3    0    0  0.11240532562E+02  0.13439574648E+01  0.76616005999E+01  0.13669525155E+02  0.51100000000E-03 0.  1.
        -11    1    3    3    0    0  0.74959550267E+00 -0.33346663188E+02 -0.13165375892E+02  0.35859293939E+02  0.51100000000E-03 0. -1.
        -12    1    3    3    0    0  0.68005227510E+01  0.63683185375E+01  0.29512303414E+01  0.97730420653E+01  0.00000000000E+00 0.  1.
</event>
<event>
 7    1  0.4346085E-013  0.5930197E+02  0.7816164E-02  0.1266605E+00
        -11   -1    0    0    0    0  0.00000000000E+00  0.00000000000E+00  0.45593999997E+02  0.45594000000E+02  0.51100000000E-03 0.  1.
         11   -1    0    0    0    0 -0.00000000000E+00 -0.00000000000E+00 -0.45593999997E+02  0.45594000000E+02  0.51100000000E-03 0. -1.
    9900012    2    1    2    0    0  0.79986536463E+01  0.20622260075E+02  0.22966563426E+02  0.59301966908E+02  0.50000041728E+02 0.  0.
         12    1    1    2    0    0 -0.79986536463E+01 -0.20622260075E+02 -0.22966563426E+02  0.31886033092E+02  0.00000000000E+00 0. -1.
         11    1    3    3    0    0  0.41532770505E+01 -0.28710335445E+01  0.19848546194E+01  0.54251444214E+01  0.51100000000E-03 0. -1.
        -11    1    3    3    0    0 -0.60372250845E+01  0.34372611754E+02  0.15567828530E+02  0.38213633836E+02  0.51100000000E-03 0.  1.
        -12    1    3    3    0    0  0.98826016802E+01 -0.10879318135E+02  0.54138802767E+01  0.15663188651E+02  0.00000000000E+00 0.  1.
</event>
<event>
 7    1  0.4346085E-013  0.5930221E+02  0.7816164E-02  0.1266604E+00
        -11   -1    0    0    0    0  0.00000000000E+00  0.00000000000E+00  0.45593999997E+02  0.45594000000E+02  0.51100000000E-03 0.  1.
         11   -1    0    0    0    0 -0.00000000000E+00 -0.00000000000E+00 -0.45593999997E+02  0.45594000000E+02  0.51100000000E-03 0. -1.
    9900012    2    1    2    0    0  0.17244811171E+02 -0.10118260750E+02  0.24838292457E+02  0.59302211863E+02  0.50000488465E+02 0.  0.
         12    1    1    2    0    0 -0.17244811171E+02  0.10118260750E+02 -0.24838292457E+02  0.31885788137E+02  0.00000000000E+00 0. -1.
         11    1    3    3    0    0 -0.80457422998E+01 -0.21528607706E+02  0.10885067648E+02  0.25430289359E+02  0.51100000000E-03 0. -1.
        -11    1    3    3    0    0  0.17142619208E+02  0.37500849369E+00  0.76752852755E+01  0.18786165894E+02  0.51100000000E-03 0.  1.
         12    1    3    3    0    0  0.81479342625E+01  0.11035338462E+02  0.62779395336E+01  0.15085756610E+02  0.00000000000E+00 0. -1.
</event>
<event>
 7    1  0.4346085E-013  0.5930193E+02  0.7816164E-02  0.1266605E+00
        -11   -1    0    0    0    0  0.00000000000E+00  0.00000000000E+00  0.45593999997E+02  0.45594000000E+02  0.51100000000E-03 0.  1.
         11   -1    0    0    0    0 -0.00000000000E+00 -0.00000000000E+00 -0.45593999997E+02  0.45594000000E+02  0.51100000000E-03 0. -1.
    9900012    2    1    2    0    0  0.87488412041E+00 -0.30091234021E+02 -0.10510640111E+02  0.59301931841E+02  0.49999977774E+02 0.  0.
         12    1    1    2    0    0 -0.87488412041E+00  0.30091234021E+02  0.10510640111E+02  0.31886068159E+02  0.00000000000E+00 0. -1.
         11    1    3    3    0    0  0.81737197394E+01 -0.17392707166E+02 -0.13779581870E+02  0.23647258483E+02  0.51100000000E-03 0. -1.
        -11    1    3    3    0    0  0.88048132480E+01  0.30054100709E+01  0.84548440624E+01  0.12571460313E+02  0.51100000000E-03 0.  1.
        -12    1    3    3    0    0 -0.16103648867E+02 -0.15703936925E+02 -0.51859023029E+01  0.23083213045E+02  0.00000000000E+00 0.  1.
</event>
<event>
 7    1  0.4346085E-013  0.5930194E+02  0.7816164E-02  0.1266605E+00
        -11   -1    0    0    0    0  0.00000000000E+00  0.00000000000E+00  0.45593999997E+02  0.45594000000E+02  0.51100000000E-03 0.  1.
         11   -1    0    0    0    0 -0.00000000000E+00 -0.00000000000E+00 -0.45593999997E+02  0.45594000000E+02  0.51100000000E-03 0. -1.
    9900012    2    1    2    0    0  0.16157851871E+02 -0.89912857016E+01  0.25976935678E+02  0.59301943755E+02  0.49999999502E+02 0.  0.
         12    1    1    2    0    0 -0.16157851871E+02  0.89912857016E+01 -0.25976935678E+02  0.31886056245E+02  0.00000000000E+00 0. -1.
         11    1    3    3    0    0  0.23323381194E+02 -0.44635405830E+01  0.14848311141E+02  0.28006707212E+02  0.51100000000E-03 0.  1.
        -11    1    3    3    0    0 -0.12230737430E+02 -0.54584453755E+00 -0.55301156290E+01  0.13433951893E+02  0.51100000000E-03 0. -1.
         12    1    3    3    0    0  0.50652081073E+01 -0.39819005810E+01  0.16658740166E+02  0.17861284650E+02  0.00000000000E+00 0. -1.
</event>
<event>
 7    1  0.4346085E-013  0.5930192E+02  0.7816164E-02  0.1266605E+00
        -11   -1    0    0    0    0  0.00000000000E+00  0.00000000000E+00  0.45593999997E+02  0.45594000000E+02  0.51100000000E-03 0. -1.
         11   -1    0    0    0    0 -0.00000000000E+00 -0.00000000000E+00 -0.45593999997E+02  0.45594000000E+02  0.51100000000E-03 0.  1.
    9900012    2    1    2    0    0  0.20657657781E+02  0.75978483704E-01 -0.24289453854E+02  0.59301918927E+02  0.49999954221E+02 0.  0.
         12    1    1    2    0    0 -0.20657657781E+02 -0.75978483704E-01  0.24289453854E+02  0.31886081073E+02  0.00000000000E+00 0. -1.
         11    1    3    3    0    0 -0.10311224646E+02 -0.79958611571E+00  0.46313372877E+00  0.10352544845E+02  0.51100000000E-03 0. -1.
        -11    1    3    3    0    0  0.32572897770E+02  0.53179708595E+01 -0.11614593310E+02  0.34988187452E+02  0.51100000000E-03 0.  1.
         12    1    3    3    0    0 -0.16040153434E+01 -0.44424062601E+01 -0.13137994272E+02  0.13961186629E+02  0.00000000000E+00 0. -1.
</event>
<event>
 7    1  0.4346085E-013  0.5930195E+02  0.7816164E-02  0.1266605E+00
        -11   -1    0    0    0    0  0.00000000000E+00  0.00000000000E+00  0.45593999997E+02  0.45594000000E+02  0.51100000000E-03 0. -1.
         11   -1    0    0    0    0 -0.00000000000E+00 -0.00000000000E+00 -0.45593999997E+02  0.45594000000E+02  0.51100000000E-03 0.  1.
    9900012    2    1    2    0    0  0.60552724490E+00  0.31681422992E+02 -0.35554071679E+01  0.59301950602E+02  0.50000011991E+02 0.  0.
         12    1    1    2    0    0 -0.60552724490E+00 -0.31681422992E+02  0.35554071679E+01  0.31886049398E+02  0.00000000000E+00 0. -1.
         11    1    3    3    0    0 -0.59570017450E+01  0.53032442820E+01  0.20028844262E+02  0.21558406073E+02  0.51100000000E-03 0. -1.
        -11    1    3    3    0    0  0.45441944710E+01  0.22262230915E+02 -0.12924767671E+02  0.26140127167E+02  0.51100000000E-03 0.  1.
        -12    1    3    3    0    0  0.20183345189E+01  0.41159477956E+01 -0.10659483758E+02  0.11603417362E+02  0.00000000000E+00 0.  1.
</event>
<event>
 7    1  0.4346085E-013  0.5930194E+02  0.7816164E-02  0.1266605E+00
        -11   -1    0    0    0    0  0.00000000000E+00  0.00000000000E+00  0.45593999997E+02  0.45594000000E+02  0.51100000000E-03 0. -1.
         11   -1    0    0    0    0 -0.00000000000E+00 -0.00000000000E+00 -0.45593999997E+02  0.45594000000E+02  0.51100000000E-03 0.  1.
    9900012    2    1    2    0    0 -0.26255545414E+02 -0.89063740503E+01 -0.15749398111E+02  0.59301941846E+02  0.49999996022E+02 0.  0.
         12    1    1    2    0    0  0.26255545414E+02  0.89063740503E+01  0.15749398111E+02  0.31886058154E+02  0.00000000000E+00 0. -1.
         11    1    3    3    0    0  0.50168988248E+01 -0.18178031147E+02 -0.28191076837E+01  0.19067182765E+02  0.51100000000E-03 0. -1.
        -11    1    3    3    0    0 -0.47805550273E+01  0.10122123143E+02 -0.65588436924E+01  0.12974186454E+02  0.51100000000E-03 0.  1.
         12    1    3    3    0    0 -0.26491889212E+02 -0.85046604723E+00 -0.63714467349E+01  0.27260572628E+02  0.00000000000E+00 0. -1.
</event>
<event>
 7    1  0.4346085E-013  0.5930199E+02  0.7816164E-02  0.1266605E+00
        -11   -1    0    0    0    0  0.00000000000E+00  0.00000000000E+00  0.45593999997E+02  0.45594000000E+02  0.51100000000E-03 0.  1.
         11   -1    0    0    0    0 -0.00000000000E+00 -0.00000000000E+00 -0.45593999997E+02  0.45594000000E+02  0.51100000000E-03 0. -1.
    9900012    2    1    2    0    0  0.74066972710E+01  0.21884920202E+01  0.30936531553E+02  0.59301989802E+02  0.50000083482E+02 0.  0.
         12    1    1    2    0    0 -0.74066972710E+01 -0.21884920202E+01 -0.30936531553E+02  0.31886010198E+02  0.00000000000E+00 0. -1.
         11    1    3    3    0    0  0.95068938587E+01 -0.10260842060E+01 -0.89269228722E+01  0.13081430803E+02  0.51100000000E-03 0. -1.
        -11    1    3    3    0    0 -0.31767545896E+01  0.13000142666E+02  0.20208155623E+02  0.24237677962E+02  0.51100000000E-03 0.  1.
         12    1    3    3    0    0  0.10765580018E+01 -0.97855664397E+01  0.19655298802E+02  0.21982881037E+02  0.00000000000E+00 0. -1.
</event>
<event>
 7    1  0.4346085E-013  0.5930190E+02  0.7816164E-02  0.1266605E+00
        -11   -1    0    0    0    0  0.00000000000E+00  0.00000000000E+00  0.45593999997E+02  0.45594000000E+02  0.51100000000E-03 0. -1.
         11   -1    0    0    0    0 -0.00000000000E+00 -0.00000000000E+00 -0.45593999997E+02  0.45594000000E+02  0.51100000000E-03 0.  1.
    9900012    2    1    2    0    0 -0.25556617427E+02 -0.94856708427E+01 -0.16541010255E+02  0.59301895410E+02  0.49999911333E+02 0.  0.
         12    1    1    2    0    0  0.25556617427E+02  0.94856708427E+01  0.16541010255E+02  0.31886104590E+02  0.00000000000E+00 0. -1.
         11    1    3    3    0    0 -0.93871170636E+01 -0.83432234154E+01 -0.73534336244E+01  0.14553361469E+02  0.51100000000E-03 0. -1.
        -11    1    3    3    0    0  0.13696337774E+02 -0.22168027451E+01 -0.37537471740E+01  0.14373395595E+02  0.51100000000E-03 0.  1.
        -12    1    3    3    0    0 -0.29865838137E+02  0.10743553178E+01 -0.54338294565E+01  0.30375138346E+02  0.00000000000E+00 0.  1.
</event>
<event>
 7    1  0.4346085E-013  0.5930184E+02  0.7816164E-02  0.1266605E+00
        -11   -1    0    0    0    0  0.00000000000E+00  0.00000000000E+00  0.45593999997E+02  0.45594000000E+02  0.51100000000E-03 0.  1.
         11   -1    0    0    0    0 -0.00000000000E+00 -0.00000000000E+00 -0.45593999997E+02  0.45594000000E+02  0.51100000000E-03 0. -1.
    9900012    2    1    2    0    0 -0.20237428397E+02 -0.35959634343E+01  0.24377093658E+02  0.59301840677E+02  0.49999811513E+02 0.  0.
         12    1    1    2    0    0  0.20237428397E+02  0.35959634343E+01 -0.24377093658E+02  0.31886159323E+02  0.00000000000E+00 0. -1.
         11    1    3    3    0    0 -0.99138865944E+00  0.10354926797E+02  0.18700725801E+02  0.21399170689E+02  0.51100000000E-03 0.  1.
        -11    1    3    3    0    0  0.57830931845E+00  0.34865627379E+01 -0.75770748495E+01  0.83607789667E+01  0.51100000000E-03 0. -1.
        -12    1    3    3    0    0 -0.19824349056E+02 -0.17437452969E+02  0.13253442707E+02  0.29541891022E+02  0.00000000000E+00 0.  1.
</event>
<event>
 7    1  0.4346085E-013  0.5930194E+02  0.7816164E-02  0.1266605E+00
        -11   -1    0    0    0    0  0.00000000000E+00  0.00000000000E+00  0.45593999997E+02  0.45594000000E+02  0.51100000000E-03 0.  1.
         11   -1    0    0    0    0 -0.00000000000E+00 -0.00000000000E+00 -0.45593999997E+02  0.45594000000E+02  0.51100000000E-03 0. -1.
    9900012    2    1    2    0    0 -0.87534288116E+01  0.21430379447E+02  0.21928004158E+02  0.59301936500E+02  0.49999986271E+02 0.  0.
         12    1    1    2    0    0  0.87534288116E+01 -0.21430379447E+02 -0.21928004158E+02  0.31886063500E+02  0.00000000000E+00 0. -1.
         11    1    3    3    0    0 -0.50974434651E+01  0.17783754740E+02 -0.88830870825E+01  0.20522063709E+02  0.51100000000E-03 0. -1.
        -11    1    3    3    0    0  0.79121220445E+00 -0.77897762118E+01  0.22846614709E+02  0.24151075216E+02  0.51100000000E-03 0.  1.
         12    1    3    3    0    0 -0.44471975510E+01  0.11436400919E+02  0.79644765317E+01  0.14628797574E+02  0.00000000000E+00 0. -1.
</event>
<event>
 7    1  0.4346085E-013  0.5930190E+02  0.7816164E-02  0.1266605E+00
        -11   -1    0    0    0    0  0.00000000000E+00  0.00000000000E+00  0.45593999997E+02  0.45594000000E+02  0.51100000000E-03 0. -1.
         11   -1    0    0    0    0 -0.00000000000E+00 -0.00000000000E+00 -0.45593999997E+02  0.45594000000E+02  0.51100000000E-03 0.  1.
    9900012    2    1    2    0    0  0.15538998256E+02 -0.19254275908E+02  0.20113078197E+02  0.59301897665E+02  0.49999915446E+02 0.  0.
         12    1    1    2    0    0 -0.15538998256E+02  0.19254275908E+02 -0.20113078197E+02  0.31886102335E+02  0.00000000000E+00 0. -1.
         11    1    3    3    0    0  0.60800866091E+01 -0.27619829704E+02  0.53006663399E+01  0.28773590495E+02  0.51100000000E-03 0. -1.
        -11    1    3    3    0    0  0.44227220367E+01  0.16438947392E+02  0.11053978597E+02  0.20297534448E+02  0.51100000000E-03 0.  1.
         12    1    3    3    0    0  0.50361896102E+01 -0.80733935953E+01  0.37584332604E+01  0.10230772723E+02  0.00000000000E+00 0. -1.
</event>
<event>
 7    1  0.4346085E-013  0.5930201E+02  0.7816164E-02  0.1266605E+00
        -11   -1    0    0    0    0  0.00000000000E+00  0.00000000000E+00  0.45593999997E+02  0.45594000000E+02  0.51100000000E-03 0.  1.
         11   -1    0    0    0    0 -0.00000000000E+00 -0.00000000000E+00 -0.45593999997E+02  0.45594000000E+02  0.51100000000E-03 0. -1.
    9900012    2    1    2    0    0  0.26320385701E+02 -0.10296006986E+02  0.14762990832E+02  0.59302009948E+02  0.50000120222E+02 0.  0.
         12    1    1    2    0    0 -0.26320385701E+02  0.10296006986E+02 -0.14762990832E+02  0.31885990052E+02  0.00000000000E+00 0. -1.
         11    1    3    3    0    0 -0.75276774198E+01  0.39699008367E+01  0.13761045628E+02  0.16180000526E+02  0.51100000000E-03 0. -1.
        -11    1    3    3    0    0  0.23794499318E+02 -0.20037289077E+02 -0.19214804465E+01  0.31166700799E+02  0.51100000000E-03 0.  1.
        -12    1    3    3    0    0  0.10053563803E+02  0.57713812538E+01  0.29234256506E+01  0.11955308622E+02  0.00000000000E+00 0.  1.
</event>
